
     Program PWSCF v.7.2 starts on 18Apr2024 at  8: 7:35 

     This program is part of the open-source Quantum ESPRESSO suite
     for quantum simulation of materials; please cite
         "P. Giannozzi et al., J. Phys.:Condens. Matter 21 395502 (2009);
         "P. Giannozzi et al., J. Phys.:Condens. Matter 29 465901 (2017);
         "P. Giannozzi et al., J. Chem. Phys. 152 154105 (2020);
          URL http://www.quantum-espresso.org", 
     in publications or presentations arising from this work. More details at
     http://www.quantum-espresso.org/quote

     Parallel version (MPI & OpenMP), running on       8 processor cores
     Number of MPI processes:                 8
     Threads/MPI process:                     1

     MPI processes distributed on     1 nodes
     0 MiB available memory on the printing compute node when the environment starts

     Waiting for input...
     Reading input from standard input
Warning: card &CELL ignored
Warning: card     CELL_DYNAMICS = 'BFGS' ignored
Warning: card     CELL_DOFREE = '2DXY' ignored
Warning: card / ignored

     Current dimensions of program PWSCF are:
     Max number of different atomic species (ntypx) = 10
     Max number of k-points (npk) =  40000
     Max angular momentum in pseudopotentials (lmaxx) =  4

     IMPORTANT: XC functional enforced from input :
     Exchange-correlation= VDW-DF2-B86R
                           (   1   4  26   0   2   0   0)
     Any further DFT definition will be discarded
     Please, verify this is what you really want


     R & G space division:  proc/nbgrp/npool/nimage =       8
     Subspace diagonalization in iterative solution of the eigenvalue problem:
     a serial algorithm will be used


     Parallelization info
     --------------------
     sticks:   dense  smooth     PW     G-vecs:    dense   smooth      PW
     Min         160     160     45                37274    37274    5565
     Max         161     161     46                37305    37305    5596
     Sum        1285    1285    361               298343   298343   44633

     Using Slab Decomposition



     bravais-lattice index     =            4
     lattice parameter (alat)  =       5.9892  a.u.
     unit-cell volume          =    1488.4254 (a.u.)^3
     number of atoms/cell      =            3
     number of atomic types    =            2
     number of electrons       =        26.00
     number of Kohn-Sham states=           13
     kinetic-energy cutoff     =     130.0000  Ry
     charge density cutoff     =     520.0000  Ry
     scf convergence threshold =      1.0E-07
     mixing beta               =       0.7000
     number of iterations used =            8  plain     mixing
     energy convergence thresh.=      1.0E-05
     force convergence thresh. =      1.0E-04
     Exchange-correlation= VDW-DF2-B86R
                           (   1   4  26   0   2   0   0)
     nstep                     =           50


     celldm(1)=   5.989200  celldm(2)=   0.000000  celldm(3)=   8.000000
     celldm(4)=   0.000000  celldm(5)=   0.000000  celldm(6)=   0.000000

     crystal axes: (cart. coord. in units of alat)
               a(1) = (   1.000000   0.000000   0.000000 )  
               a(2) = (  -0.500000   0.866025   0.000000 )  
               a(3) = (   0.000000   0.000000   8.000000 )  

     reciprocal axes: (cart. coord. in units 2 pi/alat)
               b(1) = (  1.000000  0.577350 -0.000000 )  
               b(2) = (  0.000000  1.154701  0.000000 )  
               b(3) = (  0.000000 -0.000000  0.125000 )  


     PseudoPot. # 1 for S  read from file:
     ../../../Pseudo/PBE/S.upf
     MD5 check sum: b72b6a9ca752e39de1a6cc592280dae2
     Pseudo is Norm-conserving + core correction, Zval =  6.0
     Generated using ONCVPSP code by D. R. Hamann
     Using radial grid of 1148 points,  6 beta functions with: 
                l(1) =   0
                l(2) =   0
                l(3) =   1
                l(4) =   1
                l(5) =   2
                l(6) =   2

     PseudoPot. # 2 for Mo read from file:
     ../../../Pseudo/PBE/Mo.upf
     MD5 check sum: 7ca7a9feba7bf08d88d14bc7fbf60c1e
     Pseudo is Norm-conserving + core correction, Zval = 14.0
     Generated using ONCVPSP code by D. R. Hamann
     Using radial grid of 1640 points,  6 beta functions with: 
                l(1) =   0
                l(2) =   0
                l(3) =   1
                l(4) =   1
                l(5) =   2
                l(6) =   2

     atomic species   valence    mass     pseudopotential
        S              6.00    32.06500     S ( 1.00)
        Mo            14.00   183.84000     Mo( 1.00)

     12 Sym. Ops. (no inversion) found


                                    s                        frac. trans.

      isym =  1     identity                                     

 cryst.   s( 1) = (     1          0          0      )
                  (     0          1          0      )
                  (     0          0          1      )

 cart.    s( 1) = (  1.0000000  0.0000000  0.0000000 )
                  (  0.0000000  1.0000000  0.0000000 )
                  (  0.0000000  0.0000000  1.0000000 )


      isym =  2     180 deg rotation - cart. axis [0,1,0]        

 cryst.   s( 2) = (    -1          0          0      )
                  (     1          1          0      )
                  (     0          0         -1      )

 cart.    s( 2) = ( -1.0000000  0.0000000  0.0000000 )
                  (  0.0000000  1.0000000  0.0000000 )
                  (  0.0000000  0.0000000 -1.0000000 )


      isym =  3     120 deg rotation - cryst. axis [0,0,1]       

 cryst.   s( 3) = (     0          1          0      )
                  (    -1         -1          0      )
                  (     0          0          1      )

 cart.    s( 3) = ( -0.5000000 -0.8660254  0.0000000 )
                  (  0.8660254 -0.5000000  0.0000000 )
                  (  0.0000000  0.0000000  1.0000000 )


      isym =  4     120 deg rotation - cryst. axis [0,0,-1]      

 cryst.   s( 4) = (    -1         -1          0      )
                  (     1          0          0      )
                  (     0          0          1      )

 cart.    s( 4) = ( -0.5000000  0.8660254  0.0000000 )
                  ( -0.8660254 -0.5000000  0.0000000 )
                  (  0.0000000  0.0000000  1.0000000 )


      isym =  5     180 deg rotation - cryst. axis [1,-1,0]      

 cryst.   s( 5) = (     0         -1          0      )
                  (    -1          0          0      )
                  (     0          0         -1      )

 cart.    s( 5) = (  0.5000000 -0.8660254  0.0000000 )
                  ( -0.8660254 -0.5000000  0.0000000 )
                  (  0.0000000  0.0000000 -1.0000000 )


      isym =  6     180 deg rotation - cryst. axis [2,1,0]       

 cryst.   s( 6) = (     1          1          0      )
                  (     0         -1          0      )
                  (     0          0         -1      )

 cart.    s( 6) = (  0.5000000  0.8660254  0.0000000 )
                  (  0.8660254 -0.5000000  0.0000000 )
                  (  0.0000000  0.0000000 -1.0000000 )


      isym =  7     inv. 180 deg rotation - cart. axis [0,0,1]   

 cryst.   s( 7) = (     1          0          0      )
                  (     0          1          0      )
                  (     0          0         -1      )

 cart.    s( 7) = (  1.0000000  0.0000000  0.0000000 )
                  (  0.0000000  1.0000000  0.0000000 )
                  (  0.0000000  0.0000000 -1.0000000 )


      isym =  8     inv. 180 deg rotation - cart. axis [1,0,0]   

 cryst.   s( 8) = (    -1          0          0      )
                  (     1          1          0      )
                  (     0          0          1      )

 cart.    s( 8) = ( -1.0000000  0.0000000  0.0000000 )
                  (  0.0000000  1.0000000  0.0000000 )
                  (  0.0000000  0.0000000  1.0000000 )


      isym =  9     inv.  60 deg rotation - cryst. axis [0,0,1]  

 cryst.   s( 9) = (    -1         -1          0      )
                  (     1          0          0      )
                  (     0          0         -1      )

 cart.    s( 9) = ( -0.5000000  0.8660254  0.0000000 )
                  ( -0.8660254 -0.5000000  0.0000000 )
                  (  0.0000000  0.0000000 -1.0000000 )


      isym = 10     inv.  60 deg rotation - cryst. axis [0,0,-1] 

 cryst.   s(10) = (     0          1          0      )
                  (    -1         -1          0      )
                  (     0          0         -1      )

 cart.    s(10) = ( -0.5000000 -0.8660254  0.0000000 )
                  (  0.8660254 -0.5000000  0.0000000 )
                  (  0.0000000  0.0000000 -1.0000000 )


      isym = 11     inv. 180 deg rotation - cryst. axis [0,1,0]  

 cryst.   s(11) = (     1          1          0      )
                  (     0         -1          0      )
                  (     0          0          1      )

 cart.    s(11) = (  0.5000000  0.8660254  0.0000000 )
                  (  0.8660254 -0.5000000  0.0000000 )
                  (  0.0000000  0.0000000  1.0000000 )


      isym = 12     inv. 180 deg rotation - cryst. axis [1,1,0]  

 cryst.   s(12) = (     0         -1          0      )
                  (    -1          0          0      )
                  (     0          0          1      )

 cart.    s(12) = (  0.5000000 -0.8660254  0.0000000 )
                  ( -0.8660254 -0.5000000  0.0000000 )
                  (  0.0000000  0.0000000  1.0000000 )


     point group D_3h (-62m)
     there are  6 classes
     the character table:

       E     2C3   3C2   s_h   2S3   3s_v 
A'_1   1.00  1.00  1.00  1.00  1.00  1.00
A'_2   1.00  1.00 -1.00  1.00  1.00 -1.00
E'     2.00 -1.00  0.00  2.00 -1.00  0.00
A''1   1.00  1.00  1.00 -1.00 -1.00 -1.00
A''2   1.00  1.00 -1.00 -1.00 -1.00  1.00
E''    2.00 -1.00  0.00 -2.00  1.00  0.00

     the symmetry operations in each class and the name of the first element:

     E        1
          identity                                               
     2C3      3    4
          120 deg rotation - cryst. axis [0,0,1]                 
     3C2      2    6    5
          180 deg rotation - cart. axis [0,1,0]                  
     s_h      7
          inv. 180 deg rotation - cart. axis [0,0,1]             
     2S3      9   10
          inv.  60 deg rotation - cryst. axis [0,0,1]            
     3s_v     8   11   12
          inv. 180 deg rotation - cart. axis [1,0,0]             

   Cartesian axes

     site n.     atom                  positions (alat units)
         1           Mo  tau(   1) = (  -0.0000003   0.5773503   0.0000000  )
         2           S   tau(   2) = (   0.5000002   0.2886748   0.4943314  )
         3           S   tau(   3) = (   0.5000002   0.2886748  -0.4943314  )

   Crystallographic axes

     site n.     atom                  positions (cryst. coord.)
         1           Mo  tau(   1) = (  0.3333330  0.6666667  0.0000000  )
         2           S   tau(   2) = (  0.6666667  0.3333330  0.0617914  )
         3           S   tau(   3) = (  0.6666667  0.3333330 -0.0617914  )

     number of k points=    19
                       cart. coord. in units 2pi/alat
        k(    1) = (   0.0000000   0.0000000   0.0000000), wk =   0.0138889
        k(    2) = (   0.0000000   0.0962250   0.0000000), wk =   0.0833333
        k(    3) = (   0.0000000   0.1924501   0.0000000), wk =   0.0833333
        k(    4) = (   0.0000000   0.2886751   0.0000000), wk =   0.0833333
        k(    5) = (   0.0000000   0.3849002   0.0000000), wk =   0.0833333
        k(    6) = (   0.0000000   0.4811252   0.0000000), wk =   0.0833333
        k(    7) = (   0.0000000  -0.5773503   0.0000000), wk =   0.0416667
        k(    8) = (   0.0833333   0.1443376   0.0000000), wk =   0.0833333
        k(    9) = (   0.0833333   0.2405626   0.0000000), wk =   0.1666667
        k(   10) = (   0.0833333   0.3367877   0.0000000), wk =   0.1666667
        k(   11) = (   0.0833333   0.4330127   0.0000000), wk =   0.1666667
        k(   12) = (   0.0833333   0.5292377   0.0000000), wk =   0.1666667
        k(   13) = (   0.1666667   0.2886751   0.0000000), wk =   0.0833333
        k(   14) = (   0.1666667   0.3849002   0.0000000), wk =   0.1666667
        k(   15) = (   0.1666667   0.4811252   0.0000000), wk =   0.1666667
        k(   16) = (   0.1666667   0.5773503   0.0000000), wk =   0.0833333
        k(   17) = (   0.2500000   0.4330127   0.0000000), wk =   0.0833333
        k(   18) = (   0.2500000   0.5292377   0.0000000), wk =   0.1666667
        k(   19) = (   0.3333333   0.5773503   0.0000000), wk =   0.0277778

                       cryst. coord.
        k(    1) = (   0.0000000   0.0000000   0.0000000), wk =   0.0138889
        k(    2) = (   0.0000000   0.0833333   0.0000000), wk =   0.0833333
        k(    3) = (   0.0000000   0.1666667   0.0000000), wk =   0.0833333
        k(    4) = (   0.0000000   0.2500000   0.0000000), wk =   0.0833333
        k(    5) = (   0.0000000   0.3333333   0.0000000), wk =   0.0833333
        k(    6) = (   0.0000000   0.4166667   0.0000000), wk =   0.0833333
        k(    7) = (   0.0000000  -0.5000000   0.0000000), wk =   0.0416667
        k(    8) = (   0.0833333   0.0833333   0.0000000), wk =   0.0833333
        k(    9) = (   0.0833333   0.1666667   0.0000000), wk =   0.1666667
        k(   10) = (   0.0833333   0.2500000   0.0000000), wk =   0.1666667
        k(   11) = (   0.0833333   0.3333333   0.0000000), wk =   0.1666667
        k(   12) = (   0.0833333   0.4166667   0.0000000), wk =   0.1666667
        k(   13) = (   0.1666667   0.1666667   0.0000000), wk =   0.0833333
        k(   14) = (   0.1666667   0.2500000   0.0000000), wk =   0.1666667
        k(   15) = (   0.1666667   0.3333333   0.0000000), wk =   0.1666667
        k(   16) = (   0.1666667   0.4166667   0.0000000), wk =   0.0833333
        k(   17) = (   0.2500000   0.2500000   0.0000000), wk =   0.0833333
        k(   18) = (   0.2500000   0.3333333   0.0000000), wk =   0.1666667
        k(   19) = (   0.3333333   0.3333333   0.0000000), wk =   0.0277778

     Dense  grid:   298343 G-vectors     FFT dimensions: (  45,  45, 360)

     Dynamical RAM for                 wfc:       0.92 MB

     Dynamical RAM for     wfc (w. buffer):      18.48 MB

     Dynamical RAM for           str. fact:       1.14 MB

     Dynamical RAM for           local pot:       0.00 MB

     Dynamical RAM for          nlocal pot:       3.84 MB

     Dynamical RAM for                qrad:       3.66 MB

     Dynamical RAM for          rho,v,vnew:       3.79 MB

     Dynamical RAM for               rhoin:       1.26 MB

     Dynamical RAM for            rho*nmix:       9.11 MB

     Dynamical RAM for           G-vectors:       2.42 MB

     Dynamical RAM for          h,s,v(r/c):       0.03 MB

     Dynamical RAM for          <psi|beta>:       0.01 MB

     Dynamical RAM for                 psi:       1.85 MB

     Dynamical RAM for                hpsi:       1.85 MB

     Dynamical RAM for      wfcinit/wfcrot:       2.57 MB

     Estimated static dynamical RAM per process >      39.77 MB

     Estimated max dynamical RAM per process >      52.62 MB

     Estimated total dynamical RAM >     420.93 MB

     Initial potential from superposition of free atoms

     starting charge      25.9985, renormalised to      26.0000

     negative rho (up, down):  8.325E-07 0.000E+00


     %%%%%%%%%%%%%%%%%%%%%%%%%%%%%%%%%%%%%%%%%%%%%%%%%%%%%%%%%%%%%%%%%%%%%%%%
     %                                                                      %
     % You are using vdW-DF, which was implemented by the Thonhauser group. %
     % Please cite the following two papers that made this development      %
     % possible and the two reviews that describe the various versions:     %
     %                                                                      %
     %   T. Thonhauser et al., PRL 115, 136402 (2015).                      %
     %   T. Thonhauser et al., PRB 76, 125112 (2007).                       %
     %   K. Berland et al., Rep. Prog. Phys. 78, 066501 (2015).             %
     %   D.C. Langreth et al., J. Phys.: Condens. Matter 21, 084203 (2009). %
     %                                                                      %
     % If you are calculating stress with vdW-DF, please also cite:         %
     %                                                                      %
     %   R. Sabatini et al., J. Phys.: Condens. Matter 24, 424209 (2012).   %
     %                                                                      %
     %%%%%%%%%%%%%%%%%%%%%%%%%%%%%%%%%%%%%%%%%%%%%%%%%%%%%%%%%%%%%%%%%%%%%%%%

     %%%%%%%%%%%%%%%%%%%%%%%%%%%%%%%%%%%%%%%%%%%%%%%%%%%%%%%%%%%%%%%%%%%%%%%%
     %                                                                      %
     %  vdW-DF NEWS:                                                        %
     %                                                                      %
     %  * vdW-DF3 is now available. DOI: 10.1021/acs.jctc.0c00471           %
     %    use with input_dft = 'vdW-DF3-opt1' or 'vdW-DF3-opt2'             %
     %                                                                      %
     %  * Unscreened and range-separated hybrid vdW-DF-cx functionals       %
     %    DOI: 10.1063/1.4986522 and 10.1088/1361-648X/ac2ad2               %
     %    use with input_dft = 'vdW-DF-cx0'    and 'vdW-DF-ahcx'            %
     %  * Unscreened and range-separated hybrid vdW-DF2-b86r functionals    %
     %    DOI: 10.1063/1.4986522 and DOI: 10.1103/PhysRevX.12.041003        %
     %    use with input_dft = 'vdW-DF2-br0' and 'vdW-DF2-ahbr'             %
     %                                                                      %
     %%%%%%%%%%%%%%%%%%%%%%%%%%%%%%%%%%%%%%%%%%%%%%%%%%%%%%%%%%%%%%%%%%%%%%%%


     Carrying out vdW-DF run using the following parameters:
     Nqs    =  20  Npoints =  1024  r_max =  100.000
     q_mesh =  0.00001000  0.04494208  0.09755937  0.15916263
               0.23128650  0.31572767  0.41458969  0.53033537
               0.66584808  0.82450364  1.01025438  1.22772762
               1.48234092  1.78043706  2.12944203  2.53805004
               3.01644009  3.57652955  4.23227104  5.00000000


     -----------------------------------------------
     Non-local corr. energy    =       0.30467405 Ry
     -----------------------------------------------

     Starting wfcs are   18 randomized atomic wfcs

     total cpu time spent up to now is       32.4 secs

     Self-consistent Calculation

     iteration #  1     ecut=   130.00 Ry     beta= 0.70
     Davidson diagonalization with overlap

---- Real-time Memory Report at c_bands before calling an iterative solver
             0 MiB given to the printing process from OS
             0 MiB allocation reported by mallinfo(arena+hblkhd)
             0 MiB available memory on the node where the printing process lives
------------------
     ethr =  1.00E-02,  avg # of iterations =  2.1


     -----------------------------------------------
     Non-local corr. energy    =       0.30555238 Ry
     -----------------------------------------------


     total cpu time spent up to now is       44.0 secs

     total energy              =    -184.58037345 Ry
     estimated scf accuracy    <       0.46599347 Ry

     iteration #  2     ecut=   130.00 Ry     beta= 0.70
     Davidson diagonalization with overlap

---- Real-time Memory Report at c_bands before calling an iterative solver
             0 MiB given to the printing process from OS
             0 MiB allocation reported by mallinfo(arena+hblkhd)
             0 MiB available memory on the node where the printing process lives
------------------
     ethr =  1.79E-03,  avg # of iterations =  6.8


     -----------------------------------------------
     Non-local corr. energy    =       0.30498940 Ry
     -----------------------------------------------


     total cpu time spent up to now is       63.4 secs

     total energy              =    -184.21848261 Ry
     estimated scf accuracy    <       5.07092188 Ry

     iteration #  3     ecut=   130.00 Ry     beta= 0.70
     Davidson diagonalization with overlap

---- Real-time Memory Report at c_bands before calling an iterative solver
             0 MiB given to the printing process from OS
             0 MiB allocation reported by mallinfo(arena+hblkhd)
             0 MiB available memory on the node where the printing process lives
------------------
     ethr =  1.79E-03,  avg # of iterations =  5.3


     -----------------------------------------------
     Non-local corr. energy    =       0.30297214 Ry
     -----------------------------------------------


     total cpu time spent up to now is       76.2 secs

     total energy              =    -184.85736158 Ry
     estimated scf accuracy    <       0.00767149 Ry

     iteration #  4     ecut=   130.00 Ry     beta= 0.70
     Davidson diagonalization with overlap

---- Real-time Memory Report at c_bands before calling an iterative solver
             0 MiB given to the printing process from OS
             0 MiB allocation reported by mallinfo(arena+hblkhd)
             0 MiB available memory on the node where the printing process lives
------------------
     ethr =  2.95E-05,  avg # of iterations =  6.7


     -----------------------------------------------
     Non-local corr. energy    =       0.30281626 Ry
     -----------------------------------------------


     total cpu time spent up to now is       91.6 secs

     total energy              =    -184.86696124 Ry
     estimated scf accuracy    <       0.02577333 Ry

     iteration #  5     ecut=   130.00 Ry     beta= 0.70
     Davidson diagonalization with overlap

---- Real-time Memory Report at c_bands before calling an iterative solver
             0 MiB given to the printing process from OS
             0 MiB allocation reported by mallinfo(arena+hblkhd)
             0 MiB available memory on the node where the printing process lives
------------------
     ethr =  2.95E-05,  avg # of iterations =  4.1


     -----------------------------------------------
     Non-local corr. energy    =       0.30300667 Ry
     -----------------------------------------------


     total cpu time spent up to now is      103.4 secs

     total energy              =    -184.86941647 Ry
     estimated scf accuracy    <       0.00111478 Ry

     iteration #  6     ecut=   130.00 Ry     beta= 0.70
     Davidson diagonalization with overlap

---- Real-time Memory Report at c_bands before calling an iterative solver
             0 MiB given to the printing process from OS
             0 MiB allocation reported by mallinfo(arena+hblkhd)
             0 MiB available memory on the node where the printing process lives
------------------
     ethr =  4.29E-06,  avg # of iterations =  4.7

     negative rho (up, down):  1.195E-06 0.000E+00


     -----------------------------------------------
     Non-local corr. energy    =       0.30292398 Ry
     -----------------------------------------------


     total cpu time spent up to now is      116.8 secs

     total energy              =    -184.86986665 Ry
     estimated scf accuracy    <       0.00016046 Ry

     iteration #  7     ecut=   130.00 Ry     beta= 0.70
     Davidson diagonalization with overlap

---- Real-time Memory Report at c_bands before calling an iterative solver
             0 MiB given to the printing process from OS
             0 MiB allocation reported by mallinfo(arena+hblkhd)
             0 MiB available memory on the node where the printing process lives
------------------
     ethr =  6.17E-07,  avg # of iterations =  4.0


     -----------------------------------------------
     Non-local corr. energy    =       0.30294827 Ry
     -----------------------------------------------


     total cpu time spent up to now is      127.9 secs

     total energy              =    -184.86982708 Ry
     estimated scf accuracy    <       0.00016348 Ry

     iteration #  8     ecut=   130.00 Ry     beta= 0.70
     Davidson diagonalization with overlap

---- Real-time Memory Report at c_bands before calling an iterative solver
             0 MiB given to the printing process from OS
             0 MiB allocation reported by mallinfo(arena+hblkhd)
             0 MiB available memory on the node where the printing process lives
------------------
     ethr =  6.17E-07,  avg # of iterations =  3.3


     -----------------------------------------------
     Non-local corr. energy    =       0.30296259 Ry
     -----------------------------------------------


     total cpu time spent up to now is      139.2 secs

     total energy              =    -184.86986091 Ry
     estimated scf accuracy    <       0.00000270 Ry

     iteration #  9     ecut=   130.00 Ry     beta= 0.70
     Davidson diagonalization with overlap

---- Real-time Memory Report at c_bands before calling an iterative solver
             0 MiB given to the printing process from OS
             0 MiB allocation reported by mallinfo(arena+hblkhd)
             0 MiB available memory on the node where the printing process lives
------------------
     ethr =  1.04E-08,  avg # of iterations =  5.6


     -----------------------------------------------
     Non-local corr. energy    =       0.30296404 Ry
     -----------------------------------------------


     total cpu time spent up to now is      153.7 secs

     total energy              =    -184.86986265 Ry
     estimated scf accuracy    <       0.00000110 Ry

     iteration # 10     ecut=   130.00 Ry     beta= 0.70
     Davidson diagonalization with overlap

---- Real-time Memory Report at c_bands before calling an iterative solver
             0 MiB given to the printing process from OS
             0 MiB allocation reported by mallinfo(arena+hblkhd)
             0 MiB available memory on the node where the printing process lives
------------------
     ethr =  4.22E-09,  avg # of iterations =  3.0


     -----------------------------------------------
     Non-local corr. energy    =       0.30296182 Ry
     -----------------------------------------------


     total cpu time spent up to now is      166.0 secs

     total energy              =    -184.86986276 Ry
     estimated scf accuracy    <       0.00000015 Ry

     iteration # 11     ecut=   130.00 Ry     beta= 0.70
     Davidson diagonalization with overlap

---- Real-time Memory Report at c_bands before calling an iterative solver
             0 MiB given to the printing process from OS
             0 MiB allocation reported by mallinfo(arena+hblkhd)
             0 MiB available memory on the node where the printing process lives
------------------
     ethr =  5.71E-10,  avg # of iterations =  4.7


     -----------------------------------------------
     Non-local corr. energy    =       0.30296248 Ry
     -----------------------------------------------


     total cpu time spent up to now is      184.2 secs

     End of self-consistent calculation

          k = 0.0000 0.0000 0.0000 ( 37133 PWs)   bands (ev):

   -62.9591 -37.1249 -36.8973 -36.8972 -16.2396 -14.9430  -7.7594  -4.7318
    -4.7318  -3.9722  -3.6142  -3.6142  -2.2174

     occupation numbers 
     1.0000   1.0000   1.0000   1.0000   1.0000   1.0000   1.0000   1.0000
     1.0000   1.0000   1.0000   1.0000   1.0000

          k = 0.0000 0.0962 0.0000 ( 37143 PWs)   bands (ev):

   -62.9565 -37.1196 -36.9240 -36.9033 -16.1356 -14.9002  -7.6397  -4.9610
    -4.6224  -4.4319  -3.7792  -3.3106  -2.2598

     occupation numbers 
     1.0000   1.0000   1.0000   1.0000   1.0000   1.0000   1.0000   1.0000
     1.0000   1.0000   1.0000   1.0000   1.0000

          k = 0.0000 0.1925 0.0000 ( 37199 PWs)   bands (ev):

   -62.9492 -37.1053 -36.9964 -36.9199 -15.8401 -14.7784  -7.3386  -5.4859
    -5.0722  -4.3173  -4.1679  -3.2226  -2.4716

     occupation numbers 
     1.0000   1.0000   1.0000   1.0000   1.0000   1.0000   1.0000   1.0000
     1.0000   1.0000   1.0000   1.0000   1.0000

          k = 0.0000 0.2887 0.0000 ( 37219 PWs)   bands (ev):

   -62.9393 -37.0941 -37.0857 -36.9424 -15.4025 -14.5996  -7.1242  -5.9275
    -5.7251  -4.6035  -3.8895  -3.4700  -2.8888

     occupation numbers 
     1.0000   1.0000   1.0000   1.0000   1.0000   1.0000   1.0000   1.0000
     1.0000   1.0000   1.0000   1.0000   1.0000

          k = 0.0000 0.3849 0.0000 ( 37289 PWs)   bands (ev):

   -62.9294 -37.1903 -37.0660 -36.9648 -14.9111 -14.4031  -7.3741  -6.3290
    -6.0120  -4.9701  -3.7747  -3.4619  -3.1300

     occupation numbers 
     1.0000   1.0000   1.0000   1.0000   1.0000   1.0000   1.0000   1.0000
     1.0000   1.0000   1.0000   1.0000   1.0000

          k = 0.0000 0.4811 0.0000 ( 37260 PWs)   bands (ev):

   -62.9221 -37.2598 -37.0516 -36.9812 -14.5017 -14.2451  -7.7529  -6.7714
    -6.1145  -5.2080  -3.9692  -3.1665  -2.9448

     occupation numbers 
     1.0000   1.0000   1.0000   1.0000   1.0000   1.0000   1.0000   1.0000
     1.0000   1.0000   1.0000   1.0000   1.0000

          k = 0.0000-0.5774 0.0000 ( 37328 PWs)   bands (ev):

   -62.9194 -37.2851 -37.0463 -36.9871 -14.3375 -14.1837  -7.9146  -6.9353
    -6.1941  -5.2900  -4.0317  -3.0665  -2.7705

     occupation numbers 
     1.0000   1.0000   1.0000   1.0000   1.0000   1.0000   1.0000   1.0000
     1.0000   1.0000   1.0000   1.0000   1.0000

          k = 0.0833 0.1443 0.0000 ( 37167 PWs)   bands (ev):

   -62.9515 -37.1099 -36.9722 -36.9160 -15.9358 -14.8177  -7.4254  -5.3312
    -4.8580  -4.4231  -4.1628  -3.1172  -2.3872

     occupation numbers 
     1.0000   1.0000   1.0000   1.0000   1.0000   1.0000   1.0000   1.0000
     1.0000   1.0000   1.0000   1.0000   1.0000

          k = 0.0833 0.2406 0.0000 ( 37223 PWs)   bands (ev):

   -62.9430 -37.0929 -37.0538 -36.9390 -15.5682 -14.6664  -7.1351  -5.8005
    -5.3961  -4.7144  -4.1054  -3.1429  -2.7146

     occupation numbers 
     1.0000   1.0000   1.0000   1.0000   1.0000   1.0000   1.0000   1.0000
     1.0000   1.0000   1.0000   1.0000   1.0000

          k = 0.0833 0.3368 0.0000 ( 37241 PWs)   bands (ev):

   -62.9330 -37.1465 -37.0732 -36.9657 -15.1001 -14.4756  -7.1630  -6.0396
    -5.9680  -5.0829  -3.8587  -3.4386  -3.0027

     occupation numbers 
     1.0000   1.0000   1.0000   1.0000   1.0000   1.0000   1.0000   1.0000
     1.0000   1.0000   1.0000   1.0000   1.0000

          k = 0.0833 0.4330 0.0000 ( 37305 PWs)   bands (ev):

   -62.9244 -37.2257 -37.0562 -36.9887 -14.6414 -14.2929  -7.5107  -6.6268
    -6.0004  -5.2492  -3.7751  -3.7389  -2.8846

     occupation numbers 
     1.0000   1.0000   1.0000   1.0000   1.0000   1.0000   1.0000   1.0000
     1.0000   1.0000   1.0000   1.0000   1.0000

          k = 0.0833 0.5292 0.0000 ( 37286 PWs)   bands (ev):

   -62.9194 -37.2710 -37.0463 -37.0019 -14.3446 -14.1782  -7.7748  -6.9699
    -6.1324  -5.3016  -3.9845  -3.6025  -2.6389

     occupation numbers 
     1.0000   1.0000   1.0000   1.0000   1.0000   1.0000   1.0000   1.0000
     1.0000   1.0000   1.0000   1.0000   1.0000

          k = 0.1667 0.2887 0.0000 ( 37259 PWs)   bands (ev):

   -62.9344 -37.1241 -37.0759 -36.9725 -15.1675 -14.5006  -7.0559  -5.9343
    -5.8112  -5.3297  -4.0782  -3.1741  -2.9424

     occupation numbers 
     1.0000   1.0000   1.0000   1.0000   1.0000   1.0000   1.0000   1.0000
     1.0000   1.0000   1.0000   1.0000   1.0000

          k = 0.1667 0.3849 0.0000 ( 37283 PWs)   bands (ev):

   -62.9257 -37.1901 -37.0588 -37.0094 -14.7226 -14.3165  -7.2478  -6.5032
    -5.8316  -5.4371  -4.3559  -3.4782  -2.8914

     occupation numbers 
     1.0000   1.0000   1.0000   1.0000   1.0000   1.0000   1.0000   1.0000
     1.0000   1.0000   1.0000   1.0000   1.0000

          k = 0.1667 0.4811 0.0000 ( 37261 PWs)   bands (ev):

   -62.9194 -37.2367 -37.0463 -37.0376 -14.3588 -14.1669  -7.4472  -7.0333
    -5.9435  -5.3481  -4.4715  -3.8537  -2.6417

     occupation numbers 
     1.0000   1.0000   1.0000   1.0000   1.0000   1.0000   1.0000   1.0000
     1.0000   1.0000   1.0000   1.0000   1.0000

          k = 0.1667 0.5774 0.0000 ( 37279 PWs)   bands (ev):

   -62.9171 -37.2535 -37.0481 -37.0417 -14.2152 -14.1083  -7.5199  -7.2260
    -6.0701  -5.2718  -4.4627  -4.0353  -2.4632

     occupation numbers 
     1.0000   1.0000   1.0000   1.0000   1.0000   1.0000   1.0000   1.0000
     1.0000   1.0000   1.0000   1.0000   1.0000

          k = 0.2500 0.4330 0.0000 ( 37263 PWs)   bands (ev):

   -62.9194 -37.2138 -37.0612 -37.0463 -14.3657 -14.1613  -7.2490  -7.0625
    -5.7101  -5.3798  -5.0339  -3.7720  -2.6700

     occupation numbers 
     1.0000   1.0000   1.0000   1.0000   1.0000   1.0000   1.0000   1.0000
     1.0000   1.0000   1.0000   1.0000   1.0000

          k = 0.2500 0.5292 0.0000 ( 37265 PWs)   bands (ev):

   -62.9158 -37.2185 -37.1000 -37.0391 -14.1445 -14.0623  -7.4088  -7.1229
    -5.9370  -5.3203  -5.1755  -4.1120  -2.3610

     occupation numbers 
     1.0000   1.0000   1.0000   1.0000   1.0000   1.0000   1.0000   1.0000
     1.0000   1.0000   1.0000   1.0000   1.0000

          k = 0.3333 0.5774 0.0000 ( 37287 PWs)   bands (ev):

   -62.9144 -37.1891 -37.1457 -37.0365 -14.0648 -14.0208  -7.5566  -6.7306
    -6.1969  -5.6537  -5.0106  -4.3054  -2.1726

     occupation numbers 
     1.0000   1.0000   1.0000   1.0000   1.0000   1.0000   1.0000   1.0000
     1.0000   1.0000   1.0000   1.0000   1.0000

     highest occupied level (ev):    -2.1726

!    total energy              =    -184.86986280 Ry
     estimated scf accuracy    <          1.7E-09 Ry

     The total energy is the sum of the following terms:
     one-electron contribution =   -1571.02542445 Ry
     hartree contribution      =     784.78175651 Ry
     xc contribution           =     -33.31097842 Ry
     ewald contribution        =     634.68478356 Ry

     convergence has been achieved in  11 iterations


     -----------------------------------------------
     Non-local corr. energy    =       0.30296248 Ry
     -----------------------------------------------


     Forces acting on atoms (cartesian axes, Ry/au):

     atom    1 type  2   force =     0.00000000    0.00000000    0.00000000
     atom    2 type  1   force =    -0.00000000    0.00000000    0.00195719
     atom    3 type  1   force =     0.00000000    0.00000000   -0.00195719
     The non-local contrib.  to forces
     atom    1 type  2   force =     0.00000000   -0.00000000    0.00000000
     atom    2 type  1   force =    -0.00000000   -0.00000000   -0.24570605
     atom    3 type  1   force =     0.00000000   -0.00000000    0.24570605
     The ionic contribution  to forces
     atom    1 type  2   force =     0.00000917   -0.00000530   -0.00000000
     atom    2 type  1   force =    -0.00000459    0.00000265   38.30777605
     atom    3 type  1   force =    -0.00000459    0.00000265  -38.30777605
     The local contribution  to forces
     atom    1 type  2   force =     0.00014590   -0.00001203    0.00000000
     atom    2 type  1   force =    -0.00000378    0.00000545  -38.06547730
     atom    3 type  1   force =    -0.00000378    0.00000545   38.06547730
     The core correction contribution to forces
     atom    1 type  2   force =    -0.00000316    0.00000026   -0.00000000
     atom    2 type  1   force =     0.00000050   -0.00000073    0.00544759
     atom    3 type  1   force =     0.00000050   -0.00000073   -0.00544759
     The Hubbard contrib.    to forces
     atom    1 type  2   force =     0.00000000    0.00000000    0.00000000
     atom    2 type  1   force =     0.00000000    0.00000000    0.00000000
     atom    3 type  1   force =     0.00000000    0.00000000    0.00000000
     The SCF correction term to forces
     atom    1 type  2   force =     0.00000000   -0.00000000   -0.00000000
     atom    2 type  1   force =    -0.00000000    0.00000000   -0.00008310
     atom    3 type  1   force =    -0.00000000    0.00000000    0.00008310

     Total force =     0.002768     Total SCF correction =     0.000118


     Computing stress (Cartesian axis) and pressure



     -----------------------------------------------
     Non-local corr. energy    =       0.30296248 Ry
     -----------------------------------------------

          total   stress  (Ry/bohr**3)                   (kbar)     P=        0.60
   0.00000227  -0.00000000   0.00000000            0.33       -0.00        0.00
  -0.00000000   0.00000227   0.00000000           -0.00        0.33        0.00
   0.00000000   0.00000000   0.00000772            0.00        0.00        1.14

     kinetic stress (kbar)   3940.19      0.00     -0.00
                                0.00   3940.19     -0.00
                               -0.00     -0.00   3964.29

     local   stress (kbar)-155015.45     -0.00      0.00
                               -0.00-155015.45      0.00
                                0.00      0.00 151346.59

     nonloc. stress (kbar)   3119.11      0.00      0.00
                                0.00   3119.11      0.00
                                0.00      0.00   3127.14

     hartree stress (kbar)  75926.35     -0.00     -0.00
                               -0.00  75926.35     -0.00
                               -0.00     -0.00 -74290.61

     exc-cor stress (kbar)    -71.07      0.00     -0.00
                                0.00    -71.07     -0.00
                               -0.00     -0.00    -71.86

     corecor stress (kbar)   -876.55     -0.00     -0.00
                               -0.00   -876.55      0.00
                               -0.00      0.00   -877.62

     ewald   stress (kbar)  72969.20      0.00      0.00
                                0.00  72969.20      0.00
                                0.00      0.00 -83210.80

     hubbard stress (kbar)      0.00      0.00      0.00
                                0.00      0.00      0.00
                                0.00      0.00      0.00

     DFT-D   stress (kbar)      0.00      0.00      0.00
                                0.00      0.00      0.00
                                0.00      0.00      0.00

     XDM     stress (kbar)      0.00      0.00      0.00
                                0.00      0.00      0.00
                                0.00      0.00      0.00

     dft-nl  stress (kbar)      8.55     -0.00      0.00
                               -0.00      8.55     -0.00
                                0.00     -0.00     14.01

     TS-vdW  stress (kbar)      0.00      0.00      0.00
                                0.00      0.00      0.00
                                0.00      0.00      0.00

     MDB     stress (kbar)      0.00      0.00      0.00
                                0.00      0.00      0.00
                                0.00      0.00      0.00

     3D-RISM stress (kbar)      0.00      0.00      0.00
                                0.00      0.00      0.00
                                0.00      0.00      0.00


     BFGS Geometry Optimization
     Energy error            =      0.0E+00 Ry
     Gradient error          =      2.0E-03 Ry/Bohr

     number of scf cycles    =   1
     number of bfgs steps    =   0

     energy             new  =    -184.8698627953 Ry

     new trust radius        =       0.0019571902 bohr
     new conv_thr            =       0.0000001000 Ry


ATOMIC_POSITIONS (crystal)
Mo            0.3333330000        0.6666667000        0.0000000000
S             0.6666667000        0.3333330000        0.0618322743
S             0.6666667000        0.3333330000       -0.0618322743



     Writing config-only to output data dir ./tmp/MoS2_1L_pbe_nsoc.save/
     NEW-OLD atomic charge density approx. for the potential


     -----------------------------------------------
     Non-local corr. energy    =       0.30299978 Ry
     -----------------------------------------------


     total cpu time spent up to now is      202.2 secs

     Self-consistent Calculation

     iteration #  1     ecut=   130.00 Ry     beta= 0.70
     Davidson diagonalization with overlap

---- Real-time Memory Report at c_bands before calling an iterative solver
             0 MiB given to the printing process from OS
             0 MiB allocation reported by mallinfo(arena+hblkhd)
             0 MiB available memory on the node where the printing process lives
------------------
     ethr =  1.00E-06,  avg # of iterations =  2.0

     Threshold (ethr) on eigenvalues was too large:
     Diagonalizing with lowered threshold

     Davidson diagonalization with overlap

---- Real-time Memory Report at c_bands before calling an iterative solver
             0 MiB given to the printing process from OS
             0 MiB allocation reported by mallinfo(arena+hblkhd)
             0 MiB available memory on the node where the printing process lives
------------------
     ethr =  7.19E-09,  avg # of iterations =  4.6


     -----------------------------------------------
     Non-local corr. energy    =       0.30299338 Ry
     -----------------------------------------------


     total cpu time spent up to now is      222.0 secs

     total energy              =    -184.86986892 Ry
     estimated scf accuracy    <       0.00000014 Ry

     iteration #  2     ecut=   130.00 Ry     beta= 0.70
     Davidson diagonalization with overlap

---- Real-time Memory Report at c_bands before calling an iterative solver
             0 MiB given to the printing process from OS
             0 MiB allocation reported by mallinfo(arena+hblkhd)
             0 MiB available memory on the node where the printing process lives
------------------
     ethr =  5.46E-10,  avg # of iterations =  5.1


     -----------------------------------------------
     Non-local corr. energy    =       0.30299462 Ry
     -----------------------------------------------


     total cpu time spent up to now is      229.9 secs

     total energy              =    -184.86986892 Ry
     estimated scf accuracy    <       0.00000011 Ry

     iteration #  3     ecut=   130.00 Ry     beta= 0.70
     Davidson diagonalization with overlap

---- Real-time Memory Report at c_bands before calling an iterative solver
             0 MiB given to the printing process from OS
             0 MiB allocation reported by mallinfo(arena+hblkhd)
             0 MiB available memory on the node where the printing process lives
------------------
     ethr =  4.42E-10,  avg # of iterations =  5.2


     -----------------------------------------------
     Non-local corr. energy    =       0.30299541 Ry
     -----------------------------------------------


     total cpu time spent up to now is      238.1 secs

     total energy              =    -184.86986895 Ry
     estimated scf accuracy    <       0.00000013 Ry

     iteration #  4     ecut=   130.00 Ry     beta= 0.70
     Davidson diagonalization with overlap

---- Real-time Memory Report at c_bands before calling an iterative solver
             0 MiB given to the printing process from OS
             0 MiB allocation reported by mallinfo(arena+hblkhd)
             0 MiB available memory on the node where the printing process lives
------------------
     ethr =  4.42E-10,  avg # of iterations =  2.7


     -----------------------------------------------
     Non-local corr. energy    =       0.30299518 Ry
     -----------------------------------------------


     total cpu time spent up to now is      247.0 secs

     End of self-consistent calculation

          k = 0.0000 0.0000 0.0000 ( 37133 PWs)   bands (ev):

   -62.9587 -37.1241 -36.8963 -36.8963 -16.2356 -14.9427  -7.7559  -4.7252
    -4.7252  -3.9742  -3.6090  -3.6090  -2.2203

     occupation numbers 
     1.0000   1.0000   1.0000   1.0000   1.0000   1.0000   1.0000   1.0000
     1.0000   1.0000   1.0000   1.0000   1.0000

          k = 0.0000 0.0962 0.0000 ( 37143 PWs)   bands (ev):

   -62.9560 -37.1189 -36.9230 -36.9024 -16.1318 -14.8997  -7.6361  -4.9546
    -4.6159  -4.4306  -3.7740  -3.3090  -2.2624

     occupation numbers 
     1.0000   1.0000   1.0000   1.0000   1.0000   1.0000   1.0000   1.0000
     1.0000   1.0000   1.0000   1.0000   1.0000

          k = 0.0000 0.1925 0.0000 ( 37199 PWs)   bands (ev):

   -62.9488 -37.1046 -36.9954 -36.9189 -15.8363 -14.7776  -7.3346  -5.4803
    -5.0698  -4.3110  -4.1627  -3.2229  -2.4732

     occupation numbers 
     1.0000   1.0000   1.0000   1.0000   1.0000   1.0000   1.0000   1.0000
     1.0000   1.0000   1.0000   1.0000   1.0000

          k = 0.0000 0.2887 0.0000 ( 37219 PWs)   bands (ev):

   -62.9389 -37.0930 -37.0850 -36.9415 -15.3987 -14.5983  -7.1193  -5.9238
    -5.7225  -4.5983  -3.8837  -3.4714  -2.8891

     occupation numbers 
     1.0000   1.0000   1.0000   1.0000   1.0000   1.0000   1.0000   1.0000
     1.0000   1.0000   1.0000   1.0000   1.0000

          k = 0.0000 0.3849 0.0000 ( 37289 PWs)   bands (ev):

   -62.9290 -37.1892 -37.0653 -36.9639 -14.9073 -14.4013  -7.3692  -6.3268
    -6.0095  -4.9648  -3.7764  -3.4569  -3.1293

     occupation numbers 
     1.0000   1.0000   1.0000   1.0000   1.0000   1.0000   1.0000   1.0000
     1.0000   1.0000   1.0000   1.0000   1.0000

          k = 0.0000 0.4811 0.0000 ( 37260 PWs)   bands (ev):

   -62.9217 -37.2587 -37.0509 -36.9802 -14.4979 -14.2428  -7.7491  -6.7697
    -6.1116  -5.2027  -3.9710  -3.1624  -2.9440

     occupation numbers 
     1.0000   1.0000   1.0000   1.0000   1.0000   1.0000   1.0000   1.0000
     1.0000   1.0000   1.0000   1.0000   1.0000

          k = 0.0000-0.5774 0.0000 ( 37328 PWs)   bands (ev):

   -62.9190 -37.2839 -37.0456 -36.9862 -14.3336 -14.1813  -7.9114  -6.9338
    -6.1908  -5.2847  -4.0335  -3.0628  -2.7699

     occupation numbers 
     1.0000   1.0000   1.0000   1.0000   1.0000   1.0000   1.0000   1.0000
     1.0000   1.0000   1.0000   1.0000   1.0000

          k = 0.0833 0.1443 0.0000 ( 37167 PWs)   bands (ev):

   -62.9511 -37.1091 -36.9712 -36.9151 -15.9320 -14.8170  -7.4216  -5.3253
    -4.8559  -4.4168  -4.1578  -3.1168  -2.3891

     occupation numbers 
     1.0000   1.0000   1.0000   1.0000   1.0000   1.0000   1.0000   1.0000
     1.0000   1.0000   1.0000   1.0000   1.0000

          k = 0.0833 0.2406 0.0000 ( 37223 PWs)   bands (ev):

   -62.9425 -37.0922 -37.0527 -36.9381 -15.5645 -14.6653  -7.1306  -5.7959
    -5.3935  -4.7099  -4.0996  -3.1434  -2.7152

     occupation numbers 
     1.0000   1.0000   1.0000   1.0000   1.0000   1.0000   1.0000   1.0000
     1.0000   1.0000   1.0000   1.0000   1.0000

          k = 0.0833 0.3368 0.0000 ( 37241 PWs)   bands (ev):

   -62.9326 -37.1454 -37.0726 -36.9647 -15.0963 -14.4740  -7.1577  -6.0368
    -5.9652  -5.0788  -3.8543  -3.4396  -3.0014

     occupation numbers 
     1.0000   1.0000   1.0000   1.0000   1.0000   1.0000   1.0000   1.0000
     1.0000   1.0000   1.0000   1.0000   1.0000

          k = 0.0833 0.4330 0.0000 ( 37305 PWs)   bands (ev):

   -62.9240 -37.2246 -37.0555 -36.9877 -14.6376 -14.2908  -7.5064  -6.6242
    -5.9977  -5.2451  -3.7764  -3.7359  -2.8824

     occupation numbers 
     1.0000   1.0000   1.0000   1.0000   1.0000   1.0000   1.0000   1.0000
     1.0000   1.0000   1.0000   1.0000   1.0000

          k = 0.0833 0.5292 0.0000 ( 37286 PWs)   bands (ev):

   -62.9190 -37.2698 -37.0456 -37.0009 -14.3408 -14.1757  -7.7715  -6.9677
    -6.1293  -5.2974  -3.9861  -3.6000  -2.6369

     occupation numbers 
     1.0000   1.0000   1.0000   1.0000   1.0000   1.0000   1.0000   1.0000
     1.0000   1.0000   1.0000   1.0000   1.0000

          k = 0.1667 0.2887 0.0000 ( 37259 PWs)   bands (ev):

   -62.9339 -37.1230 -37.0752 -36.9715 -15.1638 -14.4991  -7.0506  -5.9313
    -5.8075  -5.3269  -4.0740  -3.1749  -2.9411

     occupation numbers 
     1.0000   1.0000   1.0000   1.0000   1.0000   1.0000   1.0000   1.0000
     1.0000   1.0000   1.0000   1.0000   1.0000

          k = 0.1667 0.3849 0.0000 ( 37283 PWs)   bands (ev):

   -62.9253 -37.1889 -37.0582 -37.0084 -14.7188 -14.3145  -7.2430  -6.4993
    -5.8291  -5.4349  -4.3529  -3.4793  -2.8889

     occupation numbers 
     1.0000   1.0000   1.0000   1.0000   1.0000   1.0000   1.0000   1.0000
     1.0000   1.0000   1.0000   1.0000   1.0000

          k = 0.1667 0.4811 0.0000 ( 37261 PWs)   bands (ev):

   -62.9190 -37.2355 -37.0457 -37.0366 -14.3549 -14.1645  -7.4435  -7.0296
    -5.9406  -5.3460  -4.4690  -3.8550  -2.6393

     occupation numbers 
     1.0000   1.0000   1.0000   1.0000   1.0000   1.0000   1.0000   1.0000
     1.0000   1.0000   1.0000   1.0000   1.0000

          k = 0.1667 0.5774 0.0000 ( 37279 PWs)   bands (ev):

   -62.9167 -37.2523 -37.0471 -37.0411 -14.2113 -14.1058  -7.5169  -7.2225
    -6.0667  -5.2696  -4.4605  -4.0368  -2.4610

     occupation numbers 
     1.0000   1.0000   1.0000   1.0000   1.0000   1.0000   1.0000   1.0000
     1.0000   1.0000   1.0000   1.0000   1.0000

          k = 0.2500 0.4330 0.0000 ( 37263 PWs)   bands (ev):

   -62.9190 -37.2126 -37.0602 -37.0457 -14.3619 -14.1589  -7.2450  -7.0581
    -5.7076  -5.3786  -5.0312  -3.7732  -2.6674

     occupation numbers 
     1.0000   1.0000   1.0000   1.0000   1.0000   1.0000   1.0000   1.0000
     1.0000   1.0000   1.0000   1.0000   1.0000

          k = 0.2500 0.5292 0.0000 ( 37265 PWs)   bands (ev):

   -62.9154 -37.2173 -37.0990 -37.0385 -14.1407 -14.0597  -7.4044  -7.1199
    -5.9339  -5.3178  -5.1747  -4.1133  -2.3588

     occupation numbers 
     1.0000   1.0000   1.0000   1.0000   1.0000   1.0000   1.0000   1.0000
     1.0000   1.0000   1.0000   1.0000   1.0000

          k = 0.3333 0.5774 0.0000 ( 37287 PWs)   bands (ev):

   -62.9140 -37.1879 -37.1447 -37.0358 -14.0609 -14.0181  -7.5519  -6.7281
    -6.1939  -5.6508  -5.0102  -4.3067  -2.1708

     occupation numbers 
     1.0000   1.0000   1.0000   1.0000   1.0000   1.0000   1.0000   1.0000
     1.0000   1.0000   1.0000   1.0000   1.0000

     highest occupied level (ev):    -2.1708

!    total energy              =    -184.86986895 Ry
     estimated scf accuracy    <       0.00000001 Ry

     The total energy is the sum of the following terms:
     one-electron contribution =   -1570.73410832 Ry
     hartree contribution      =     784.63888143 Ry
     xc contribution           =     -33.30947448 Ry
     ewald contribution        =     634.53483241 Ry

     convergence has been achieved in   4 iterations


     -----------------------------------------------
     Non-local corr. energy    =       0.30299518 Ry
     -----------------------------------------------


     Forces acting on atoms (cartesian axes, Ry/au):

     atom    1 type  2   force =     0.00000000    0.00000000    0.00000000
     atom    2 type  1   force =     0.00000000    0.00000000    0.00117057
     atom    3 type  1   force =    -0.00000000    0.00000000   -0.00117057
     The non-local contrib.  to forces
     atom    1 type  2   force =     0.00000000    0.00000000    0.00000000
     atom    2 type  1   force =     0.00000000   -0.00000000   -0.24612686
     atom    3 type  1   force =     0.00000000   -0.00000000    0.24612686
     The ionic contribution  to forces
     atom    1 type  2   force =     0.00000915   -0.00000528   -0.00000000
     atom    2 type  1   force =    -0.00000458    0.00000264   38.30774428
     atom    3 type  1   force =    -0.00000458    0.00000264  -38.30774428
     The local contribution  to forces
     atom    1 type  2   force =     0.00014591   -0.00001203    0.00000000
     atom    2 type  1   force =    -0.00000378    0.00000546  -38.06612189
     atom    3 type  1   force =    -0.00000378    0.00000546   38.06612189
     The core correction contribution to forces
     atom    1 type  2   force =    -0.00000316    0.00000026    0.00000000
     atom    2 type  1   force =     0.00000050   -0.00000073    0.00547515
     atom    3 type  1   force =     0.00000050   -0.00000073   -0.00547515
     The Hubbard contrib.    to forces
     atom    1 type  2   force =     0.00000000    0.00000000    0.00000000
     atom    2 type  1   force =     0.00000000    0.00000000    0.00000000
     atom    3 type  1   force =     0.00000000    0.00000000    0.00000000
     The SCF correction term to forces
     atom    1 type  2   force =    -0.00000000   -0.00000000    0.00000000
     atom    2 type  1   force =     0.00000000    0.00000000    0.00019988
     atom    3 type  1   force =     0.00000000    0.00000000   -0.00019988

     Total force =     0.001655     Total SCF correction =     0.000283
     SCF correction compared to forces is large: reduce conv_thr to get better values


     Computing stress (Cartesian axis) and pressure



     -----------------------------------------------
     Non-local corr. energy    =       0.30299518 Ry
     -----------------------------------------------

          total   stress  (Ry/bohr**3)                   (kbar)     P=        0.37
   0.00000130   0.00000000  -0.00000000            0.19        0.00       -0.00
   0.00000000   0.00000130  -0.00000000            0.00        0.19       -0.00
  -0.00000000  -0.00000000   0.00000504           -0.00       -0.00        0.74

     kinetic stress (kbar)   3940.11     -0.00     -0.00
                               -0.00   3940.11      0.00
                               -0.00      0.00   3963.68

     local   stress (kbar)-154984.76     -0.00     -0.00
                               -0.00-154984.76     -0.00
                               -0.00     -0.00 151314.32

     nonloc. stress (kbar)   3119.03      0.00      0.00
                                0.00   3119.03      0.00
                                0.00      0.00   3127.06

     hartree stress (kbar)  75911.95     -0.00      0.00
                               -0.00  75911.95     -0.00
                                0.00     -0.00 -74275.93

     exc-cor stress (kbar)    -71.03      0.00      0.00
                                0.00    -71.03     -0.00
                                0.00     -0.00    -71.81

     corecor stress (kbar)   -876.55     -0.00      0.00
                               -0.00   -876.55      0.00
                                0.00      0.00   -877.61

     ewald   stress (kbar)  72952.88      0.00      0.00
                                0.00  72952.88     -0.00
                                0.00     -0.00 -83192.98

     hubbard stress (kbar)      0.00      0.00      0.00
                                0.00      0.00      0.00
                                0.00      0.00      0.00

     DFT-D   stress (kbar)      0.00      0.00      0.00
                                0.00      0.00      0.00
                                0.00      0.00      0.00

     XDM     stress (kbar)      0.00      0.00      0.00
                                0.00      0.00      0.00
                                0.00      0.00      0.00

     dft-nl  stress (kbar)      8.55     -0.00      0.00
                               -0.00      8.55      0.00
                                0.00      0.00     14.01

     TS-vdW  stress (kbar)      0.00      0.00      0.00
                                0.00      0.00      0.00
                                0.00      0.00      0.00

     MDB     stress (kbar)      0.00      0.00      0.00
                                0.00      0.00      0.00
                                0.00      0.00      0.00

     3D-RISM stress (kbar)      0.00      0.00      0.00
                                0.00      0.00      0.00
                                0.00      0.00      0.00

     Energy error            =      6.2E-06 Ry
     Gradient error          =      1.2E-03 Ry/Bohr

     number of scf cycles    =   2
     number of bfgs steps    =   1

     energy             old  =    -184.8698627953 Ry
     energy             new  =    -184.8698689492 Ry

     CASE: energy            _new < energy            _old

     new trust radius        =       0.0021529092 bohr
     new conv_thr            =       0.0000000100 Ry


ATOMIC_POSITIONS (crystal)
Mo            0.3333330000        0.6666667000        0.0000000000
S             0.6666667000        0.3333330000        0.0618772075
S             0.6666667000        0.3333330000       -0.0618772075



     Writing config-only to output data dir ./tmp/MoS2_1L_pbe_nsoc.save/
     NEW-OLD atomic charge density approx. for the potential


     -----------------------------------------------
     Non-local corr. energy    =       0.30303618 Ry
     -----------------------------------------------


     total cpu time spent up to now is      261.9 secs

     Self-consistent Calculation

     iteration #  1     ecut=   130.00 Ry     beta= 0.70
     Davidson diagonalization with overlap

---- Real-time Memory Report at c_bands before calling an iterative solver
             0 MiB given to the printing process from OS
             0 MiB allocation reported by mallinfo(arena+hblkhd)
             0 MiB available memory on the node where the printing process lives
------------------
     ethr =  1.00E-06,  avg # of iterations =  2.0

     Threshold (ethr) on eigenvalues was too large:
     Diagonalizing with lowered threshold

     Davidson diagonalization with overlap

---- Real-time Memory Report at c_bands before calling an iterative solver
             0 MiB given to the printing process from OS
             0 MiB allocation reported by mallinfo(arena+hblkhd)
             0 MiB available memory on the node where the printing process lives
------------------
     ethr =  4.30E-09,  avg # of iterations =  5.9


     -----------------------------------------------
     Non-local corr. energy    =       0.30303152 Ry
     -----------------------------------------------


     total cpu time spent up to now is      282.1 secs

     total energy              =    -184.86987140 Ry
     estimated scf accuracy    <       0.00000152 Ry

     iteration #  2     ecut=   130.00 Ry     beta= 0.70
     Davidson diagonalization with overlap

---- Real-time Memory Report at c_bands before calling an iterative solver
             0 MiB given to the printing process from OS
             0 MiB allocation reported by mallinfo(arena+hblkhd)
             0 MiB available memory on the node where the printing process lives
------------------
     ethr =  5.85E-09,  avg # of iterations =  6.2


     -----------------------------------------------
     Non-local corr. energy    =       0.30303060 Ry
     -----------------------------------------------


     total cpu time spent up to now is      297.1 secs

     total energy              =    -184.86987035 Ry
     estimated scf accuracy    <       0.00001558 Ry

     iteration #  3     ecut=   130.00 Ry     beta= 0.70
     Davidson diagonalization with overlap

---- Real-time Memory Report at c_bands before calling an iterative solver
             0 MiB given to the printing process from OS
             0 MiB allocation reported by mallinfo(arena+hblkhd)
             0 MiB available memory on the node where the printing process lives
------------------
     ethr =  5.85E-09,  avg # of iterations =  5.7


     -----------------------------------------------
     Non-local corr. energy    =       0.30303232 Ry
     -----------------------------------------------


     total cpu time spent up to now is      313.2 secs

     End of self-consistent calculation

          k = 0.0000 0.0000 0.0000 ( 37133 PWs)   bands (ev):

   -62.9579 -37.1229 -36.8949 -36.8949 -16.2310 -14.9420  -7.7516  -4.7174
    -4.7174  -3.9762  -3.6029  -3.6028  -2.2232

     occupation numbers 
     1.0000   1.0000   1.0000   1.0000   1.0000   1.0000   1.0000   1.0000
     1.0000   1.0000   1.0000   1.0000   1.0000

          k = 0.0000 0.0962 0.0000 ( 37143 PWs)   bands (ev):

   -62.9552 -37.1177 -36.9216 -36.9009 -16.1271 -14.8989  -7.6317  -4.9470
    -4.6082  -4.4288  -3.7679  -3.3070  -2.2649

     occupation numbers 
     1.0000   1.0000   1.0000   1.0000   1.0000   1.0000   1.0000   1.0000
     1.0000   1.0000   1.0000   1.0000   1.0000

          k = 0.0000 0.1925 0.0000 ( 37199 PWs)   bands (ev):

   -62.9480 -37.1035 -36.9939 -36.9175 -15.8317 -14.7765  -7.3299  -5.4737
    -5.0668  -4.3036  -4.1565  -3.2229  -2.4745

     occupation numbers 
     1.0000   1.0000   1.0000   1.0000   1.0000   1.0000   1.0000   1.0000
     1.0000   1.0000   1.0000   1.0000   1.0000

          k = 0.0000 0.2887 0.0000 ( 37219 PWs)   bands (ev):

   -62.9381 -37.0914 -37.0839 -36.9400 -15.3943 -14.5966  -7.1134  -5.9193
    -5.7193  -4.5921  -3.8768  -3.4726  -2.8890

     occupation numbers 
     1.0000   1.0000   1.0000   1.0000   1.0000   1.0000   1.0000   1.0000
     1.0000   1.0000   1.0000   1.0000   1.0000

          k = 0.0000 0.3849 0.0000 ( 37289 PWs)   bands (ev):

   -62.9281 -37.1875 -37.0643 -36.9624 -14.9029 -14.3989  -7.3633  -6.3240
    -6.0063  -4.9585  -3.7780  -3.4509  -3.1281

     occupation numbers 
     1.0000   1.0000   1.0000   1.0000   1.0000   1.0000   1.0000   1.0000
     1.0000   1.0000   1.0000   1.0000   1.0000

          k = 0.0000 0.4811 0.0000 ( 37260 PWs)   bands (ev):

   -62.9208 -37.2569 -37.0498 -36.9787 -14.4934 -14.2400  -7.7445  -6.7675
    -6.1080  -5.1964  -3.9727  -3.1575  -2.9427

     occupation numbers 
     1.0000   1.0000   1.0000   1.0000   1.0000   1.0000   1.0000   1.0000
     1.0000   1.0000   1.0000   1.0000   1.0000

          k = 0.0000-0.5774 0.0000 ( 37328 PWs)   bands (ev):

   -62.9182 -37.2821 -37.0446 -36.9846 -14.3289 -14.1782  -7.9075  -6.9319
    -6.1869  -5.2784  -4.0352  -3.0584  -2.7689

     occupation numbers 
     1.0000   1.0000   1.0000   1.0000   1.0000   1.0000   1.0000   1.0000
     1.0000   1.0000   1.0000   1.0000   1.0000

          k = 0.0833 0.1443 0.0000 ( 37167 PWs)   bands (ev):

   -62.9503 -37.1080 -36.9697 -36.9136 -15.9274 -14.8160  -7.4170  -5.3183
    -4.8533  -4.4092  -4.1519  -3.1160  -2.3909

     occupation numbers 
     1.0000   1.0000   1.0000   1.0000   1.0000   1.0000   1.0000   1.0000
     1.0000   1.0000   1.0000   1.0000   1.0000

          k = 0.0833 0.2406 0.0000 ( 37223 PWs)   bands (ev):

   -62.9417 -37.0911 -37.0511 -36.9366 -15.5600 -14.6638  -7.1252  -5.7904
    -5.3902  -4.7046  -4.0927  -3.1436  -2.7154

     occupation numbers 
     1.0000   1.0000   1.0000   1.0000   1.0000   1.0000   1.0000   1.0000
     1.0000   1.0000   1.0000   1.0000   1.0000

          k = 0.0833 0.3368 0.0000 ( 37241 PWs)   bands (ev):

   -62.9318 -37.1437 -37.0715 -36.9632 -15.0919 -14.4719  -7.1515  -6.0333
    -5.9618  -5.0740  -3.8490  -3.4405  -2.9995

     occupation numbers 
     1.0000   1.0000   1.0000   1.0000   1.0000   1.0000   1.0000   1.0000
     1.0000   1.0000   1.0000   1.0000   1.0000

          k = 0.0833 0.4330 0.0000 ( 37305 PWs)   bands (ev):

   -62.9232 -37.2228 -37.0544 -36.9862 -14.6331 -14.2881  -7.5012  -6.6211
    -5.9945  -5.2402  -3.7777  -3.7321  -2.8794

     occupation numbers 
     1.0000   1.0000   1.0000   1.0000   1.0000   1.0000   1.0000   1.0000
     1.0000   1.0000   1.0000   1.0000   1.0000

          k = 0.0833 0.5292 0.0000 ( 37286 PWs)   bands (ev):

   -62.9182 -37.2681 -37.0446 -36.9994 -14.3361 -14.1727  -7.7674  -6.9649
    -6.1254  -5.2923  -3.9876  -3.5968  -2.6343

     occupation numbers 
     1.0000   1.0000   1.0000   1.0000   1.0000   1.0000   1.0000   1.0000
     1.0000   1.0000   1.0000   1.0000   1.0000

          k = 0.1667 0.2887 0.0000 ( 37259 PWs)   bands (ev):

   -62.9331 -37.1213 -37.0741 -36.9700 -15.1593 -14.4971  -7.0443  -5.9276
    -5.8031  -5.3233  -4.0690  -3.1755  -2.9392

     occupation numbers 
     1.0000   1.0000   1.0000   1.0000   1.0000   1.0000   1.0000   1.0000
     1.0000   1.0000   1.0000   1.0000   1.0000

          k = 0.1667 0.3849 0.0000 ( 37283 PWs)   bands (ev):

   -62.9245 -37.1872 -37.0571 -37.0069 -14.7144 -14.3120  -7.2372  -6.4946
    -5.8261  -5.4322  -4.3492  -3.4802  -2.8857

     occupation numbers 
     1.0000   1.0000   1.0000   1.0000   1.0000   1.0000   1.0000   1.0000
     1.0000   1.0000   1.0000   1.0000   1.0000

          k = 0.1667 0.4811 0.0000 ( 37261 PWs)   bands (ev):

   -62.9182 -37.2338 -37.0446 -37.0350 -14.3504 -14.1615  -7.4391  -7.0252
    -5.9370  -5.3433  -4.4660  -3.8562  -2.6361

     occupation numbers 
     1.0000   1.0000   1.0000   1.0000   1.0000   1.0000   1.0000   1.0000
     1.0000   1.0000   1.0000   1.0000   1.0000

          k = 0.1667 0.5774 0.0000 ( 37279 PWs)   bands (ev):

   -62.9159 -37.2506 -37.0455 -37.0400 -14.2067 -14.1026  -7.5131  -7.2182
    -6.0626  -5.2668  -4.4577  -4.0382  -2.4580

     occupation numbers 
     1.0000   1.0000   1.0000   1.0000   1.0000   1.0000   1.0000   1.0000
     1.0000   1.0000   1.0000   1.0000   1.0000

          k = 0.2500 0.4330 0.0000 ( 37263 PWs)   bands (ev):

   -62.9182 -37.2109 -37.0586 -37.0446 -14.3574 -14.1560  -7.2402  -7.0529
    -5.7047  -5.3770  -5.0278  -3.7743  -2.6641

     occupation numbers 
     1.0000   1.0000   1.0000   1.0000   1.0000   1.0000   1.0000   1.0000
     1.0000   1.0000   1.0000   1.0000   1.0000

          k = 0.2500 0.5292 0.0000 ( 37265 PWs)   bands (ev):

   -62.9145 -37.2156 -37.0974 -37.0374 -14.1360 -14.0565  -7.3991  -7.1162
    -5.9301  -5.3148  -5.1734  -4.1145  -2.3559

     occupation numbers 
     1.0000   1.0000   1.0000   1.0000   1.0000   1.0000   1.0000   1.0000
     1.0000   1.0000   1.0000   1.0000   1.0000

          k = 0.3333 0.5774 0.0000 ( 37287 PWs)   bands (ev):

   -62.9132 -37.1861 -37.1431 -37.0348 -14.0563 -14.0149  -7.5464  -6.7250
    -6.1901  -5.6473  -5.0095  -4.3079  -2.1683

     occupation numbers 
     1.0000   1.0000   1.0000   1.0000   1.0000   1.0000   1.0000   1.0000
     1.0000   1.0000   1.0000   1.0000   1.0000

     highest occupied level (ev):    -2.1683

!    total energy              =    -184.86987231 Ry
     estimated scf accuracy    <          8.8E-09 Ry

     The total energy is the sum of the following terms:
     one-electron contribution =   -1570.40797325 Ry
     hartree contribution      =     784.47593547 Ry
     xc contribution           =     -33.30772085 Ry
     ewald contribution        =     634.36988632 Ry

     convergence has been achieved in   3 iterations


     -----------------------------------------------
     Non-local corr. energy    =       0.30303232 Ry
     -----------------------------------------------


     Forces acting on atoms (cartesian axes, Ry/au):

     atom    1 type  2   force =     0.00000000    0.00000000    0.00000000
     atom    2 type  1   force =    -0.00000000   -0.00000000    0.00032807
     atom    3 type  1   force =    -0.00000000   -0.00000000   -0.00032807
     The non-local contrib.  to forces
     atom    1 type  2   force =     0.00000000   -0.00000000    0.00000000
     atom    2 type  1   force =     0.00000000   -0.00000000   -0.24663783
     atom    3 type  1   force =     0.00000000   -0.00000000    0.24663783
     The ionic contribution  to forces
     atom    1 type  2   force =     0.00000913   -0.00000527   -0.00000000
     atom    2 type  1   force =    -0.00000457    0.00000264   38.30769830
     atom    3 type  1   force =    -0.00000457    0.00000264  -38.30769830
     The local contribution  to forces
     atom    1 type  2   force =     0.00014592   -0.00001204    0.00000000
     atom    2 type  1   force =    -0.00000378    0.00000546  -38.06619479
     atom    3 type  1   force =    -0.00000378    0.00000546   38.06619479
     The core correction contribution to forces
     atom    1 type  2   force =    -0.00000316    0.00000026    0.00000000
     atom    2 type  1   force =     0.00000050   -0.00000073    0.00550979
     atom    3 type  1   force =     0.00000050   -0.00000073   -0.00550979
     The Hubbard contrib.    to forces
     atom    1 type  2   force =     0.00000000    0.00000000    0.00000000
     atom    2 type  1   force =     0.00000000    0.00000000    0.00000000
     atom    3 type  1   force =     0.00000000    0.00000000    0.00000000
     The SCF correction term to forces
     atom    1 type  2   force =     0.00000001   -0.00000000    0.00000000
     atom    2 type  1   force =     0.00000000   -0.00000000   -0.00004740
     atom    3 type  1   force =     0.00000000   -0.00000000    0.00004740

     Total force =     0.000464     Total SCF correction =     0.000067
     SCF correction compared to forces is large: reduce conv_thr to get better values


     Computing stress (Cartesian axis) and pressure



     -----------------------------------------------
     Non-local corr. energy    =       0.30303232 Ry
     -----------------------------------------------

          total   stress  (Ry/bohr**3)                   (kbar)     P=        0.11
   0.00000029  -0.00000000   0.00000000            0.04       -0.00        0.00
  -0.00000000   0.00000029   0.00000000           -0.00        0.04        0.00
   0.00000000   0.00000000   0.00000163            0.00        0.00        0.24

     kinetic stress (kbar)   3939.99     -0.00     -0.00
                               -0.00   3939.99     -0.00
                               -0.00     -0.00   3962.97

     local   stress (kbar)-154950.42     -0.00      0.00
                               -0.00-154950.42      0.00
                                0.00      0.00 151278.28

     nonloc. stress (kbar)   3118.95      0.00      0.00
                                0.00   3118.95      0.00
                                0.00      0.00   3126.99

     hartree stress (kbar)  75895.56     -0.00     -0.00
                               -0.00  75895.56     -0.00
                               -0.00     -0.00 -74259.26

     exc-cor stress (kbar)    -70.98      0.00     -0.00
                                0.00    -70.98      0.00
                               -0.00      0.00    -71.76

     corecor stress (kbar)   -876.54     -0.00      0.00
                               -0.00   -876.54      0.00
                                0.00      0.00   -877.60

     ewald   stress (kbar)  72934.93      0.00     -0.00
                                0.00  72934.93      0.00
                               -0.00      0.00 -83173.38

     hubbard stress (kbar)      0.00      0.00      0.00
                                0.00      0.00      0.00
                                0.00      0.00      0.00

     DFT-D   stress (kbar)      0.00      0.00      0.00
                                0.00      0.00      0.00
                                0.00      0.00      0.00

     XDM     stress (kbar)      0.00      0.00      0.00
                                0.00      0.00      0.00
                                0.00      0.00      0.00

     dft-nl  stress (kbar)      8.55     -0.00      0.00
                               -0.00      8.55     -0.00
                                0.00     -0.00     14.01

     TS-vdW  stress (kbar)      0.00      0.00      0.00
                                0.00      0.00      0.00
                                0.00      0.00      0.00

     MDB     stress (kbar)      0.00      0.00      0.00
                                0.00      0.00      0.00
                                0.00      0.00      0.00

     3D-RISM stress (kbar)      0.00      0.00      0.00
                                0.00      0.00      0.00
                                0.00      0.00      0.00

     Energy error            =      3.4E-06 Ry
     Gradient error          =      3.3E-04 Ry/Bohr

     number of scf cycles    =   3
     number of bfgs steps    =   2

     energy             old  =    -184.8698689492 Ry
     energy             new  =    -184.8698723111 Ry

     CASE: energy            _new < energy            _old

     new trust radius        =       0.0008383428 bohr
     new conv_thr            =       0.0000000100 Ry


ATOMIC_POSITIONS (crystal)
Mo            0.3333330000        0.6666667000        0.0000000000
S             0.6666667000        0.3333330000        0.0618947044
S             0.6666667000        0.3333330000       -0.0618947044



     Writing config-only to output data dir ./tmp/MoS2_1L_pbe_nsoc.save/
     NEW-OLD atomic charge density approx. for the potential


     -----------------------------------------------
     Non-local corr. energy    =       0.30304828 Ry
     -----------------------------------------------


     total cpu time spent up to now is      330.8 secs

     Self-consistent Calculation

     iteration #  1     ecut=   130.00 Ry     beta= 0.70
     Davidson diagonalization with overlap

---- Real-time Memory Report at c_bands before calling an iterative solver
             0 MiB given to the printing process from OS
             0 MiB allocation reported by mallinfo(arena+hblkhd)
             0 MiB available memory on the node where the printing process lives
------------------
     ethr =  1.00E-06,  avg # of iterations =  1.1

     Threshold (ethr) on eigenvalues was too large:
     Diagonalizing with lowered threshold

     Davidson diagonalization with overlap

---- Real-time Memory Report at c_bands before calling an iterative solver
             0 MiB given to the printing process from OS
             0 MiB allocation reported by mallinfo(arena+hblkhd)
             0 MiB available memory on the node where the printing process lives
------------------
     ethr =  3.42E-09,  avg # of iterations =  5.1


     -----------------------------------------------
     Non-local corr. energy    =       0.30304614 Ry
     -----------------------------------------------


     total cpu time spent up to now is      354.5 secs

     total energy              =    -184.86987257 Ry
     estimated scf accuracy    <       0.00000020 Ry

     iteration #  2     ecut=   130.00 Ry     beta= 0.70
     Davidson diagonalization with overlap

---- Real-time Memory Report at c_bands before calling an iterative solver
             0 MiB given to the printing process from OS
             0 MiB allocation reported by mallinfo(arena+hblkhd)
             0 MiB available memory on the node where the printing process lives
------------------
     ethr =  7.68E-10,  avg # of iterations =  5.8


     -----------------------------------------------
     Non-local corr. energy    =       0.30304589 Ry
     -----------------------------------------------


     total cpu time spent up to now is      372.2 secs

     total energy              =    -184.86987245 Ry
     estimated scf accuracy    <       0.00000141 Ry

     iteration #  3     ecut=   130.00 Ry     beta= 0.70
     Davidson diagonalization with overlap

---- Real-time Memory Report at c_bands before calling an iterative solver
             0 MiB given to the printing process from OS
             0 MiB allocation reported by mallinfo(arena+hblkhd)
             0 MiB available memory on the node where the printing process lives
------------------
     ethr =  7.68E-10,  avg # of iterations =  5.7


     -----------------------------------------------
     Non-local corr. energy    =       0.30304639 Ry
     -----------------------------------------------


     total cpu time spent up to now is      387.2 secs

     total energy              =    -184.86987267 Ry
     estimated scf accuracy    <       0.00000002 Ry

     iteration #  4     ecut=   130.00 Ry     beta= 0.70
     Davidson diagonalization with overlap

---- Real-time Memory Report at c_bands before calling an iterative solver
             0 MiB given to the printing process from OS
             0 MiB allocation reported by mallinfo(arena+hblkhd)
             0 MiB available memory on the node where the printing process lives
------------------
     ethr =  8.62E-11,  avg # of iterations =  3.6


     -----------------------------------------------
     Non-local corr. energy    =       0.30304668 Ry
     -----------------------------------------------


     total cpu time spent up to now is      398.6 secs

     total energy              =    -184.86987268 Ry
     estimated scf accuracy    <       0.00000001 Ry

     iteration #  5     ecut=   130.00 Ry     beta= 0.70
     Davidson diagonalization with overlap

---- Real-time Memory Report at c_bands before calling an iterative solver
             0 MiB given to the printing process from OS
             0 MiB allocation reported by mallinfo(arena+hblkhd)
             0 MiB available memory on the node where the printing process lives
------------------
     ethr =  4.34E-11,  avg # of iterations =  3.1


     -----------------------------------------------
     Non-local corr. energy    =       0.30304665 Ry
     -----------------------------------------------


     total cpu time spent up to now is      409.4 secs

     End of self-consistent calculation

          k = 0.0000 0.0000 0.0000 ( 37133 PWs)   bands (ev):

   -62.9583 -37.1232 -36.8951 -36.8951 -16.2295 -14.9419  -7.7504  -4.7151
    -4.7151  -3.9771  -3.6010  -3.6010  -2.2247

     occupation numbers 
     1.0000   1.0000   1.0000   1.0000   1.0000   1.0000   1.0000   1.0000
     1.0000   1.0000   1.0000   1.0000   1.0000

          k = 0.0000 0.0962 0.0000 ( 37143 PWs)   bands (ev):

   -62.9556 -37.1180 -36.9218 -36.9012 -16.1257 -14.8988  -7.6304  -4.9447
    -4.6058  -4.4285  -3.7660  -3.3065  -2.2663

     occupation numbers 
     1.0000   1.0000   1.0000   1.0000   1.0000   1.0000   1.0000   1.0000
     1.0000   1.0000   1.0000   1.0000   1.0000

          k = 0.0000 0.1925 0.0000 ( 37199 PWs)   bands (ev):

   -62.9484 -37.1037 -36.9941 -36.9177 -15.8303 -14.7763  -7.3284  -5.4717
    -5.0661  -4.3013  -4.1546  -3.2232  -2.4756

     occupation numbers 
     1.0000   1.0000   1.0000   1.0000   1.0000   1.0000   1.0000   1.0000
     1.0000   1.0000   1.0000   1.0000   1.0000

          k = 0.0000 0.2887 0.0000 ( 37219 PWs)   bands (ev):

   -62.9385 -37.0916 -37.0842 -36.9402 -15.3929 -14.5962  -7.1116  -5.9180
    -5.7185  -4.5902  -3.8747  -3.4732  -2.8895

     occupation numbers 
     1.0000   1.0000   1.0000   1.0000   1.0000   1.0000   1.0000   1.0000
     1.0000   1.0000   1.0000   1.0000   1.0000

          k = 0.0000 0.3849 0.0000 ( 37289 PWs)   bands (ev):

   -62.9286 -37.1876 -37.0645 -36.9626 -14.9015 -14.3983  -7.3616  -6.3233
    -6.0054  -4.9566  -3.7789  -3.4491  -3.1282

     occupation numbers 
     1.0000   1.0000   1.0000   1.0000   1.0000   1.0000   1.0000   1.0000
     1.0000   1.0000   1.0000   1.0000   1.0000

          k = 0.0000 0.4811 0.0000 ( 37260 PWs)   bands (ev):

   -62.9213 -37.2570 -37.0501 -36.9789 -14.4919 -14.2392  -7.7431  -6.7670
    -6.1070  -5.1945  -3.9735  -3.1560  -2.9427

     occupation numbers 
     1.0000   1.0000   1.0000   1.0000   1.0000   1.0000   1.0000   1.0000
     1.0000   1.0000   1.0000   1.0000   1.0000

          k = 0.0000-0.5774 0.0000 ( 37328 PWs)   bands (ev):

   -62.9186 -37.2823 -37.0449 -36.9849 -14.3275 -14.1773  -7.9063  -6.9315
    -6.1858  -5.2764  -4.0360  -3.0570  -2.7690

     occupation numbers 
     1.0000   1.0000   1.0000   1.0000   1.0000   1.0000   1.0000   1.0000
     1.0000   1.0000   1.0000   1.0000   1.0000

          k = 0.0833 0.1443 0.0000 ( 37167 PWs)   bands (ev):

   -62.9507 -37.1082 -36.9699 -36.9138 -15.9260 -14.8158  -7.4156  -5.3162
    -4.8526  -4.4069  -4.1501  -3.1160  -2.3920

     occupation numbers 
     1.0000   1.0000   1.0000   1.0000   1.0000   1.0000   1.0000   1.0000
     1.0000   1.0000   1.0000   1.0000   1.0000

          k = 0.0833 0.2406 0.0000 ( 37223 PWs)   bands (ev):

   -62.9421 -37.0913 -37.0513 -36.9368 -15.5586 -14.6635  -7.1236  -5.7887
    -5.3893  -4.7030  -4.0906  -3.1439  -2.7161

     occupation numbers 
     1.0000   1.0000   1.0000   1.0000   1.0000   1.0000   1.0000   1.0000
     1.0000   1.0000   1.0000   1.0000   1.0000

          k = 0.0833 0.3368 0.0000 ( 37241 PWs)   bands (ev):

   -62.9322 -37.1439 -37.0717 -36.9634 -15.0905 -14.4714  -7.1496  -6.0324
    -5.9608  -5.0725  -3.8474  -3.4410  -2.9994

     occupation numbers 
     1.0000   1.0000   1.0000   1.0000   1.0000   1.0000   1.0000   1.0000
     1.0000   1.0000   1.0000   1.0000   1.0000

          k = 0.0833 0.4330 0.0000 ( 37305 PWs)   bands (ev):

   -62.9236 -37.2230 -37.0547 -36.9864 -14.6317 -14.2874  -7.4996  -6.6203
    -5.9936  -5.2388  -3.7783  -3.7311  -2.8788

     occupation numbers 
     1.0000   1.0000   1.0000   1.0000   1.0000   1.0000   1.0000   1.0000
     1.0000   1.0000   1.0000   1.0000   1.0000

          k = 0.0833 0.5292 0.0000 ( 37286 PWs)   bands (ev):

   -62.9186 -37.2682 -37.0449 -36.9996 -14.3347 -14.1718  -7.7662  -6.9641
    -6.1243  -5.2908  -3.9884  -3.5959  -2.6338

     occupation numbers 
     1.0000   1.0000   1.0000   1.0000   1.0000   1.0000   1.0000   1.0000
     1.0000   1.0000   1.0000   1.0000   1.0000

          k = 0.1667 0.2887 0.0000 ( 37259 PWs)   bands (ev):

   -62.9335 -37.1215 -37.0744 -36.9702 -15.1579 -14.4966  -7.0423  -5.9265
    -5.8018  -5.3223  -4.0675  -3.1759  -2.9391

     occupation numbers 
     1.0000   1.0000   1.0000   1.0000   1.0000   1.0000   1.0000   1.0000
     1.0000   1.0000   1.0000   1.0000   1.0000

          k = 0.1667 0.3849 0.0000 ( 37283 PWs)   bands (ev):

   -62.9249 -37.1874 -37.0574 -37.0071 -14.7130 -14.3113  -7.2354  -6.4932
    -5.8253  -5.4315  -4.3482  -3.4808  -2.8851

     occupation numbers 
     1.0000   1.0000   1.0000   1.0000   1.0000   1.0000   1.0000   1.0000
     1.0000   1.0000   1.0000   1.0000   1.0000

          k = 0.1667 0.4811 0.0000 ( 37261 PWs)   bands (ev):

   -62.9186 -37.2339 -37.0449 -37.0352 -14.3489 -14.1607  -7.4377  -7.0239
    -5.9360  -5.3426  -4.4651  -3.8569  -2.6355

     occupation numbers 
     1.0000   1.0000   1.0000   1.0000   1.0000   1.0000   1.0000   1.0000
     1.0000   1.0000   1.0000   1.0000   1.0000

          k = 0.1667 0.5774 0.0000 ( 37279 PWs)   bands (ev):

   -62.9163 -37.2507 -37.0457 -37.0403 -14.2052 -14.1017  -7.5121  -7.2169
    -6.0615  -5.2661  -4.4570  -4.0390  -2.4575

     occupation numbers 
     1.0000   1.0000   1.0000   1.0000   1.0000   1.0000   1.0000   1.0000
     1.0000   1.0000   1.0000   1.0000   1.0000

          k = 0.2500 0.4330 0.0000 ( 37263 PWs)   bands (ev):

   -62.9186 -37.2110 -37.0588 -37.0449 -14.3560 -14.1551  -7.2388  -7.0514
    -5.7038  -5.3767  -5.0268  -3.7749  -2.6635

     occupation numbers 
     1.0000   1.0000   1.0000   1.0000   1.0000   1.0000   1.0000   1.0000
     1.0000   1.0000   1.0000   1.0000   1.0000

          k = 0.2500 0.5292 0.0000 ( 37265 PWs)   bands (ev):

   -62.9150 -37.2158 -37.0976 -37.0377 -14.1346 -14.0555  -7.3975  -7.1151
    -5.9290  -5.3139  -5.1732  -4.1152  -2.3554

     occupation numbers 
     1.0000   1.0000   1.0000   1.0000   1.0000   1.0000   1.0000   1.0000
     1.0000   1.0000   1.0000   1.0000   1.0000

          k = 0.3333 0.5774 0.0000 ( 37287 PWs)   bands (ev):

   -62.9136 -37.1862 -37.1433 -37.0351 -14.0548 -14.0139  -7.5447  -6.7242
    -6.1890  -5.6463  -5.0094  -4.3086  -2.1680

     occupation numbers 
     1.0000   1.0000   1.0000   1.0000   1.0000   1.0000   1.0000   1.0000
     1.0000   1.0000   1.0000   1.0000   1.0000

     highest occupied level (ev):    -2.1680

!    total energy              =    -184.86987268 Ry
     estimated scf accuracy    <          8.8E-10 Ry

     The total energy is the sum of the following terms:
     one-electron contribution =   -1570.28026505 Ry
     hartree contribution      =     784.41170459 Ry
     xc contribution           =     -33.30696859 Ry
     ewald contribution        =     634.30565637 Ry

     convergence has been achieved in   5 iterations


     -----------------------------------------------
     Non-local corr. energy    =       0.30304665 Ry
     -----------------------------------------------


     Forces acting on atoms (cartesian axes, Ry/au):

     atom    1 type  2   force =     0.00000000    0.00000000    0.00000000
     atom    2 type  1   force =     0.00000000    0.00000000    0.00004698
     atom    3 type  1   force =    -0.00000000    0.00000000   -0.00004698
     The non-local contrib.  to forces
     atom    1 type  2   force =     0.00000000   -0.00000000    0.00000000
     atom    2 type  1   force =     0.00000000    0.00000000   -0.24683168
     atom    3 type  1   force =     0.00000000   -0.00000000    0.24683168
     The ionic contribution  to forces
     atom    1 type  2   force =     0.00000912   -0.00000527   -0.00000000
     atom    2 type  1   force =    -0.00000456    0.00000263   38.30767726
     atom    3 type  1   force =    -0.00000456    0.00000263  -38.30767726
     The local contribution  to forces
     atom    1 type  2   force =     0.00014592   -0.00001204    0.00000000
     atom    2 type  1   force =    -0.00000378    0.00000546  -38.06628118
     atom    3 type  1   force =    -0.00000378    0.00000546   38.06628118
     The core correction contribution to forces
     atom    1 type  2   force =    -0.00000316    0.00000026    0.00000000
     atom    2 type  1   force =     0.00000050   -0.00000073    0.00552280
     atom    3 type  1   force =     0.00000050   -0.00000073   -0.00552280
     The Hubbard contrib.    to forces
     atom    1 type  2   force =     0.00000000    0.00000000    0.00000000
     atom    2 type  1   force =     0.00000000    0.00000000    0.00000000
     atom    3 type  1   force =     0.00000000    0.00000000    0.00000000
     The SCF correction term to forces
     atom    1 type  2   force =     0.00000000   -0.00000000    0.00000000
     atom    2 type  1   force =     0.00000000   -0.00000000   -0.00004022
     atom    3 type  1   force =     0.00000000   -0.00000000    0.00004022

     Total force =     0.000066     Total SCF correction =     0.000057
     SCF correction compared to forces is large: reduce conv_thr to get better values


     Computing stress (Cartesian axis) and pressure



     -----------------------------------------------
     Non-local corr. energy    =       0.30304665 Ry
     -----------------------------------------------

          total   stress  (Ry/bohr**3)                   (kbar)     P=       -0.03
  -0.00000036  -0.00000000   0.00000000           -0.05       -0.00        0.00
  -0.00000000  -0.00000036   0.00000000           -0.00       -0.05        0.00
   0.00000000   0.00000000   0.00000014            0.00        0.00        0.02

     kinetic stress (kbar)   3939.90     -0.00      0.00
                               -0.00   3939.90      0.00
                                0.00      0.00   3962.66

     local   stress (kbar)-154937.01     -0.00      0.00
                               -0.00-154937.01     -0.00
                                0.00     -0.00 151264.27

     nonloc. stress (kbar)   3118.91     -0.00      0.00
                               -0.00   3118.91      0.00
                                0.00      0.00   3126.96

     hartree stress (kbar)  75889.15      0.00     -0.00
                                0.00  75889.15     -0.00
                               -0.00     -0.00 -74252.78

     exc-cor stress (kbar)    -70.96      0.00     -0.00
                                0.00    -70.96      0.00
                               -0.00      0.00    -71.74

     corecor stress (kbar)   -876.54     -0.00     -0.00
                               -0.00   -876.54      0.00
                               -0.00      0.00   -877.60

     ewald   stress (kbar)  72927.94      0.00     -0.00
                                0.00  72927.94     -0.00
                               -0.00     -0.00 -83165.75

     hubbard stress (kbar)      0.00      0.00      0.00
                                0.00      0.00      0.00
                                0.00      0.00      0.00

     DFT-D   stress (kbar)      0.00      0.00      0.00
                                0.00      0.00      0.00
                                0.00      0.00      0.00

     XDM     stress (kbar)      0.00      0.00      0.00
                                0.00      0.00      0.00
                                0.00      0.00      0.00

     dft-nl  stress (kbar)      8.55     -0.00      0.00
                               -0.00      8.55     -0.00
                                0.00     -0.00     14.01

     TS-vdW  stress (kbar)      0.00      0.00      0.00
                                0.00      0.00      0.00
                                0.00      0.00      0.00

     MDB     stress (kbar)      0.00      0.00      0.00
                                0.00      0.00      0.00
                                0.00      0.00      0.00

     3D-RISM stress (kbar)      0.00      0.00      0.00
                                0.00      0.00      0.00
                                0.00      0.00      0.00

     Energy error            =      3.6E-07 Ry
     Gradient error          =      4.7E-05 Ry/Bohr

     bfgs converged in   4 scf cycles and   3 bfgs steps
     (criteria: energy <  1.0E-05 Ry, force <  1.0E-04 Ry/Bohr)

     End of BFGS Geometry Optimization

     Final energy             =    -184.8698726757 Ry

     File ./tmp/MoS2_1L_pbe_nsoc.bfgs deleted, as requested
Begin final coordinates

ATOMIC_POSITIONS (crystal)
Mo            0.3333330000        0.6666667000        0.0000000000
S             0.6666667000        0.3333330000        0.0618947044
S             0.6666667000        0.3333330000       -0.0618947044
End final coordinates



     Writing all to output data dir ./tmp/MoS2_1L_pbe_nsoc.save/

     init_run     :     23.53s CPU     32.15s WALL (       1 calls)
     electrons    :    269.60s CPU    326.76s WALL (       4 calls)
     update_pot   :      5.09s CPU      6.28s WALL (       3 calls)
     forces       :     10.24s CPU     12.27s WALL (       4 calls)
     stress       :     34.55s CPU     46.71s WALL (       4 calls)

     Called by init_run:
     wfcinit      :      4.68s CPU      6.49s WALL (       1 calls)
     wfcinit:atom :      0.05s CPU      0.09s WALL (      19 calls)
     wfcinit:wfcr :      4.45s CPU      6.15s WALL (      19 calls)
     potinit      :     17.62s CPU     24.00s WALL (       1 calls)
     hinit0       :      1.09s CPU      1.51s WALL (       1 calls)

     Called by electrons:
     c_bands      :    221.33s CPU    263.48s WALL (      26 calls)
     sum_band     :     30.90s CPU     38.94s WALL (      26 calls)
     v_of_rho     :     35.92s CPU     49.10s WALL (      27 calls)
     v_h          :      0.28s CPU      0.34s WALL (      27 calls)
     v_xc         :     42.32s CPU     57.89s WALL (      35 calls)
     mix_rho      :      0.74s CPU      1.34s WALL (      26 calls)
     vdW_kernel   :     16.60s CPU     22.40s WALL (       1 calls)

     Called by c_bands:
     init_us_2    :      4.21s CPU      5.04s WALL (    1159 calls)
     init_us_2:cp :      4.20s CPU      5.03s WALL (    1159 calls)
     cegterg      :    210.67s CPU    250.56s WALL (     494 calls)

     Called by sum_band:
     sum_band:wei :      0.00s CPU      0.00s WALL (      26 calls)
     sum_band:loo :     30.31s CPU     38.21s WALL (      26 calls)
     sum_band:buf :      0.41s CPU      0.51s WALL (     494 calls)
     sum_band:ini :      1.80s CPU      2.14s WALL (     494 calls)

     Called by *egterg:
     cdiaghg      :      0.87s CPU      1.13s WALL (    2547 calls)
     cegterg:over :      9.08s CPU     11.53s WALL (    2167 calls)
     cegterg:upda :      4.52s CPU      3.85s WALL (    2167 calls)
     cegterg:last :      6.74s CPU      5.35s WALL (    1409 calls)
     h_psi        :    187.40s CPU    226.28s WALL (    2680 calls)
     g_psi        :      0.57s CPU      0.87s WALL (    2167 calls)

     Called by h_psi:
     h_psi:calbec :     14.52s CPU     14.85s WALL (    2680 calls)
     vloc_psi     :    160.83s CPU    202.95s WALL (    2680 calls)
     add_vuspsi   :     10.98s CPU      7.21s WALL (    2680 calls)

     General routines
     calbec       :     18.01s CPU     18.47s WALL (    3060 calls)
     fft          :     15.81s CPU     19.96s WALL (    2298 calls)
     ffts         :      0.17s CPU      0.22s WALL (      26 calls)
     fftw         :    152.07s CPU    194.60s WALL (   48756 calls)

     Parallel routines

     PWSCF        :   5m43.61s CPU   7m 5.24s WALL


   This run was terminated on:   8:14:40  18Apr2024            

=------------------------------------------------------------------------------=
   JOB DONE.
=------------------------------------------------------------------------------=
