
     Program PWSCF v.7.2 starts on 18Apr2024 at  6:15:45 

     This program is part of the open-source Quantum ESPRESSO suite
     for quantum simulation of materials; please cite
         "P. Giannozzi et al., J. Phys.:Condens. Matter 21 395502 (2009);
         "P. Giannozzi et al., J. Phys.:Condens. Matter 29 465901 (2017);
         "P. Giannozzi et al., J. Chem. Phys. 152 154105 (2020);
          URL http://www.quantum-espresso.org", 
     in publications or presentations arising from this work. More details at
     http://www.quantum-espresso.org/quote

     Parallel version (MPI & OpenMP), running on       8 processor cores
     Number of MPI processes:                 8
     Threads/MPI process:                     1

     MPI processes distributed on     1 nodes
     0 MiB available memory on the printing compute node when the environment starts

     Waiting for input...
     Reading input from standard input

     Current dimensions of program PWSCF are:
     Max number of different atomic species (ntypx) = 10
     Max number of k-points (npk) =  40000
     Max angular momentum in pseudopotentials (lmaxx) =  4

     IMPORTANT: XC functional enforced from input :
     Exchange-correlation= VDW-DF2-B86R
                           (   1   4  26   0   2   0   0)
     Any further DFT definition will be discarded
     Please, verify this is what you really want


     R & G space division:  proc/nbgrp/npool/nimage =       8
     Subspace diagonalization in iterative solution of the eigenvalue problem:
     a serial algorithm will be used


     Parallelization info
     --------------------
     sticks:   dense  smooth     PW     G-vecs:    dense   smooth      PW
     Min         160     160     45                37438    37438    5609
     Max         161     161     47                37475    37475    5628
     Sum        1285    1285    367               299689   299689   44915

     Using Slab Decomposition



     bravais-lattice index     =            4
     lattice parameter (alat)  =       5.9998  a.u.
     unit-cell volume          =    1496.3423 (a.u.)^3
     number of atoms/cell      =            3
     number of atomic types    =            2
     number of electrons       =        26.00
     number of Kohn-Sham states=           13
     kinetic-energy cutoff     =     130.0000  Ry
     charge density cutoff     =     520.0000  Ry
     scf convergence threshold =      1.0E-07
     mixing beta               =       0.7000
     number of iterations used =            8  plain     mixing
     energy convergence thresh.=      1.0E-05
     force convergence thresh. =      1.0E-04
     press convergence thresh. =      5.0E-01
     Exchange-correlation= VDW-DF2-B86R
                           (   1   4  26   0   2   0   0)
     nstep                     =           50


     celldm(1)=   5.999800  celldm(2)=   0.000000  celldm(3)=   8.000000
     celldm(4)=   0.000000  celldm(5)=   0.000000  celldm(6)=   0.000000

     crystal axes: (cart. coord. in units of alat)
               a(1) = (   1.000000   0.000000   0.000000 )  
               a(2) = (  -0.500000   0.866025   0.000000 )  
               a(3) = (   0.000000   0.000000   8.000000 )  

     reciprocal axes: (cart. coord. in units 2 pi/alat)
               b(1) = (  1.000000  0.577350 -0.000000 )  
               b(2) = (  0.000000  1.154701  0.000000 )  
               b(3) = (  0.000000 -0.000000  0.125000 )  


     PseudoPot. # 1 for S  read from file:
     ../../../Pseudo/PBE/S.upf
     MD5 check sum: b72b6a9ca752e39de1a6cc592280dae2
     Pseudo is Norm-conserving + core correction, Zval =  6.0
     Generated using ONCVPSP code by D. R. Hamann
     Using radial grid of 1148 points,  6 beta functions with: 
                l(1) =   0
                l(2) =   0
                l(3) =   1
                l(4) =   1
                l(5) =   2
                l(6) =   2

     PseudoPot. # 2 for Mo read from file:
     ../../../Pseudo/PBE/Mo.upf
     MD5 check sum: 7ca7a9feba7bf08d88d14bc7fbf60c1e
     Pseudo is Norm-conserving + core correction, Zval = 14.0
     Generated using ONCVPSP code by D. R. Hamann
     Using radial grid of 1640 points,  6 beta functions with: 
                l(1) =   0
                l(2) =   0
                l(3) =   1
                l(4) =   1
                l(5) =   2
                l(6) =   2

     atomic species   valence    mass     pseudopotential
        S              6.00    32.06500     S ( 1.00)
        Mo            14.00   183.84000     Mo( 1.00)

     12 Sym. Ops. (no inversion) found


                                    s                        frac. trans.

      isym =  1     identity                                     

 cryst.   s( 1) = (     1          0          0      )
                  (     0          1          0      )
                  (     0          0          1      )

 cart.    s( 1) = (  1.0000000  0.0000000  0.0000000 )
                  (  0.0000000  1.0000000  0.0000000 )
                  (  0.0000000  0.0000000  1.0000000 )


      isym =  2     180 deg rotation - cart. axis [0,1,0]        

 cryst.   s( 2) = (    -1          0          0      )
                  (     1          1          0      )
                  (     0          0         -1      )

 cart.    s( 2) = ( -1.0000000  0.0000000  0.0000000 )
                  (  0.0000000  1.0000000  0.0000000 )
                  (  0.0000000  0.0000000 -1.0000000 )


      isym =  3     120 deg rotation - cryst. axis [0,0,1]       

 cryst.   s( 3) = (     0          1          0      )
                  (    -1         -1          0      )
                  (     0          0          1      )

 cart.    s( 3) = ( -0.5000000 -0.8660254  0.0000000 )
                  (  0.8660254 -0.5000000  0.0000000 )
                  (  0.0000000  0.0000000  1.0000000 )


      isym =  4     120 deg rotation - cryst. axis [0,0,-1]      

 cryst.   s( 4) = (    -1         -1          0      )
                  (     1          0          0      )
                  (     0          0          1      )

 cart.    s( 4) = ( -0.5000000  0.8660254  0.0000000 )
                  ( -0.8660254 -0.5000000  0.0000000 )
                  (  0.0000000  0.0000000  1.0000000 )


      isym =  5     180 deg rotation - cryst. axis [1,-1,0]      

 cryst.   s( 5) = (     0         -1          0      )
                  (    -1          0          0      )
                  (     0          0         -1      )

 cart.    s( 5) = (  0.5000000 -0.8660254  0.0000000 )
                  ( -0.8660254 -0.5000000  0.0000000 )
                  (  0.0000000  0.0000000 -1.0000000 )


      isym =  6     180 deg rotation - cryst. axis [2,1,0]       

 cryst.   s( 6) = (     1          1          0      )
                  (     0         -1          0      )
                  (     0          0         -1      )

 cart.    s( 6) = (  0.5000000  0.8660254  0.0000000 )
                  (  0.8660254 -0.5000000  0.0000000 )
                  (  0.0000000  0.0000000 -1.0000000 )


      isym =  7     inv. 180 deg rotation - cart. axis [0,0,1]   

 cryst.   s( 7) = (     1          0          0      )
                  (     0          1          0      )
                  (     0          0         -1      )

 cart.    s( 7) = (  1.0000000  0.0000000  0.0000000 )
                  (  0.0000000  1.0000000  0.0000000 )
                  (  0.0000000  0.0000000 -1.0000000 )


      isym =  8     inv. 180 deg rotation - cart. axis [1,0,0]   

 cryst.   s( 8) = (    -1          0          0      )
                  (     1          1          0      )
                  (     0          0          1      )

 cart.    s( 8) = ( -1.0000000  0.0000000  0.0000000 )
                  (  0.0000000  1.0000000  0.0000000 )
                  (  0.0000000  0.0000000  1.0000000 )


      isym =  9     inv.  60 deg rotation - cryst. axis [0,0,1]  

 cryst.   s( 9) = (    -1         -1          0      )
                  (     1          0          0      )
                  (     0          0         -1      )

 cart.    s( 9) = ( -0.5000000  0.8660254  0.0000000 )
                  ( -0.8660254 -0.5000000  0.0000000 )
                  (  0.0000000  0.0000000 -1.0000000 )


      isym = 10     inv.  60 deg rotation - cryst. axis [0,0,-1] 

 cryst.   s(10) = (     0          1          0      )
                  (    -1         -1          0      )
                  (     0          0         -1      )

 cart.    s(10) = ( -0.5000000 -0.8660254  0.0000000 )
                  (  0.8660254 -0.5000000  0.0000000 )
                  (  0.0000000  0.0000000 -1.0000000 )


      isym = 11     inv. 180 deg rotation - cryst. axis [0,1,0]  

 cryst.   s(11) = (     1          1          0      )
                  (     0         -1          0      )
                  (     0          0          1      )

 cart.    s(11) = (  0.5000000  0.8660254  0.0000000 )
                  (  0.8660254 -0.5000000  0.0000000 )
                  (  0.0000000  0.0000000  1.0000000 )


      isym = 12     inv. 180 deg rotation - cryst. axis [1,1,0]  

 cryst.   s(12) = (     0         -1          0      )
                  (    -1          0          0      )
                  (     0          0          1      )

 cart.    s(12) = (  0.5000000 -0.8660254  0.0000000 )
                  ( -0.8660254 -0.5000000  0.0000000 )
                  (  0.0000000  0.0000000  1.0000000 )


     point group D_3h (-62m)
     there are  6 classes
     the character table:

       E     2C3   3C2   s_h   2S3   3s_v 
A'_1   1.00  1.00  1.00  1.00  1.00  1.00
A'_2   1.00  1.00 -1.00  1.00  1.00 -1.00
E'     2.00 -1.00  0.00  2.00 -1.00  0.00
A''1   1.00  1.00  1.00 -1.00 -1.00 -1.00
A''2   1.00  1.00 -1.00 -1.00 -1.00  1.00
E''    2.00 -1.00  0.00 -2.00  1.00  0.00

     the symmetry operations in each class and the name of the first element:

     E        1
          identity                                               
     2C3      3    4
          120 deg rotation - cryst. axis [0,0,1]                 
     3C2      2    6    5
          180 deg rotation - cart. axis [0,1,0]                  
     s_h      7
          inv. 180 deg rotation - cart. axis [0,0,1]             
     2S3      9   10
          inv.  60 deg rotation - cryst. axis [0,0,1]            
     3s_v     8   11   12
          inv. 180 deg rotation - cart. axis [1,0,0]             

   Cartesian axes

     site n.     atom                  positions (alat units)
         1           Mo  tau(   1) = (  -0.0000003   0.5773503   0.0000000  )
         2           S   tau(   2) = (   0.5000002   0.2886748   0.4941760  )
         3           S   tau(   3) = (   0.5000002   0.2886748  -0.4941760  )

   Crystallographic axes

     site n.     atom                  positions (cryst. coord.)
         1           Mo  tau(   1) = (  0.3333330  0.6666667  0.0000000  )
         2           S   tau(   2) = (  0.6666667  0.3333330  0.0617720  )
         3           S   tau(   3) = (  0.6666667  0.3333330 -0.0617720  )

     number of k points=    19
                       cart. coord. in units 2pi/alat
        k(    1) = (   0.0000000   0.0000000   0.0000000), wk =   0.0138889
        k(    2) = (   0.0000000   0.0962250   0.0000000), wk =   0.0833333
        k(    3) = (   0.0000000   0.1924501   0.0000000), wk =   0.0833333
        k(    4) = (   0.0000000   0.2886751   0.0000000), wk =   0.0833333
        k(    5) = (   0.0000000   0.3849002   0.0000000), wk =   0.0833333
        k(    6) = (   0.0000000   0.4811252   0.0000000), wk =   0.0833333
        k(    7) = (   0.0000000  -0.5773503   0.0000000), wk =   0.0416667
        k(    8) = (   0.0833333   0.1443376   0.0000000), wk =   0.0833333
        k(    9) = (   0.0833333   0.2405626   0.0000000), wk =   0.1666667
        k(   10) = (   0.0833333   0.3367877   0.0000000), wk =   0.1666667
        k(   11) = (   0.0833333   0.4330127   0.0000000), wk =   0.1666667
        k(   12) = (   0.0833333   0.5292377   0.0000000), wk =   0.1666667
        k(   13) = (   0.1666667   0.2886751   0.0000000), wk =   0.0833333
        k(   14) = (   0.1666667   0.3849002   0.0000000), wk =   0.1666667
        k(   15) = (   0.1666667   0.4811252   0.0000000), wk =   0.1666667
        k(   16) = (   0.1666667   0.5773503   0.0000000), wk =   0.0833333
        k(   17) = (   0.2500000   0.4330127   0.0000000), wk =   0.0833333
        k(   18) = (   0.2500000   0.5292377   0.0000000), wk =   0.1666667
        k(   19) = (   0.3333333   0.5773503   0.0000000), wk =   0.0277778

                       cryst. coord.
        k(    1) = (   0.0000000   0.0000000   0.0000000), wk =   0.0138889
        k(    2) = (   0.0000000   0.0833333   0.0000000), wk =   0.0833333
        k(    3) = (   0.0000000   0.1666667   0.0000000), wk =   0.0833333
        k(    4) = (   0.0000000   0.2500000   0.0000000), wk =   0.0833333
        k(    5) = (   0.0000000   0.3333333   0.0000000), wk =   0.0833333
        k(    6) = (   0.0000000   0.4166667   0.0000000), wk =   0.0833333
        k(    7) = (   0.0000000  -0.5000000   0.0000000), wk =   0.0416667
        k(    8) = (   0.0833333   0.0833333   0.0000000), wk =   0.0833333
        k(    9) = (   0.0833333   0.1666667   0.0000000), wk =   0.1666667
        k(   10) = (   0.0833333   0.2500000   0.0000000), wk =   0.1666667
        k(   11) = (   0.0833333   0.3333333   0.0000000), wk =   0.1666667
        k(   12) = (   0.0833333   0.4166667   0.0000000), wk =   0.1666667
        k(   13) = (   0.1666667   0.1666667   0.0000000), wk =   0.0833333
        k(   14) = (   0.1666667   0.2500000   0.0000000), wk =   0.1666667
        k(   15) = (   0.1666667   0.3333333   0.0000000), wk =   0.1666667
        k(   16) = (   0.1666667   0.4166667   0.0000000), wk =   0.0833333
        k(   17) = (   0.2500000   0.2500000   0.0000000), wk =   0.0833333
        k(   18) = (   0.2500000   0.3333333   0.0000000), wk =   0.1666667
        k(   19) = (   0.3333333   0.3333333   0.0000000), wk =   0.0277778

     Dense  grid:   299689 G-vectors     FFT dimensions: (  45,  45, 360)

     Dynamical RAM for                 wfc:       0.93 MB

     Dynamical RAM for     wfc (w. buffer):      18.57 MB

     Dynamical RAM for           str. fact:       1.14 MB

     Dynamical RAM for           local pot:       0.00 MB

     Dynamical RAM for          nlocal pot:       3.86 MB

     Dynamical RAM for                qrad:       7.32 MB

     Dynamical RAM for          rho,v,vnew:       3.80 MB

     Dynamical RAM for               rhoin:       1.27 MB

     Dynamical RAM for            rho*nmix:       9.15 MB

     Dynamical RAM for           G-vectors:       2.43 MB

     Dynamical RAM for          h,s,v(r/c):       0.03 MB

     Dynamical RAM for          <psi|beta>:       0.01 MB

     Dynamical RAM for                 psi:       1.86 MB

     Dynamical RAM for                hpsi:       1.86 MB

     Dynamical RAM for      wfcinit/wfcrot:       2.58 MB

     Estimated static dynamical RAM per process >      43.58 MB

     Estimated max dynamical RAM per process >      56.49 MB

     Estimated total dynamical RAM >     451.88 MB

     Initial potential from superposition of free atoms

     starting charge      25.9985, renormalised to      26.0000

     negative rho (up, down):  8.609E-07 0.000E+00


     %%%%%%%%%%%%%%%%%%%%%%%%%%%%%%%%%%%%%%%%%%%%%%%%%%%%%%%%%%%%%%%%%%%%%%%%
     %                                                                      %
     % You are using vdW-DF, which was implemented by the Thonhauser group. %
     % Please cite the following two papers that made this development      %
     % possible and the two reviews that describe the various versions:     %
     %                                                                      %
     %   T. Thonhauser et al., PRL 115, 136402 (2015).                      %
     %   T. Thonhauser et al., PRB 76, 125112 (2007).                       %
     %   K. Berland et al., Rep. Prog. Phys. 78, 066501 (2015).             %
     %   D.C. Langreth et al., J. Phys.: Condens. Matter 21, 084203 (2009). %
     %                                                                      %
     % If you are calculating stress with vdW-DF, please also cite:         %
     %                                                                      %
     %   R. Sabatini et al., J. Phys.: Condens. Matter 24, 424209 (2012).   %
     %                                                                      %
     %%%%%%%%%%%%%%%%%%%%%%%%%%%%%%%%%%%%%%%%%%%%%%%%%%%%%%%%%%%%%%%%%%%%%%%%

     %%%%%%%%%%%%%%%%%%%%%%%%%%%%%%%%%%%%%%%%%%%%%%%%%%%%%%%%%%%%%%%%%%%%%%%%
     %                                                                      %
     %  vdW-DF NEWS:                                                        %
     %                                                                      %
     %  * vdW-DF3 is now available. DOI: 10.1021/acs.jctc.0c00471           %
     %    use with input_dft = 'vdW-DF3-opt1' or 'vdW-DF3-opt2'             %
     %                                                                      %
     %  * Unscreened and range-separated hybrid vdW-DF-cx functionals       %
     %    DOI: 10.1063/1.4986522 and 10.1088/1361-648X/ac2ad2               %
     %    use with input_dft = 'vdW-DF-cx0'    and 'vdW-DF-ahcx'            %
     %  * Unscreened and range-separated hybrid vdW-DF2-b86r functionals    %
     %    DOI: 10.1063/1.4986522 and DOI: 10.1103/PhysRevX.12.041003        %
     %    use with input_dft = 'vdW-DF2-br0' and 'vdW-DF2-ahbr'             %
     %                                                                      %
     %%%%%%%%%%%%%%%%%%%%%%%%%%%%%%%%%%%%%%%%%%%%%%%%%%%%%%%%%%%%%%%%%%%%%%%%


     Carrying out vdW-DF run using the following parameters:
     Nqs    =  20  Npoints =  1024  r_max =  100.000
     q_mesh =  0.00001000  0.04494208  0.09755937  0.15916263
               0.23128650  0.31572767  0.41458969  0.53033537
               0.66584808  0.82450364  1.01025438  1.22772762
               1.48234092  1.78043706  2.12944203  2.53805004
               3.01644009  3.57652955  4.23227104  5.00000000


     -----------------------------------------------
     Non-local corr. energy    =       0.30530695 Ry
     -----------------------------------------------

     Starting wfcs are   18 randomized atomic wfcs

     total cpu time spent up to now is       12.7 secs

     Self-consistent Calculation

     iteration #  1     ecut=   130.00 Ry     beta= 0.70
     Davidson diagonalization with overlap

---- Real-time Memory Report at c_bands before calling an iterative solver
             0 MiB given to the printing process from OS
             0 MiB allocation reported by mallinfo(arena+hblkhd)
             0 MiB available memory on the node where the printing process lives
------------------
     ethr =  1.00E-02,  avg # of iterations =  2.1


     -----------------------------------------------
     Non-local corr. energy    =       0.30614816 Ry
     -----------------------------------------------


     total cpu time spent up to now is       16.5 secs

     total energy              =    -184.57483694 Ry
     estimated scf accuracy    <       0.47376228 Ry

     iteration #  2     ecut=   130.00 Ry     beta= 0.70
     Davidson diagonalization with overlap

---- Real-time Memory Report at c_bands before calling an iterative solver
             0 MiB given to the printing process from OS
             0 MiB allocation reported by mallinfo(arena+hblkhd)
             0 MiB available memory on the node where the printing process lives
------------------
     ethr =  1.82E-03,  avg # of iterations =  7.1


     -----------------------------------------------
     Non-local corr. energy    =       0.30561339 Ry
     -----------------------------------------------


     total cpu time spent up to now is       22.9 secs

     total energy              =    -184.18405735 Ry
     estimated scf accuracy    <       5.34604845 Ry

     iteration #  3     ecut=   130.00 Ry     beta= 0.70
     Davidson diagonalization with overlap

---- Real-time Memory Report at c_bands before calling an iterative solver
             0 MiB given to the printing process from OS
             0 MiB allocation reported by mallinfo(arena+hblkhd)
             0 MiB available memory on the node where the printing process lives
------------------
     ethr =  1.82E-03,  avg # of iterations =  5.4


     -----------------------------------------------
     Non-local corr. energy    =       0.30359960 Ry
     -----------------------------------------------


     total cpu time spent up to now is       27.9 secs

     total energy              =    -184.85878398 Ry
     estimated scf accuracy    <       0.00746641 Ry

     iteration #  4     ecut=   130.00 Ry     beta= 0.70
     Davidson diagonalization with overlap

---- Real-time Memory Report at c_bands before calling an iterative solver
             0 MiB given to the printing process from OS
             0 MiB allocation reported by mallinfo(arena+hblkhd)
             0 MiB available memory on the node where the printing process lives
------------------
     ethr =  2.87E-05,  avg # of iterations =  6.2

     negative rho (up, down):  1.116E-08 0.000E+00


     -----------------------------------------------
     Non-local corr. energy    =       0.30342057 Ry
     -----------------------------------------------


     total cpu time spent up to now is       33.6 secs

     total energy              =    -184.86717134 Ry
     estimated scf accuracy    <       0.02313584 Ry

     iteration #  5     ecut=   130.00 Ry     beta= 0.70
     Davidson diagonalization with overlap

---- Real-time Memory Report at c_bands before calling an iterative solver
             0 MiB given to the printing process from OS
             0 MiB allocation reported by mallinfo(arena+hblkhd)
             0 MiB available memory on the node where the printing process lives
------------------
     ethr =  2.87E-05,  avg # of iterations =  4.2


     -----------------------------------------------
     Non-local corr. energy    =       0.30359242 Ry
     -----------------------------------------------


     total cpu time spent up to now is       37.9 secs

     total energy              =    -184.86944590 Ry
     estimated scf accuracy    <       0.00093047 Ry

     iteration #  6     ecut=   130.00 Ry     beta= 0.70
     Davidson diagonalization with overlap

---- Real-time Memory Report at c_bands before calling an iterative solver
             0 MiB given to the printing process from OS
             0 MiB allocation reported by mallinfo(arena+hblkhd)
             0 MiB available memory on the node where the printing process lives
------------------
     ethr =  3.58E-06,  avg # of iterations =  4.8

     negative rho (up, down):  1.225E-06 0.000E+00


     -----------------------------------------------
     Non-local corr. energy    =       0.30351532 Ry
     -----------------------------------------------


     total cpu time spent up to now is       42.8 secs

     total energy              =    -184.86985304 Ry
     estimated scf accuracy    <       0.00016749 Ry

     iteration #  7     ecut=   130.00 Ry     beta= 0.70
     Davidson diagonalization with overlap

---- Real-time Memory Report at c_bands before calling an iterative solver
             0 MiB given to the printing process from OS
             0 MiB allocation reported by mallinfo(arena+hblkhd)
             0 MiB available memory on the node where the printing process lives
------------------
     ethr =  6.44E-07,  avg # of iterations =  2.8


     -----------------------------------------------
     Non-local corr. energy    =       0.30353746 Ry
     -----------------------------------------------


     total cpu time spent up to now is       46.5 secs

     total energy              =    -184.86982017 Ry
     estimated scf accuracy    <       0.00012931 Ry

     iteration #  8     ecut=   130.00 Ry     beta= 0.70
     Davidson diagonalization with overlap

---- Real-time Memory Report at c_bands before calling an iterative solver
             0 MiB given to the printing process from OS
             0 MiB allocation reported by mallinfo(arena+hblkhd)
             0 MiB available memory on the node where the printing process lives
------------------
     ethr =  4.97E-07,  avg # of iterations =  3.2


     -----------------------------------------------
     Non-local corr. energy    =       0.30354334 Ry
     -----------------------------------------------


     total cpu time spent up to now is       50.5 secs

     total energy              =    -184.86984488 Ry
     estimated scf accuracy    <       0.00000128 Ry

     iteration #  9     ecut=   130.00 Ry     beta= 0.70
     Davidson diagonalization with overlap

---- Real-time Memory Report at c_bands before calling an iterative solver
             0 MiB given to the printing process from OS
             0 MiB allocation reported by mallinfo(arena+hblkhd)
             0 MiB available memory on the node where the printing process lives
------------------
     ethr =  4.93E-09,  avg # of iterations =  7.1


     -----------------------------------------------
     Non-local corr. energy    =       0.30355261 Ry
     -----------------------------------------------


     total cpu time spent up to now is       56.9 secs

     total energy              =    -184.86984497 Ry
     estimated scf accuracy    <       0.00000957 Ry

     iteration # 10     ecut=   130.00 Ry     beta= 0.70
     Davidson diagonalization with overlap

---- Real-time Memory Report at c_bands before calling an iterative solver
             0 MiB given to the printing process from OS
             0 MiB allocation reported by mallinfo(arena+hblkhd)
             0 MiB available memory on the node where the printing process lives
------------------
     ethr =  4.93E-09,  avg # of iterations =  5.8


     -----------------------------------------------
     Non-local corr. energy    =       0.30355022 Ry
     -----------------------------------------------


     total cpu time spent up to now is       62.4 secs

     total energy              =    -184.86984695 Ry
     estimated scf accuracy    <       0.00000148 Ry

     iteration # 11     ecut=   130.00 Ry     beta= 0.70
     Davidson diagonalization with overlap

---- Real-time Memory Report at c_bands before calling an iterative solver
             0 MiB given to the printing process from OS
             0 MiB allocation reported by mallinfo(arena+hblkhd)
             0 MiB available memory on the node where the printing process lives
------------------
     ethr =  4.93E-09,  avg # of iterations =  2.2


     -----------------------------------------------
     Non-local corr. energy    =       0.30354990 Ry
     -----------------------------------------------


     total cpu time spent up to now is       66.0 secs

     total energy              =    -184.86984701 Ry
     estimated scf accuracy    <       0.00000023 Ry

     iteration # 12     ecut=   130.00 Ry     beta= 0.70
     Davidson diagonalization with overlap

---- Real-time Memory Report at c_bands before calling an iterative solver
             0 MiB given to the printing process from OS
             0 MiB allocation reported by mallinfo(arena+hblkhd)
             0 MiB available memory on the node where the printing process lives
------------------
     ethr =  8.67E-10,  avg # of iterations =  4.6


     -----------------------------------------------
     Non-local corr. energy    =       0.30355062 Ry
     -----------------------------------------------


     total cpu time spent up to now is       71.0 secs

     End of self-consistent calculation

          k = 0.0000 0.0000 0.0000 ( 37411 PWs)   bands (ev):

   -62.9868 -37.1477 -36.9260 -36.9260 -16.2334 -14.9486  -7.7551  -4.7402
    -4.7402  -3.9851  -3.6309  -3.6308  -2.2336

     occupation numbers 
     1.0000   1.0000   1.0000   1.0000   1.0000   1.0000   1.0000   1.0000
     1.0000   1.0000   1.0000   1.0000   1.0000

          k = 0.0000 0.0962 0.0000 ( 37307 PWs)   bands (ev):

   -62.9843 -37.1426 -36.9521 -36.9319 -16.1304 -14.9059  -7.6359  -4.9686
    -4.6318  -4.4416  -3.7948  -3.3298  -2.2766

     occupation numbers 
     1.0000   1.0000   1.0000   1.0000   1.0000   1.0000   1.0000   1.0000
     1.0000   1.0000   1.0000   1.0000   1.0000

          k = 0.0000 0.1925 0.0000 ( 37367 PWs)   bands (ev):

   -62.9772 -37.1287 -37.0231 -36.9482 -15.8374 -14.7845  -7.3359  -5.4930
    -5.0778  -4.3296  -4.1809  -3.2435  -2.4890

     occupation numbers 
     1.0000   1.0000   1.0000   1.0000   1.0000   1.0000   1.0000   1.0000
     1.0000   1.0000   1.0000   1.0000   1.0000

          k = 0.0000 0.2887 0.0000 ( 37425 PWs)   bands (ev):

   -62.9675 -37.1188 -37.1095 -36.9703 -15.4036 -14.6061  -7.1200  -5.9374
    -5.7277  -4.6138  -3.9060  -3.4899  -2.9040

     occupation numbers 
     1.0000   1.0000   1.0000   1.0000   1.0000   1.0000   1.0000   1.0000
     1.0000   1.0000   1.0000   1.0000   1.0000

          k = 0.0000 0.3849 0.0000 ( 37495 PWs)   bands (ev):

   -62.9578 -37.2131 -37.0903 -36.9922 -14.9168 -14.4102  -7.3687  -6.3296
    -6.0223  -4.9783  -3.7925  -3.4827  -3.1433

     occupation numbers 
     1.0000   1.0000   1.0000   1.0000   1.0000   1.0000   1.0000   1.0000
     1.0000   1.0000   1.0000   1.0000   1.0000

          k = 0.0000 0.4811 0.0000 ( 37485 PWs)   bands (ev):

   -62.9507 -37.2813 -37.0762 -37.0083 -14.5116 -14.2528  -7.7477  -6.7709
    -6.1197  -5.2149  -3.9854  -3.1903  -2.9608

     occupation numbers 
     1.0000   1.0000   1.0000   1.0000   1.0000   1.0000   1.0000   1.0000
     1.0000   1.0000   1.0000   1.0000   1.0000

          k = 0.0000-0.5774 0.0000 ( 37504 PWs)   bands (ev):

   -62.9481 -37.3061 -37.0710 -37.0141 -14.3490 -14.1916  -7.9094  -6.9344
    -6.1965  -5.2964  -4.0473  -3.0912  -2.7884

     occupation numbers 
     1.0000   1.0000   1.0000   1.0000   1.0000   1.0000   1.0000   1.0000
     1.0000   1.0000   1.0000   1.0000   1.0000

          k = 0.0833 0.1443 0.0000 ( 37349 PWs)   bands (ev):

   -62.9794 -37.1331 -36.9994 -36.9444 -15.9322 -14.8236  -7.4225  -5.3382
    -4.8649  -4.4344  -4.1758  -3.1387  -2.4048

     occupation numbers 
     1.0000   1.0000   1.0000   1.0000   1.0000   1.0000   1.0000   1.0000
     1.0000   1.0000   1.0000   1.0000   1.0000

          k = 0.0833 0.2406 0.0000 ( 37426 PWs)   bands (ev):

   -62.9711 -37.1165 -37.0793 -36.9669 -15.5679 -14.6728  -7.1321  -5.8087
    -5.4001  -4.7239  -4.1201  -3.1653  -2.7313

     occupation numbers 
     1.0000   1.0000   1.0000   1.0000   1.0000   1.0000   1.0000   1.0000
     1.0000   1.0000   1.0000   1.0000   1.0000

          k = 0.0833 0.3368 0.0000 ( 37460 PWs)   bands (ev):

   -62.9614 -37.1702 -37.0973 -36.9931 -15.1040 -14.4826  -7.1579  -6.0412
    -5.9797  -5.0899  -3.8751  -3.4595  -3.0181

     occupation numbers 
     1.0000   1.0000   1.0000   1.0000   1.0000   1.0000   1.0000   1.0000
     1.0000   1.0000   1.0000   1.0000   1.0000

          k = 0.0833 0.4330 0.0000 ( 37497 PWs)   bands (ev):

   -62.9530 -37.2478 -37.0806 -37.0156 -14.6498 -14.3005  -7.5057  -6.6261
    -6.0090  -5.2556  -3.7934  -3.7560  -2.9025

     occupation numbers 
     1.0000   1.0000   1.0000   1.0000   1.0000   1.0000   1.0000   1.0000
     1.0000   1.0000   1.0000   1.0000   1.0000

          k = 0.0833 0.5292 0.0000 ( 37499 PWs)   bands (ev):

   -62.9481 -37.2922 -37.0710 -37.0286 -14.3561 -14.1862  -7.7701  -6.9679
    -6.1361  -5.3082  -4.0009  -3.6222  -2.6585

     occupation numbers 
     1.0000   1.0000   1.0000   1.0000   1.0000   1.0000   1.0000   1.0000
     1.0000   1.0000   1.0000   1.0000   1.0000

          k = 0.1667 0.2887 0.0000 ( 37457 PWs)   bands (ev):

   -62.9627 -37.1482 -37.0999 -36.9997 -15.1708 -14.5075  -7.0513  -5.9462
    -5.8140  -5.3348  -4.0931  -3.1974  -2.9584

     occupation numbers 
     1.0000   1.0000   1.0000   1.0000   1.0000   1.0000   1.0000   1.0000
     1.0000   1.0000   1.0000   1.0000   1.0000

          k = 0.1667 0.3849 0.0000 ( 37477 PWs)   bands (ev):

   -62.9543 -37.2129 -37.0832 -37.0359 -14.7302 -14.3242  -7.2430  -6.5021
    -5.8446  -5.4422  -4.3678  -3.4998  -2.9083

     occupation numbers 
     1.0000   1.0000   1.0000   1.0000   1.0000   1.0000   1.0000   1.0000
     1.0000   1.0000   1.0000   1.0000   1.0000

          k = 0.1667 0.4811 0.0000 ( 37475 PWs)   bands (ev):

   -62.9481 -37.2586 -37.0710 -37.0635 -14.3702 -14.1753  -7.4433  -7.0290
    -5.9511  -5.3549  -4.4854  -3.8722  -2.6599

     occupation numbers 
     1.0000   1.0000   1.0000   1.0000   1.0000   1.0000   1.0000   1.0000
     1.0000   1.0000   1.0000   1.0000   1.0000

          k = 0.1667 0.5774 0.0000 ( 37475 PWs)   bands (ev):

   -62.9459 -37.2751 -37.0738 -37.0665 -14.2282 -14.1170  -7.5165  -7.2205
    -6.0742  -5.2799  -4.4782  -4.0522  -2.4825

     occupation numbers 
     1.0000   1.0000   1.0000   1.0000   1.0000   1.0000   1.0000   1.0000
     1.0000   1.0000   1.0000   1.0000   1.0000

          k = 0.2500 0.4330 0.0000 ( 37475 PWs)   bands (ev):

   -62.9481 -37.2361 -37.0867 -37.0710 -14.3771 -14.1699  -7.2453  -7.0571
    -5.7233  -5.3866  -5.0418  -3.7918  -2.6872

     occupation numbers 
     1.0000   1.0000   1.0000   1.0000   1.0000   1.0000   1.0000   1.0000
     1.0000   1.0000   1.0000   1.0000   1.0000

          k = 0.2500 0.5292 0.0000 ( 37490 PWs)   bands (ev):

   -62.9446 -37.2408 -37.1247 -37.0640 -14.1583 -14.0716  -7.4007  -7.1210
    -5.9426  -5.3315  -5.1849  -4.1292  -2.3800

     occupation numbers 
     1.0000   1.0000   1.0000   1.0000   1.0000   1.0000   1.0000   1.0000
     1.0000   1.0000   1.0000   1.0000   1.0000

          k = 0.3333 0.5774 0.0000 ( 37413 PWs)   bands (ev):

   -62.9433 -37.2118 -37.1696 -37.0614 -14.0796 -14.0305  -7.5470  -6.7312
    -6.1984  -5.6657  -5.0218  -4.3213  -2.1927

     occupation numbers 
     1.0000   1.0000   1.0000   1.0000   1.0000   1.0000   1.0000   1.0000
     1.0000   1.0000   1.0000   1.0000   1.0000

     highest occupied level (ev):    -2.1927

!    total energy              =    -184.86984706 Ry
     estimated scf accuracy    <       0.00000005 Ry

     The total energy is the sum of the following terms:
     one-electron contribution =   -1568.90294895 Ry
     hartree contribution      =     783.69736295 Ry
     xc contribution           =     -33.29891623 Ry
     ewald contribution        =     633.63465518 Ry

     convergence has been achieved in  12 iterations


     -----------------------------------------------
     Non-local corr. energy    =       0.30355062 Ry
     -----------------------------------------------


     Forces acting on atoms (cartesian axes, Ry/au):

     atom    1 type  2   force =     0.00000000    0.00000000    0.00000000
     atom    2 type  1   force =     0.00000000    0.00000000   -0.00108624
     atom    3 type  1   force =    -0.00000000   -0.00000000    0.00108624
     The non-local contrib.  to forces
     atom    1 type  2   force =     0.00000000    0.00000000    0.00000000
     atom    2 type  1   force =     0.00000000    0.00000000   -0.24828196
     atom    3 type  1   force =     0.00000000   -0.00000000    0.24828196
     The ionic contribution  to forces
     atom    1 type  2   force =     0.00000915   -0.00000528    0.00000000
     atom    2 type  1   force =    -0.00000457    0.00000264   38.17254868
     atom    3 type  1   force =    -0.00000457    0.00000264  -38.17254868
     The local contribution  to forces
     atom    1 type  2   force =     0.00014627   -0.00001206    0.00000000
     atom    2 type  1   force =    -0.00000380    0.00000548  -37.93065373
     atom    3 type  1   force =    -0.00000380    0.00000548   37.93065373
     The core correction contribution to forces
     atom    1 type  2   force =    -0.00000316    0.00000026    0.00000000
     atom    2 type  1   force =     0.00000050   -0.00000073    0.00563423
     atom    3 type  1   force =     0.00000050   -0.00000073   -0.00563423
     The Hubbard contrib.    to forces
     atom    1 type  2   force =     0.00000000    0.00000000    0.00000000
     atom    2 type  1   force =     0.00000000    0.00000000    0.00000000
     atom    3 type  1   force =     0.00000000    0.00000000    0.00000000
     The SCF correction term to forces
     atom    1 type  2   force =     0.00000000   -0.00000000    0.00000000
     atom    2 type  1   force =     0.00000000   -0.00000000   -0.00033347
     atom    3 type  1   force =     0.00000000   -0.00000000    0.00033347

     Total force =     0.001536     Total SCF correction =     0.000472
     SCF correction compared to forces is large: reduce conv_thr to get better values


     Computing stress (Cartesian axis) and pressure



     -----------------------------------------------
     Non-local corr. energy    =       0.30355062 Ry
     -----------------------------------------------

          total   stress  (Ry/bohr**3)                   (kbar)     P=       -1.20
  -0.00000991   0.00000000   0.00000000           -1.46        0.00        0.00
   0.00000000  -0.00000991  -0.00000000            0.00       -1.46       -0.00
   0.00000000  -0.00000000  -0.00000468            0.00       -0.00       -0.69

     kinetic stress (kbar)   3917.22      0.00     -0.00
                                0.00   3917.22      0.00
                               -0.00      0.00   3941.25

     local   stress (kbar)-153961.35     -0.00      0.00
                               -0.00-153961.36      0.00
                                0.00      0.00 150289.29

     nonloc. stress (kbar)   3102.08      0.00      0.00
                                0.00   3102.08      0.00
                                0.00      0.00   3109.94

     hartree stress (kbar)  75411.71      0.00     -0.00
                                0.00  75411.71     -0.00
                               -0.00     -0.00 -73778.31

     exc-cor stress (kbar)    -70.37      0.00     -0.00
                                0.00    -70.37     -0.00
                               -0.00     -0.00    -71.14

     corecor stress (kbar)   -871.88     -0.00     -0.00
                               -0.00   -871.88     -0.00
                               -0.00     -0.00   -872.93

     ewald   stress (kbar)  72462.60      0.00     -0.00
                                0.00  72462.61     -0.00
                               -0.00     -0.00 -82632.73

     hubbard stress (kbar)      0.00      0.00      0.00
                                0.00      0.00      0.00
                                0.00      0.00      0.00

     DFT-D   stress (kbar)      0.00      0.00      0.00
                                0.00      0.00      0.00
                                0.00      0.00      0.00

     XDM     stress (kbar)      0.00      0.00      0.00
                                0.00      0.00      0.00
                                0.00      0.00      0.00

     dft-nl  stress (kbar)      8.52     -0.00      0.00
                               -0.00      8.52      0.00
                                0.00      0.00     13.94

     TS-vdW  stress (kbar)      0.00      0.00      0.00
                                0.00      0.00      0.00
                                0.00      0.00      0.00

     MDB     stress (kbar)      0.00      0.00      0.00
                                0.00      0.00      0.00
                                0.00      0.00      0.00

     3D-RISM stress (kbar)      0.00      0.00      0.00
                                0.00      0.00      0.00
                                0.00      0.00      0.00


     BFGS Geometry Optimization
     Energy error            =      0.0E+00 Ry
     Gradient error          =      1.1E-03 Ry/Bohr
     Cell gradient error     =      1.5E+00 kbar

     number of scf cycles    =   1
     number of bfgs steps    =   0

     enthalpy           new  =    -184.8698470595 Ry

     new trust radius        =       0.0019163479 bohr
     new conv_thr            =       0.0000001000 Ry

     new unit-cell volume =   1495.60105 a.u.^3 (   221.62521 Ang^3 )
     density =      1.85793 g/cm^3

CELL_PARAMETERS (alat=  5.99980000)
   0.999752298   0.000000000   0.000000000
  -0.499876149   0.865810888   0.000000000
   0.000000000   0.000000000   8.000000000

ATOMIC_POSITIONS (crystal)
Mo            0.3333330000        0.6666667000        0.0000000000
S             0.6666667000        0.3333330000        0.0617493693
S             0.6666667000        0.3333330000       -0.0617493693



     Writing config-only to output data dir ./tmp/MoS2_1L_pbe_nsoc.save/
     NEW-OLD atomic charge density approx. for the potential

     negative rho (up, down):  1.263E-08 0.000E+00


     -----------------------------------------------
     Non-local corr. energy    =       0.30337710 Ry
     -----------------------------------------------

     extrapolated charge   25.98712, renormalised to   26.00000

     total cpu time spent up to now is       85.9 secs

     Self-consistent Calculation

     iteration #  1     ecut=   130.00 Ry     beta= 0.70
     Davidson diagonalization with overlap

---- Real-time Memory Report at c_bands before calling an iterative solver
             0 MiB given to the printing process from OS
             0 MiB allocation reported by mallinfo(arena+hblkhd)
             0 MiB available memory on the node where the printing process lives
------------------
     ethr =  1.00E-06,  avg # of iterations =  5.5


     -----------------------------------------------
     Non-local corr. energy    =       0.30357510 Ry
     -----------------------------------------------


     total cpu time spent up to now is       91.5 secs

     total energy              =    -184.86838618 Ry
     estimated scf accuracy    <       0.00142694 Ry

     iteration #  2     ecut=   130.00 Ry     beta= 0.70
     Davidson diagonalization with overlap

---- Real-time Memory Report at c_bands before calling an iterative solver
             0 MiB given to the printing process from OS
             0 MiB allocation reported by mallinfo(arena+hblkhd)
             0 MiB available memory on the node where the printing process lives
------------------
     ethr =  5.49E-06,  avg # of iterations =  6.7


     -----------------------------------------------
     Non-local corr. energy    =       0.30358385 Ry
     -----------------------------------------------


     total cpu time spent up to now is       97.8 secs

     total energy              =    -184.86767951 Ry
     estimated scf accuracy    <       0.02877297 Ry

     iteration #  3     ecut=   130.00 Ry     beta= 0.70
     Davidson diagonalization with overlap

---- Real-time Memory Report at c_bands before calling an iterative solver
             0 MiB given to the printing process from OS
             0 MiB allocation reported by mallinfo(arena+hblkhd)
             0 MiB available memory on the node where the printing process lives
------------------
     ethr =  5.49E-06,  avg # of iterations =  5.9


     -----------------------------------------------
     Non-local corr. energy    =       0.30352874 Ry
     -----------------------------------------------


     total cpu time spent up to now is      103.2 secs

     total energy              =    -184.86979506 Ry
     estimated scf accuracy    <       0.00135198 Ry

     iteration #  4     ecut=   130.00 Ry     beta= 0.70
     Davidson diagonalization with overlap

---- Real-time Memory Report at c_bands before calling an iterative solver
             0 MiB given to the printing process from OS
             0 MiB allocation reported by mallinfo(arena+hblkhd)
             0 MiB available memory on the node where the printing process lives
------------------
     ethr =  5.20E-06,  avg # of iterations =  1.4


     -----------------------------------------------
     Non-local corr. energy    =       0.30351916 Ry
     -----------------------------------------------


     total cpu time spent up to now is      106.5 secs

     total energy              =    -184.86981228 Ry
     estimated scf accuracy    <       0.00058161 Ry

     iteration #  5     ecut=   130.00 Ry     beta= 0.70
     Davidson diagonalization with overlap

---- Real-time Memory Report at c_bands before calling an iterative solver
             0 MiB given to the printing process from OS
             0 MiB allocation reported by mallinfo(arena+hblkhd)
             0 MiB available memory on the node where the printing process lives
------------------
     ethr =  2.24E-06,  avg # of iterations =  2.2


     -----------------------------------------------
     Non-local corr. energy    =       0.30350777 Ry
     -----------------------------------------------


     total cpu time spent up to now is      109.9 secs

     total energy              =    -184.86983307 Ry
     estimated scf accuracy    <       0.00035141 Ry

     iteration #  6     ecut=   130.00 Ry     beta= 0.70
     Davidson diagonalization with overlap

---- Real-time Memory Report at c_bands before calling an iterative solver
             0 MiB given to the printing process from OS
             0 MiB allocation reported by mallinfo(arena+hblkhd)
             0 MiB available memory on the node where the printing process lives
------------------
     ethr =  1.35E-06,  avg # of iterations =  1.8


     -----------------------------------------------
     Non-local corr. energy    =       0.30349690 Ry
     -----------------------------------------------


     total cpu time spent up to now is      113.2 secs

     total energy              =    -184.86983334 Ry
     estimated scf accuracy    <       0.00023142 Ry

     iteration #  7     ecut=   130.00 Ry     beta= 0.70
     Davidson diagonalization with overlap

---- Real-time Memory Report at c_bands before calling an iterative solver
             0 MiB given to the printing process from OS
             0 MiB allocation reported by mallinfo(arena+hblkhd)
             0 MiB available memory on the node where the printing process lives
------------------
     ethr =  8.90E-07,  avg # of iterations =  2.6


     -----------------------------------------------
     Non-local corr. energy    =       0.30349333 Ry
     -----------------------------------------------


     total cpu time spent up to now is      116.8 secs

     total energy              =    -184.86984756 Ry
     estimated scf accuracy    <       0.00010719 Ry

     iteration #  8     ecut=   130.00 Ry     beta= 0.70
     Davidson diagonalization with overlap

---- Real-time Memory Report at c_bands before calling an iterative solver
             0 MiB given to the printing process from OS
             0 MiB allocation reported by mallinfo(arena+hblkhd)
             0 MiB available memory on the node where the printing process lives
------------------
     ethr =  4.12E-07,  avg # of iterations =  2.8


     -----------------------------------------------
     Non-local corr. energy    =       0.30348853 Ry
     -----------------------------------------------


     total cpu time spent up to now is      120.4 secs

     total energy              =    -184.86985364 Ry
     estimated scf accuracy    <       0.00006175 Ry

     iteration #  9     ecut=   130.00 Ry     beta= 0.70
     Davidson diagonalization with overlap

---- Real-time Memory Report at c_bands before calling an iterative solver
             0 MiB given to the printing process from OS
             0 MiB allocation reported by mallinfo(arena+hblkhd)
             0 MiB available memory on the node where the printing process lives
------------------
     ethr =  2.37E-07,  avg # of iterations =  1.8


     -----------------------------------------------
     Non-local corr. energy    =       0.30348444 Ry
     -----------------------------------------------


     total cpu time spent up to now is      124.1 secs

     total energy              =    -184.86985514 Ry
     estimated scf accuracy    <       0.00004156 Ry

     iteration # 10     ecut=   130.00 Ry     beta= 0.70
     Davidson diagonalization with overlap

---- Real-time Memory Report at c_bands before calling an iterative solver
             0 MiB given to the printing process from OS
             0 MiB allocation reported by mallinfo(arena+hblkhd)
             0 MiB available memory on the node where the printing process lives
------------------
     ethr =  1.60E-07,  avg # of iterations =  1.5


     -----------------------------------------------
     Non-local corr. energy    =       0.30346285 Ry
     -----------------------------------------------


     total cpu time spent up to now is      127.8 secs

     total energy              =    -184.86985013 Ry
     estimated scf accuracy    <       0.00003207 Ry

     iteration # 11     ecut=   130.00 Ry     beta= 0.70
     Davidson diagonalization with overlap

---- Real-time Memory Report at c_bands before calling an iterative solver
             0 MiB given to the printing process from OS
             0 MiB allocation reported by mallinfo(arena+hblkhd)
             0 MiB available memory on the node where the printing process lives
------------------
     ethr =  1.23E-07,  avg # of iterations =  2.8


     -----------------------------------------------
     Non-local corr. energy    =       0.30346252 Ry
     -----------------------------------------------


     total cpu time spent up to now is      132.0 secs

     total energy              =    -184.86985395 Ry
     estimated scf accuracy    <       0.00000366 Ry

     iteration # 12     ecut=   130.00 Ry     beta= 0.70
     Davidson diagonalization with overlap

---- Real-time Memory Report at c_bands before calling an iterative solver
             0 MiB given to the printing process from OS
             0 MiB allocation reported by mallinfo(arena+hblkhd)
             0 MiB available memory on the node where the printing process lives
------------------
     ethr =  1.41E-08,  avg # of iterations =  5.2


     -----------------------------------------------
     Non-local corr. energy    =       0.30345751 Ry
     -----------------------------------------------


     total cpu time spent up to now is      136.6 secs

     End of self-consistent calculation

          k = 0.0000 0.0000 0.0000 ( 37411 PWs)   bands (ev):

   -62.9847 -37.1461 -36.9236 -36.9236 -16.2351 -14.9477  -7.7567  -4.7411
    -4.7410  -3.9828  -3.6302  -3.6301  -2.2312

     occupation numbers 
     1.0000   1.0000   1.0000   1.0000   1.0000   1.0000   1.0000   1.0000
     1.0000   1.0000   1.0000   1.0000   1.0000

          k =-0.0000 0.0962 0.0000 ( 37307 PWs)   bands (ev):

   -62.9821 -37.1410 -36.9498 -36.9296 -16.1319 -14.9050  -7.6375  -4.9695
    -4.6325  -4.4407  -3.7942  -3.3276  -2.2742

     occupation numbers 
     1.0000   1.0000   1.0000   1.0000   1.0000   1.0000   1.0000   1.0000
     1.0000   1.0000   1.0000   1.0000   1.0000

          k =-0.0000 0.1925 0.0000 ( 37367 PWs)   bands (ev):

   -62.9750 -37.1270 -37.0210 -36.9458 -15.8385 -14.7836  -7.3373  -5.4937
    -5.0778  -4.3298  -4.1807  -3.2404  -2.4868

     occupation numbers 
     1.0000   1.0000   1.0000   1.0000   1.0000   1.0000   1.0000   1.0000
     1.0000   1.0000   1.0000   1.0000   1.0000

          k =-0.0000 0.2887 0.0000 ( 37425 PWs)   bands (ev):

   -62.9653 -37.1170 -37.1078 -36.9680 -15.4042 -14.6053  -7.1220  -5.9371
    -5.7281  -4.6140  -3.9054  -3.4867  -2.9024

     occupation numbers 
     1.0000   1.0000   1.0000   1.0000   1.0000   1.0000   1.0000   1.0000
     1.0000   1.0000   1.0000   1.0000   1.0000

          k =-0.0000 0.3850 0.0000 ( 37495 PWs)   bands (ev):

   -62.9555 -37.2116 -37.0885 -36.9900 -14.9167 -14.4094  -7.3709  -6.3302
    -6.0215  -4.9787  -3.7895  -3.4812  -3.1422

     occupation numbers 
     1.0000   1.0000   1.0000   1.0000   1.0000   1.0000   1.0000   1.0000
     1.0000   1.0000   1.0000   1.0000   1.0000

          k =-0.0000 0.4812 0.0000 ( 37485 PWs)   bands (ev):

   -62.9484 -37.2800 -37.0743 -37.0061 -14.5109 -14.2521  -7.7495  -6.7715
    -6.1198  -5.2155  -3.9826  -3.1880  -2.9592

     occupation numbers 
     1.0000   1.0000   1.0000   1.0000   1.0000   1.0000   1.0000   1.0000
     1.0000   1.0000   1.0000   1.0000   1.0000

          k = 0.0000-0.5775 0.0000 ( 37504 PWs)   bands (ev):

   -62.9458 -37.3048 -37.0691 -37.0120 -14.3482 -14.1909  -7.9110  -6.9350
    -6.1971  -5.2971  -4.0447  -3.0886  -2.7864

     occupation numbers 
     1.0000   1.0000   1.0000   1.0000   1.0000   1.0000   1.0000   1.0000
     1.0000   1.0000   1.0000   1.0000   1.0000

          k = 0.0834 0.1444 0.0000 ( 37349 PWs)   bands (ev):

   -62.9772 -37.1314 -36.9972 -36.9420 -15.9335 -14.8228  -7.4240  -5.3390
    -4.8646  -4.4348  -4.1755  -3.1358  -2.4024

     occupation numbers 
     1.0000   1.0000   1.0000   1.0000   1.0000   1.0000   1.0000   1.0000
     1.0000   1.0000   1.0000   1.0000   1.0000

          k = 0.0834 0.2406 0.0000 ( 37426 PWs)   bands (ev):

   -62.9688 -37.1148 -37.0774 -36.9647 -15.5687 -14.6719  -7.1338  -5.8089
    -5.4004  -4.7239  -4.1198  -3.1620  -2.7293

     occupation numbers 
     1.0000   1.0000   1.0000   1.0000   1.0000   1.0000   1.0000   1.0000
     1.0000   1.0000   1.0000   1.0000   1.0000

          k = 0.0834 0.3369 0.0000 ( 37460 PWs)   bands (ev):

   -62.9591 -37.1685 -37.0955 -36.9909 -15.1042 -14.4818  -7.1601  -6.0418
    -5.9788  -5.0902  -3.8741  -3.4562  -3.0168

     occupation numbers 
     1.0000   1.0000   1.0000   1.0000   1.0000   1.0000   1.0000   1.0000
     1.0000   1.0000   1.0000   1.0000   1.0000

          k = 0.0834 0.4331 0.0000 ( 37497 PWs)   bands (ev):

   -62.9507 -37.2464 -37.0788 -37.0135 -14.6493 -14.2997  -7.5077  -6.6269
    -6.0085  -5.2559  -3.7904  -3.7545  -2.9010

     occupation numbers 
     1.0000   1.0000   1.0000   1.0000   1.0000   1.0000   1.0000   1.0000
     1.0000   1.0000   1.0000   1.0000   1.0000

          k = 0.0834 0.5294 0.0000 ( 37499 PWs)   bands (ev):

   -62.9458 -37.2909 -37.0691 -37.0265 -14.3553 -14.1855  -7.7717  -6.9688
    -6.1365  -5.3086  -3.9982  -3.6201  -2.6567

     occupation numbers 
     1.0000   1.0000   1.0000   1.0000   1.0000   1.0000   1.0000   1.0000
     1.0000   1.0000   1.0000   1.0000   1.0000

          k = 0.1667 0.2887 0.0000 ( 37457 PWs)   bands (ev):

   -62.9604 -37.1465 -37.0981 -36.9975 -15.1711 -14.5067  -7.0534  -5.9454
    -5.8147  -5.3350  -4.0923  -3.1939  -2.9570

     occupation numbers 
     1.0000   1.0000   1.0000   1.0000   1.0000   1.0000   1.0000   1.0000
     1.0000   1.0000   1.0000   1.0000   1.0000

          k = 0.1667 0.3850 0.0000 ( 37477 PWs)   bands (ev):

   -62.9520 -37.2114 -37.0814 -37.0338 -14.7298 -14.3234  -7.2451  -6.5033
    -5.8434  -5.4422  -4.3671  -3.4964  -2.9071

     occupation numbers 
     1.0000   1.0000   1.0000   1.0000   1.0000   1.0000   1.0000   1.0000
     1.0000   1.0000   1.0000   1.0000   1.0000

          k = 0.1667 0.4812 0.0000 ( 37475 PWs)   bands (ev):

   -62.9458 -37.2572 -37.0692 -37.0616 -14.3693 -14.1745  -7.4448  -7.0306
    -5.9508  -5.3546  -4.4841  -3.8693  -2.6585

     occupation numbers 
     1.0000   1.0000   1.0000   1.0000   1.0000   1.0000   1.0000   1.0000
     1.0000   1.0000   1.0000   1.0000   1.0000

          k = 0.1667 0.5775 0.0000 ( 37475 PWs)   bands (ev):

   -62.9435 -37.2737 -37.0719 -37.0647 -14.2271 -14.1162  -7.5179  -7.2223
    -6.0745  -5.2794  -4.4766  -4.0495  -2.4809

     occupation numbers 
     1.0000   1.0000   1.0000   1.0000   1.0000   1.0000   1.0000   1.0000
     1.0000   1.0000   1.0000   1.0000   1.0000

          k = 0.2501 0.4331 0.0000 ( 37475 PWs)   bands (ev):

   -62.9458 -37.2347 -37.0848 -37.0692 -14.3762 -14.1690  -7.2469  -7.0591
    -5.7220  -5.3861  -5.0415  -3.7887  -2.6860

     occupation numbers 
     1.0000   1.0000   1.0000   1.0000   1.0000   1.0000   1.0000   1.0000
     1.0000   1.0000   1.0000   1.0000   1.0000

          k = 0.2501 0.5294 0.0000 ( 37490 PWs)   bands (ev):

   -62.9422 -37.2393 -37.1229 -37.0621 -14.1572 -14.0707  -7.4031  -7.1221
    -5.9427  -5.3306  -5.1838  -4.1265  -2.3785

     occupation numbers 
     1.0000   1.0000   1.0000   1.0000   1.0000   1.0000   1.0000   1.0000
     1.0000   1.0000   1.0000   1.0000   1.0000

          k = 0.3334 0.5775 0.0000 ( 37413 PWs)   bands (ev):

   -62.9409 -37.2103 -37.1679 -37.0595 -14.0782 -14.0296  -7.5497  -6.7318
    -6.1990  -5.6647  -5.0203  -4.3188  -2.1910

     occupation numbers 
     1.0000   1.0000   1.0000   1.0000   1.0000   1.0000   1.0000   1.0000
     1.0000   1.0000   1.0000   1.0000   1.0000

     highest occupied level (ev):    -2.1910

!    total energy              =    -184.86985513 Ry
     estimated scf accuracy    <       0.00000010 Ry

     The total energy is the sum of the following terms:
     one-electron contribution =   -1569.79565731 Ry
     hartree contribution      =     784.14377883 Ry
     xc contribution           =     -33.30090066 Ry
     ewald contribution        =     634.08292401 Ry

     convergence has been achieved in  12 iterations


     -----------------------------------------------
     Non-local corr. energy    =       0.30345751 Ry
     -----------------------------------------------


     Forces acting on atoms (cartesian axes, Ry/au):

     atom    1 type  2   force =     0.00000000    0.00000000    0.00000000
     atom    2 type  1   force =     0.00000000    0.00000000   -0.00043345
     atom    3 type  1   force =    -0.00000000   -0.00000000    0.00043345
     The non-local contrib.  to forces
     atom    1 type  2   force =    -0.00000000    0.00000000    0.00000000
     atom    2 type  1   force =    -0.00000000   -0.00000000   -0.24777104
     atom    3 type  1   force =     0.00000000    0.00000000    0.24777104
     The ionic contribution  to forces
     atom    1 type  2   force =     0.00000916   -0.00000529   -0.00000000
     atom    2 type  1   force =    -0.00000458    0.00000264   38.19339543
     atom    3 type  1   force =    -0.00000458    0.00000264  -38.19339543
     The local contribution  to forces
     atom    1 type  2   force =     0.00014622   -0.00001206    0.00000000
     atom    2 type  1   force =    -0.00000380    0.00000548  -37.95105391
     atom    3 type  1   force =    -0.00000380    0.00000548   37.95105391
     The core correction contribution to forces
     atom    1 type  2   force =    -0.00000316    0.00000026    0.00000000
     atom    2 type  1   force =     0.00000050   -0.00000073    0.00559878
     atom    3 type  1   force =     0.00000050   -0.00000073   -0.00559878
     The Hubbard contrib.    to forces
     atom    1 type  2   force =     0.00000000    0.00000000    0.00000000
     atom    2 type  1   force =     0.00000000    0.00000000    0.00000000
     atom    3 type  1   force =     0.00000000    0.00000000    0.00000000
     The SCF correction term to forces
     atom    1 type  2   force =     0.00000000    0.00000000    0.00000000
     atom    2 type  1   force =    -0.00000000    0.00000000   -0.00060271
     atom    3 type  1   force =    -0.00000000    0.00000000    0.00060271

     Total force =     0.000613     Total SCF correction =     0.000852
     SCF correction compared to forces is large: reduce conv_thr to get better values


     Computing stress (Cartesian axis) and pressure



     -----------------------------------------------
     Non-local corr. energy    =       0.30345751 Ry
     -----------------------------------------------

          total   stress  (Ry/bohr**3)                   (kbar)     P=       -0.89
  -0.00000788   0.00000000   0.00000000           -1.16        0.00        0.00
   0.00000000  -0.00000788  -0.00000000            0.00       -1.16       -0.00
   0.00000000  -0.00000000  -0.00000238            0.00       -0.00       -0.35

     kinetic stress (kbar)   3919.44     -0.00      0.00
                               -0.00   3919.44     -0.00
                                0.00     -0.00   3943.67

     local   stress (kbar)-154129.41     -0.00      0.00
                               -0.00-154129.42     -0.00
                                0.00     -0.00 150459.06

     nonloc. stress (kbar)   3103.72      0.00      0.00
                                0.00   3103.72     -0.00
                                0.00     -0.00   3111.61

     hartree stress (kbar)  75493.95      0.00     -0.00
                                0.00  75493.95     -0.00
                               -0.00     -0.00 -73860.68

     exc-cor stress (kbar)    -70.46      0.00     -0.00
                                0.00    -70.46      0.00
                               -0.00      0.00    -71.23

     corecor stress (kbar)   -872.31     -0.00     -0.00
                               -0.00   -872.31     -0.00
                               -0.00     -0.00   -873.37

     ewald   stress (kbar)  72545.40      0.00      0.00
                                0.00  72545.40     -0.00
                                0.00     -0.00 -82723.35

     hubbard stress (kbar)      0.00      0.00      0.00
                                0.00      0.00      0.00
                                0.00      0.00      0.00

     DFT-D   stress (kbar)      0.00      0.00      0.00
                                0.00      0.00      0.00
                                0.00      0.00      0.00

     XDM     stress (kbar)      0.00      0.00      0.00
                                0.00      0.00      0.00
                                0.00      0.00      0.00

     dft-nl  stress (kbar)      8.52     -0.00      0.00
                               -0.00      8.52     -0.00
                                0.00     -0.00     13.95

     TS-vdW  stress (kbar)      0.00      0.00      0.00
                                0.00      0.00      0.00
                                0.00      0.00      0.00

     MDB     stress (kbar)      0.00      0.00      0.00
                                0.00      0.00      0.00
                                0.00      0.00      0.00

     3D-RISM stress (kbar)      0.00      0.00      0.00
                                0.00      0.00      0.00
                                0.00      0.00      0.00

     Energy error            =      8.1E-06 Ry
     Gradient error          =      4.3E-04 Ry/Bohr
     Cell gradient error     =      1.2E+00 kbar

     number of scf cycles    =   2
     number of bfgs steps    =   1

     enthalpy           old  =    -184.8698470595 Ry
     enthalpy           new  =    -184.8698551273 Ry

     CASE: enthalpy          _new < enthalpy          _old

     new trust radius        =       0.0021079827 bohr
     new conv_thr            =       0.0000000100 Ry

     new unit-cell volume =   1494.78594 a.u.^3 (   221.50442 Ang^3 )
     density =      1.85894 g/cm^3

CELL_PARAMETERS (alat=  5.99980000)
   0.999479827   0.000000000   0.000000000
  -0.499739913   0.865574920   0.000000000
   0.000000000   0.000000000   8.000000000

ATOMIC_POSITIONS (crystal)
Mo            0.3333330000        0.6666667000        0.0000000000
S             0.6666667000        0.3333330000        0.0617355422
S             0.6666667000        0.3333330000       -0.0617355422



     Writing config-only to output data dir ./tmp/MoS2_1L_pbe_nsoc.save/
     NEW-OLD atomic charge density approx. for the potential

     negative rho (up, down):  1.375E-08 0.000E+00


     -----------------------------------------------
     Non-local corr. energy    =       0.30327673 Ry
     -----------------------------------------------

     extrapolated charge   25.98582, renormalised to   26.00000

     total cpu time spent up to now is      150.6 secs

     Self-consistent Calculation

     iteration #  1     ecut=   130.00 Ry     beta= 0.70
     Davidson diagonalization with overlap

---- Real-time Memory Report at c_bands before calling an iterative solver
             0 MiB given to the printing process from OS
             0 MiB allocation reported by mallinfo(arena+hblkhd)
             0 MiB available memory on the node where the printing process lives
------------------
     ethr =  1.00E-06,  avg # of iterations =  5.7


     -----------------------------------------------
     Non-local corr. energy    =       0.30349458 Ry
     -----------------------------------------------


     total cpu time spent up to now is      156.2 secs

     total energy              =    -184.86802373 Ry
     estimated scf accuracy    <       0.00179006 Ry

     iteration #  2     ecut=   130.00 Ry     beta= 0.70
     Davidson diagonalization with overlap

---- Real-time Memory Report at c_bands before calling an iterative solver
             0 MiB given to the printing process from OS
             0 MiB allocation reported by mallinfo(arena+hblkhd)
             0 MiB available memory on the node where the printing process lives
------------------
     ethr =  6.88E-06,  avg # of iterations =  6.8


     -----------------------------------------------
     Non-local corr. energy    =       0.30350471 Ry
     -----------------------------------------------


     total cpu time spent up to now is      162.5 secs

     total energy              =    -184.86715146 Ry
     estimated scf accuracy    <       0.03583872 Ry

     iteration #  3     ecut=   130.00 Ry     beta= 0.70
     Davidson diagonalization with overlap

---- Real-time Memory Report at c_bands before calling an iterative solver
             0 MiB given to the printing process from OS
             0 MiB allocation reported by mallinfo(arena+hblkhd)
             0 MiB available memory on the node where the printing process lives
------------------
     ethr =  6.88E-06,  avg # of iterations =  5.9


     -----------------------------------------------
     Non-local corr. energy    =       0.30344301 Ry
     -----------------------------------------------


     total cpu time spent up to now is      168.0 secs

     total energy              =    -184.86978193 Ry
     estimated scf accuracy    <       0.00168127 Ry

     iteration #  4     ecut=   130.00 Ry     beta= 0.70
     Davidson diagonalization with overlap

---- Real-time Memory Report at c_bands before calling an iterative solver
             0 MiB given to the printing process from OS
             0 MiB allocation reported by mallinfo(arena+hblkhd)
             0 MiB available memory on the node where the printing process lives
------------------
     ethr =  6.47E-06,  avg # of iterations =  1.4


     -----------------------------------------------
     Non-local corr. energy    =       0.30343537 Ry
     -----------------------------------------------


     total cpu time spent up to now is      171.4 secs

     total energy              =    -184.86981287 Ry
     estimated scf accuracy    <       0.00071348 Ry

     iteration #  5     ecut=   130.00 Ry     beta= 0.70
     Davidson diagonalization with overlap

---- Real-time Memory Report at c_bands before calling an iterative solver
             0 MiB given to the printing process from OS
             0 MiB allocation reported by mallinfo(arena+hblkhd)
             0 MiB available memory on the node where the printing process lives
------------------
     ethr =  2.74E-06,  avg # of iterations =  2.1


     -----------------------------------------------
     Non-local corr. energy    =       0.30342285 Ry
     -----------------------------------------------


     total cpu time spent up to now is      175.1 secs

     total energy              =    -184.86983517 Ry
     estimated scf accuracy    <       0.00046557 Ry

     iteration #  6     ecut=   130.00 Ry     beta= 0.70
     Davidson diagonalization with overlap

---- Real-time Memory Report at c_bands before calling an iterative solver
             0 MiB given to the printing process from OS
             0 MiB allocation reported by mallinfo(arena+hblkhd)
             0 MiB available memory on the node where the printing process lives
------------------
     ethr =  1.79E-06,  avg # of iterations =  1.7


     -----------------------------------------------
     Non-local corr. energy    =       0.30341089 Ry
     -----------------------------------------------


     total cpu time spent up to now is      180.1 secs

     total energy              =    -184.86983465 Ry
     estimated scf accuracy    <       0.00030573 Ry

     iteration #  7     ecut=   130.00 Ry     beta= 0.70
     Davidson diagonalization with overlap

---- Real-time Memory Report at c_bands before calling an iterative solver
             0 MiB given to the printing process from OS
             0 MiB allocation reported by mallinfo(arena+hblkhd)
             0 MiB available memory on the node where the printing process lives
------------------
     ethr =  1.18E-06,  avg # of iterations =  2.3


     -----------------------------------------------
     Non-local corr. energy    =       0.30341071 Ry
     -----------------------------------------------


     total cpu time spent up to now is      185.2 secs

     total energy              =    -184.86985244 Ry
     estimated scf accuracy    <       0.00015520 Ry

     iteration #  8     ecut=   130.00 Ry     beta= 0.70
     Davidson diagonalization with overlap

---- Real-time Memory Report at c_bands before calling an iterative solver
             0 MiB given to the printing process from OS
             0 MiB allocation reported by mallinfo(arena+hblkhd)
             0 MiB available memory on the node where the printing process lives
------------------
     ethr =  5.97E-07,  avg # of iterations =  2.2


     -----------------------------------------------
     Non-local corr. energy    =       0.30341166 Ry
     -----------------------------------------------


     total cpu time spent up to now is      189.9 secs

     total energy              =    -184.86986212 Ry
     estimated scf accuracy    <       0.00011006 Ry

     iteration #  9     ecut=   130.00 Ry     beta= 0.70
     Davidson diagonalization with overlap

---- Real-time Memory Report at c_bands before calling an iterative solver
             0 MiB given to the printing process from OS
             0 MiB allocation reported by mallinfo(arena+hblkhd)
             0 MiB available memory on the node where the printing process lives
------------------
     ethr =  4.23E-07,  avg # of iterations =  1.2


     -----------------------------------------------
     Non-local corr. energy    =       0.30340897 Ry
     -----------------------------------------------


     total cpu time spent up to now is      193.3 secs

     total energy              =    -184.86986523 Ry
     estimated scf accuracy    <       0.00009488 Ry

     iteration # 10     ecut=   130.00 Ry     beta= 0.70
     Davidson diagonalization with overlap

---- Real-time Memory Report at c_bands before calling an iterative solver
             0 MiB given to the printing process from OS
             0 MiB allocation reported by mallinfo(arena+hblkhd)
             0 MiB available memory on the node where the printing process lives
------------------
     ethr =  3.65E-07,  avg # of iterations =  1.0


     -----------------------------------------------
     Non-local corr. energy    =       0.30338910 Ry
     -----------------------------------------------


     total cpu time spent up to now is      197.2 secs

     total energy              =    -184.86986437 Ry
     estimated scf accuracy    <       0.00008451 Ry

     iteration # 11     ecut=   130.00 Ry     beta= 0.70
     Davidson diagonalization with overlap

---- Real-time Memory Report at c_bands before calling an iterative solver
             0 MiB given to the printing process from OS
             0 MiB allocation reported by mallinfo(arena+hblkhd)
             0 MiB available memory on the node where the printing process lives
------------------
     ethr =  3.25E-07,  avg # of iterations =  1.1

     negative rho (up, down):  1.357E-08 0.000E+00


     -----------------------------------------------
     Non-local corr. energy    =       0.30339538 Ry
     -----------------------------------------------


     total cpu time spent up to now is      201.0 secs

     total energy              =    -184.86987546 Ry
     estimated scf accuracy    <       0.00006647 Ry

     iteration # 12     ecut=   130.00 Ry     beta= 0.70
     Davidson diagonalization with overlap

---- Real-time Memory Report at c_bands before calling an iterative solver
             0 MiB given to the printing process from OS
             0 MiB allocation reported by mallinfo(arena+hblkhd)
             0 MiB available memory on the node where the printing process lives
------------------
     ethr =  2.56E-07,  avg # of iterations =  1.1

     negative rho (up, down):  1.285E-08 0.000E+00


     -----------------------------------------------
     Non-local corr. energy    =       0.30339383 Ry
     -----------------------------------------------


     total cpu time spent up to now is      205.1 secs

     total energy              =    -184.86987659 Ry
     estimated scf accuracy    <       0.00009707 Ry

     iteration # 13     ecut=   130.00 Ry     beta= 0.70
     Davidson diagonalization with overlap

---- Real-time Memory Report at c_bands before calling an iterative solver
             0 MiB given to the printing process from OS
             0 MiB allocation reported by mallinfo(arena+hblkhd)
             0 MiB available memory on the node where the printing process lives
------------------
     ethr =  2.56E-07,  avg # of iterations =  1.0


     -----------------------------------------------
     Non-local corr. energy    =       0.30337937 Ry
     -----------------------------------------------


     total cpu time spent up to now is      209.2 secs

     total energy              =    -184.86985975 Ry
     estimated scf accuracy    <       0.00010034 Ry

     iteration # 14     ecut=   130.00 Ry     beta= 0.70
     Davidson diagonalization with overlap

---- Real-time Memory Report at c_bands before calling an iterative solver
             0 MiB given to the printing process from OS
             0 MiB allocation reported by mallinfo(arena+hblkhd)
             0 MiB available memory on the node where the printing process lives
------------------
     ethr =  2.56E-07,  avg # of iterations =  1.5


     -----------------------------------------------
     Non-local corr. energy    =       0.30337290 Ry
     -----------------------------------------------


     total cpu time spent up to now is      213.3 secs

     total energy              =    -184.86985479 Ry
     estimated scf accuracy    <       0.00004019 Ry

     iteration # 15     ecut=   130.00 Ry     beta= 0.70
     Davidson diagonalization with overlap

---- Real-time Memory Report at c_bands before calling an iterative solver
             0 MiB given to the printing process from OS
             0 MiB allocation reported by mallinfo(arena+hblkhd)
             0 MiB available memory on the node where the printing process lives
------------------
     ethr =  1.55E-07,  avg # of iterations =  3.2


     -----------------------------------------------
     Non-local corr. energy    =       0.30337094 Ry
     -----------------------------------------------


     total cpu time spent up to now is      218.0 secs

     total energy              =    -184.86985850 Ry
     estimated scf accuracy    <       0.00000300 Ry

     iteration # 16     ecut=   130.00 Ry     beta= 0.70
     Davidson diagonalization with overlap

---- Real-time Memory Report at c_bands before calling an iterative solver
             0 MiB given to the printing process from OS
             0 MiB allocation reported by mallinfo(arena+hblkhd)
             0 MiB available memory on the node where the printing process lives
------------------
     ethr =  1.16E-08,  avg # of iterations =  6.3


     -----------------------------------------------
     Non-local corr. energy    =       0.30337170 Ry
     -----------------------------------------------


     total cpu time spent up to now is      225.3 secs

     total energy              =    -184.86986262 Ry
     estimated scf accuracy    <       0.00000942 Ry

     iteration # 17     ecut=   130.00 Ry     beta= 0.70
     Davidson diagonalization with overlap

---- Real-time Memory Report at c_bands before calling an iterative solver
             0 MiB given to the printing process from OS
             0 MiB allocation reported by mallinfo(arena+hblkhd)
             0 MiB available memory on the node where the printing process lives
------------------
     ethr =  1.16E-08,  avg # of iterations =  1.0


     -----------------------------------------------
     Non-local corr. energy    =       0.30337151 Ry
     -----------------------------------------------


     total cpu time spent up to now is      229.3 secs

     total energy              =    -184.86986265 Ry
     estimated scf accuracy    <       0.00000930 Ry

     iteration # 18     ecut=   130.00 Ry     beta= 0.70
     Davidson diagonalization with overlap

---- Real-time Memory Report at c_bands before calling an iterative solver
             0 MiB given to the printing process from OS
             0 MiB allocation reported by mallinfo(arena+hblkhd)
             0 MiB available memory on the node where the printing process lives
------------------
     ethr =  1.16E-08,  avg # of iterations =  1.0


     -----------------------------------------------
     Non-local corr. energy    =       0.30337153 Ry
     -----------------------------------------------


     total cpu time spent up to now is      233.0 secs

     total energy              =    -184.86986207 Ry
     estimated scf accuracy    <       0.00000953 Ry

     iteration # 19     ecut=   130.00 Ry     beta= 0.70
     Davidson diagonalization with overlap

---- Real-time Memory Report at c_bands before calling an iterative solver
             0 MiB given to the printing process from OS
             0 MiB allocation reported by mallinfo(arena+hblkhd)
             0 MiB available memory on the node where the printing process lives
------------------
     ethr =  1.16E-08,  avg # of iterations =  1.0


     -----------------------------------------------
     Non-local corr. energy    =       0.30337073 Ry
     -----------------------------------------------


     total cpu time spent up to now is      237.1 secs

     total energy              =    -184.86986077 Ry
     estimated scf accuracy    <       0.00000731 Ry

     iteration # 20     ecut=   130.00 Ry     beta= 0.70
     Davidson diagonalization with overlap

---- Real-time Memory Report at c_bands before calling an iterative solver
             0 MiB given to the printing process from OS
             0 MiB allocation reported by mallinfo(arena+hblkhd)
             0 MiB available memory on the node where the printing process lives
------------------
     ethr =  1.16E-08,  avg # of iterations =  2.5


     -----------------------------------------------
     Non-local corr. energy    =       0.30336988 Ry
     -----------------------------------------------


     total cpu time spent up to now is      241.5 secs

     total energy              =    -184.86986081 Ry
     estimated scf accuracy    <       0.00000123 Ry

     iteration # 21     ecut=   130.00 Ry     beta= 0.70
     Davidson diagonalization with overlap

---- Real-time Memory Report at c_bands before calling an iterative solver
             0 MiB given to the printing process from OS
             0 MiB allocation reported by mallinfo(arena+hblkhd)
[...]
     -----------------------------------------------


     total cpu time spent up to now is      882.5 secs

     total energy              =    -184.86985339 Ry
     estimated scf accuracy    <       0.00002188 Ry

     iteration #  8     ecut=   130.00 Ry     beta= 0.70
     Davidson diagonalization with overlap

---- Real-time Memory Report at c_bands before calling an iterative solver
             0 MiB given to the printing process from OS
             0 MiB allocation reported by mallinfo(arena+hblkhd)
             0 MiB available memory on the node where the printing process lives
------------------
     ethr =  8.42E-08,  avg # of iterations =  6.6

     negative rho (up, down):  3.179E-08 0.000E+00


     -----------------------------------------------
     Non-local corr. energy    =       0.30302887 Ry
     -----------------------------------------------


     total cpu time spent up to now is      888.6 secs

     total energy              =    -184.86986346 Ry
     estimated scf accuracy    <       0.00009345 Ry

     iteration #  9     ecut=   130.00 Ry     beta= 0.70
     Davidson diagonalization with overlap

---- Real-time Memory Report at c_bands before calling an iterative solver
             0 MiB given to the printing process from OS
             0 MiB allocation reported by mallinfo(arena+hblkhd)
             0 MiB available memory on the node where the printing process lives
------------------
     ethr =  8.42E-08,  avg # of iterations =  4.2


     -----------------------------------------------
     Non-local corr. energy    =       0.30302446 Ry
     -----------------------------------------------


     total cpu time spent up to now is      893.2 secs

     total energy              =    -184.86987185 Ry
     estimated scf accuracy    <       0.00000527 Ry

     iteration # 10     ecut=   130.00 Ry     beta= 0.70
     Davidson diagonalization with overlap

---- Real-time Memory Report at c_bands before calling an iterative solver
             0 MiB given to the printing process from OS
             0 MiB allocation reported by mallinfo(arena+hblkhd)
             0 MiB available memory on the node where the printing process lives
------------------
     ethr =  2.03E-08,  avg # of iterations =  3.4


     -----------------------------------------------
     Non-local corr. energy    =       0.30302341 Ry
     -----------------------------------------------


     total cpu time spent up to now is      897.2 secs

     total energy              =    -184.86987224 Ry
     estimated scf accuracy    <       0.00000143 Ry

     iteration # 11     ecut=   130.00 Ry     beta= 0.70
     Davidson diagonalization with overlap

---- Real-time Memory Report at c_bands before calling an iterative solver
             0 MiB given to the printing process from OS
             0 MiB allocation reported by mallinfo(arena+hblkhd)
             0 MiB available memory on the node where the printing process lives
------------------
     ethr =  5.48E-09,  avg # of iterations =  4.4


     -----------------------------------------------
     Non-local corr. energy    =       0.30302246 Ry
     -----------------------------------------------


     total cpu time spent up to now is      902.1 secs

     total energy              =    -184.86987268 Ry
     estimated scf accuracy    <       0.00000006 Ry

     iteration # 12     ecut=   130.00 Ry     beta= 0.70
     Davidson diagonalization with overlap

---- Real-time Memory Report at c_bands before calling an iterative solver
             0 MiB given to the printing process from OS
             0 MiB allocation reported by mallinfo(arena+hblkhd)
             0 MiB available memory on the node where the printing process lives
------------------
     ethr =  2.47E-10,  avg # of iterations =  4.3


     -----------------------------------------------
     Non-local corr. energy    =       0.30302228 Ry
     -----------------------------------------------


     total cpu time spent up to now is      906.6 secs

     total energy              =    -184.86987269 Ry
     estimated scf accuracy    <       0.00000003 Ry

     iteration # 13     ecut=   130.00 Ry     beta= 0.70
     Davidson diagonalization with overlap

---- Real-time Memory Report at c_bands before calling an iterative solver
             0 MiB given to the printing process from OS
             0 MiB allocation reported by mallinfo(arena+hblkhd)
             0 MiB available memory on the node where the printing process lives
------------------
     ethr =  1.27E-10,  avg # of iterations =  4.0


     -----------------------------------------------
     Non-local corr. energy    =       0.30302227 Ry
     -----------------------------------------------


     total cpu time spent up to now is      910.8 secs

     End of self-consistent calculation

          k = 0.0000 0.0000 0.0000 ( 37231 PWs)   bands (ev):

   -62.9640 -37.1291 -36.9006 -36.9006 -16.2361 -14.9489  -7.7571  -4.7201
    -4.7201  -3.9844  -3.6060  -3.6060  -2.2320

     occupation numbers 
     1.0000   1.0000   1.0000   1.0000   1.0000   1.0000   1.0000   1.0000
     1.0000   1.0000   1.0000   1.0000   1.0000

          k =-0.0000 0.0964 0.0000 ( 37215 PWs)   bands (ev):

   -62.9613 -37.1239 -36.9273 -36.9067 -16.1323 -14.9057  -7.6370  -4.9499
    -4.6108  -4.4350  -3.7711  -3.3123  -2.2735

     occupation numbers 
     1.0000   1.0000   1.0000   1.0000   1.0000   1.0000   1.0000   1.0000
     1.0000   1.0000   1.0000   1.0000   1.0000

          k =-0.0000 0.1928 0.0000 ( 37239 PWs)   bands (ev):

   -62.9541 -37.1096 -36.9997 -36.9232 -15.8368 -14.7831  -7.3349  -5.4771
    -5.0725  -4.3062  -4.1599  -3.2294  -2.4824

     occupation numbers 
     1.0000   1.0000   1.0000   1.0000   1.0000   1.0000   1.0000   1.0000
     1.0000   1.0000   1.0000   1.0000   1.0000

          k =-0.0000 0.2892 0.0000 ( 37297 PWs)   bands (ev):

   -62.9442 -37.0973 -37.0900 -36.9457 -15.3992 -14.6029  -7.1179  -5.9238
    -5.7250  -4.5955  -3.8795  -3.4798  -2.8961

     occupation numbers 
     1.0000   1.0000   1.0000   1.0000   1.0000   1.0000   1.0000   1.0000
     1.0000   1.0000   1.0000   1.0000   1.0000

          k =-0.0000 0.3856 0.0000 ( 37339 PWs)   bands (ev):

   -62.9342 -37.1934 -37.0704 -36.9681 -14.9075 -14.4048  -7.3679  -6.3300
    -6.0115  -4.9621  -3.7857  -3.4539  -3.1347

     occupation numbers 
     1.0000   1.0000   1.0000   1.0000   1.0000   1.0000   1.0000   1.0000
     1.0000   1.0000   1.0000   1.0000   1.0000

          k =-0.0000 0.4820 0.0000 ( 37324 PWs)   bands (ev):

   -62.9269 -37.2629 -37.0560 -36.9845 -14.4977 -14.2455  -7.7498  -6.7740
    -6.1133  -5.2000  -3.9805  -3.1609  -2.9490

     occupation numbers 
     1.0000   1.0000   1.0000   1.0000   1.0000   1.0000   1.0000   1.0000
     1.0000   1.0000   1.0000   1.0000   1.0000

          k = 0.0000-0.5784 0.0000 ( 37360 PWs)   bands (ev):

   -62.9242 -37.2881 -37.0507 -36.9904 -14.3331 -14.1836  -7.9131  -6.9385
    -6.1922  -5.2820  -4.0430  -3.0620  -2.7752

     occupation numbers 
     1.0000   1.0000   1.0000   1.0000   1.0000   1.0000   1.0000   1.0000
     1.0000   1.0000   1.0000   1.0000   1.0000

          k = 0.0835 0.1446 0.0000 ( 37217 PWs)   bands (ev):

   -62.9564 -37.1141 -36.9755 -36.9193 -15.9325 -14.8227  -7.4221  -5.3216
    -4.8591  -4.4119  -4.1554  -3.1220  -2.3990

     occupation numbers 
     1.0000   1.0000   1.0000   1.0000   1.0000   1.0000   1.0000   1.0000
     1.0000   1.0000   1.0000   1.0000   1.0000

          k = 0.0835 0.2410 0.0000 ( 37291 PWs)   bands (ev):

   -62.9478 -37.0972 -37.0570 -36.9423 -15.5649 -14.6702  -7.1299  -5.7944
    -5.3958  -4.7086  -4.0955  -3.1502  -2.7227

     occupation numbers 
     1.0000   1.0000   1.0000   1.0000   1.0000   1.0000   1.0000   1.0000
     1.0000   1.0000   1.0000   1.0000   1.0000

          k = 0.0835 0.3374 0.0000 ( 37311 PWs)   bands (ev):

   -62.9379 -37.1496 -37.0776 -36.9690 -15.0967 -14.4779  -7.1558  -6.0389
    -5.9668  -5.0784  -3.8527  -3.4475  -3.0055

     occupation numbers 
     1.0000   1.0000   1.0000   1.0000   1.0000   1.0000   1.0000   1.0000
     1.0000   1.0000   1.0000   1.0000   1.0000

          k = 0.0835 0.4338 0.0000 ( 37345 PWs)   bands (ev):

   -62.9292 -37.2288 -37.0605 -36.9920 -14.6376 -14.2937  -7.5061  -6.6270
    -5.9997  -5.2447  -3.7851  -3.7366  -2.8845

     occupation numbers 
     1.0000   1.0000   1.0000   1.0000   1.0000   1.0000   1.0000   1.0000
     1.0000   1.0000   1.0000   1.0000   1.0000

          k = 0.0835 0.5302 0.0000 ( 37342 PWs)   bands (ev):

   -62.9243 -37.2740 -37.0507 -37.0052 -14.3404 -14.1780  -7.7730  -6.9710
    -6.1306  -5.2967  -3.9953  -3.6015  -2.6395

     occupation numbers 
     1.0000   1.0000   1.0000   1.0000   1.0000   1.0000   1.0000   1.0000
     1.0000   1.0000   1.0000   1.0000   1.0000

          k = 0.1670 0.2892 0.0000 ( 37299 PWs)   bands (ev):

   -62.9392 -37.1272 -37.0802 -36.9758 -15.1641 -14.5032  -7.0485  -5.9324
    -5.8080  -5.3287  -4.0728  -3.1822  -2.9452

     occupation numbers 
     1.0000   1.0000   1.0000   1.0000   1.0000   1.0000   1.0000   1.0000
     1.0000   1.0000   1.0000   1.0000   1.0000

          k = 0.1670 0.3856 0.0000 ( 37323 PWs)   bands (ev):

   -62.9306 -37.1932 -37.0632 -37.0127 -14.7189 -14.3177  -7.2418  -6.4996
    -5.8312  -5.4380  -4.3541  -3.4873  -2.8908

     occupation numbers 
     1.0000   1.0000   1.0000   1.0000   1.0000   1.0000   1.0000   1.0000
     1.0000   1.0000   1.0000   1.0000   1.0000

          k = 0.1670 0.4820 0.0000 ( 37319 PWs)   bands (ev):

   -62.9243 -37.2397 -37.0507 -37.0408 -14.3546 -14.1669  -7.4443  -7.0305
    -5.9422  -5.3490  -4.4710  -3.8636  -2.6412

     occupation numbers 
     1.0000   1.0000   1.0000   1.0000   1.0000   1.0000   1.0000   1.0000
     1.0000   1.0000   1.0000   1.0000   1.0000

          k = 0.1670 0.5784 0.0000 ( 37335 PWs)   bands (ev):

   -62.9219 -37.2565 -37.0513 -37.0461 -14.2108 -14.1079  -7.5188  -7.2236
    -6.0677  -5.2724  -4.4629  -4.0458  -2.4632

     occupation numbers 
     1.0000   1.0000   1.0000   1.0000   1.0000   1.0000   1.0000   1.0000
     1.0000   1.0000   1.0000   1.0000   1.0000

          k = 0.2505 0.4338 0.0000 ( 37357 PWs)   bands (ev):

   -62.9243 -37.2168 -37.0645 -37.0507 -14.3617 -14.1614  -7.2453  -7.0579
    -5.7098  -5.3834  -5.0330  -3.7816  -2.6692

     occupation numbers 
     1.0000   1.0000   1.0000   1.0000   1.0000   1.0000   1.0000   1.0000
     1.0000   1.0000   1.0000   1.0000   1.0000

          k = 0.2505 0.5302 0.0000 ( 37345 PWs)   bands (ev):

   -62.9206 -37.2215 -37.1032 -37.0435 -14.1401 -14.0617  -7.4041  -7.1217
    -5.9353  -5.3200  -5.1799  -4.1220  -2.3611

     occupation numbers 
     1.0000   1.0000   1.0000   1.0000   1.0000   1.0000   1.0000   1.0000
     1.0000   1.0000   1.0000   1.0000   1.0000

          k = 0.3340 0.5784 0.0000 ( 37311 PWs)   bands (ev):

   -62.9193 -37.1920 -37.1490 -37.0409 -14.0603 -14.0200  -7.5514  -6.7309
    -6.1955  -5.6522  -5.0161  -4.3155  -2.1737

     occupation numbers 
     1.0000   1.0000   1.0000   1.0000   1.0000   1.0000   1.0000   1.0000
     1.0000   1.0000   1.0000   1.0000   1.0000

     highest occupied level (ev):    -2.1737

!    total energy              =    -184.86987268 Ry
     estimated scf accuracy    <          8.7E-10 Ry

     The total energy is the sum of the following terms:
     one-electron contribution =   -1574.30551659 Ry
     hartree contribution      =     786.41936218 Ry
     xc contribution           =     -33.30725654 Ry
     ewald contribution        =     636.32353828 Ry

     convergence has been achieved in  13 iterations


     -----------------------------------------------
     Non-local corr. energy    =       0.30302227 Ry
     -----------------------------------------------


     Forces acting on atoms (cartesian axes, Ry/au):

     atom    1 type  2   force =     0.00000000    0.00000000    0.00000000
     atom    2 type  1   force =     0.00000000    0.00000000   -0.00000306
     atom    3 type  1   force =     0.00000000    0.00000000    0.00000306
     The non-local contrib.  to forces
     atom    1 type  2   force =    -0.00000000    0.00000000    0.00000000
     atom    2 type  1   force =     0.00000000    0.00000000   -0.24681466
     atom    3 type  1   force =     0.00000000   -0.00000000    0.24681466
     The ionic contribution  to forces
     atom    1 type  2   force =     0.00000912   -0.00000527    0.00000000
     atom    2 type  1   force =    -0.00000456    0.00000263   38.32995372
     atom    3 type  1   force =    -0.00000456    0.00000263  -38.32995372
     The local contribution  to forces
     atom    1 type  2   force =     0.00014590   -0.00001203    0.00000000
     atom    2 type  1   force =    -0.00000378    0.00000546  -38.08869831
     atom    3 type  1   force =    -0.00000378    0.00000546   38.08869831
     The core correction contribution to forces
     atom    1 type  2   force =    -0.00000316    0.00000026   -0.00000000
     atom    2 type  1   force =     0.00000050   -0.00000073    0.00552063
     atom    3 type  1   force =     0.00000050   -0.00000073   -0.00552063
     The Hubbard contrib.    to forces
     atom    1 type  2   force =     0.00000000    0.00000000    0.00000000
     atom    2 type  1   force =     0.00000000    0.00000000    0.00000000
     atom    3 type  1   force =     0.00000000    0.00000000    0.00000000
     The SCF correction term to forces
     atom    1 type  2   force =     0.00000000   -0.00000000   -0.00000000
     atom    2 type  1   force =    -0.00000000    0.00000000    0.00003555
     atom    3 type  1   force =    -0.00000000    0.00000000   -0.00003555

     Total force =     0.000004     Total SCF correction =     0.000050
     SCF correction compared to forces is large: reduce conv_thr to get better values


     Computing stress (Cartesian axis) and pressure



     -----------------------------------------------
     Non-local corr. energy    =       0.30302227 Ry
     -----------------------------------------------

          total   stress  (Ry/bohr**3)                   (kbar)     P=        0.02
   0.00000011  -0.00000000   0.00000000            0.02       -0.00        0.00
  -0.00000000   0.00000011  -0.00000000           -0.00        0.02       -0.00
   0.00000000  -0.00000000   0.00000015            0.00       -0.00        0.02

     kinetic stress (kbar)   3933.84      0.00      0.00
                                0.00   3933.84     -0.00
                                0.00     -0.00   3956.41

     local   stress (kbar)-155092.49     -0.00      0.00
                               -0.00-155092.50      0.00
                                0.00      0.00 151426.36

     nonloc. stress (kbar)   3114.03     -0.00      0.00
                               -0.00   3114.03      0.00
                                0.00      0.00   3122.08

     hartree stress (kbar)  75968.69      0.00     -0.00
                                0.00  75968.69     -0.00
                               -0.00     -0.00 -74335.16

     exc-cor stress (kbar)    -70.85      0.00     -0.00
                                0.00    -70.85      0.00
                               -0.00      0.00    -71.63

     corecor stress (kbar)   -875.17     -0.00      0.00
                               -0.00   -875.17     -0.00
                                0.00     -0.00   -876.23

     ewald   stress (kbar)  73013.43      0.00     -0.00
                                0.00  73013.43     -0.00
                               -0.00     -0.00 -83235.79

     hubbard stress (kbar)      0.00      0.00      0.00
                                0.00      0.00      0.00
                                0.00      0.00      0.00

     DFT-D   stress (kbar)      0.00      0.00      0.00
                                0.00      0.00      0.00
                                0.00      0.00      0.00

     XDM     stress (kbar)      0.00      0.00      0.00
                                0.00      0.00      0.00
                                0.00      0.00      0.00

     dft-nl  stress (kbar)      8.54     -0.00      0.00
                               -0.00      8.54      0.00
                                0.00      0.00     13.99

     TS-vdW  stress (kbar)      0.00      0.00      0.00
                                0.00      0.00      0.00
                                0.00      0.00      0.00

     MDB     stress (kbar)      0.00      0.00      0.00
                                0.00      0.00      0.00
                                0.00      0.00      0.00

     3D-RISM stress (kbar)      0.00      0.00      0.00
                                0.00      0.00      0.00
                                0.00      0.00      0.00


     Writing all to output data dir ./tmp/MoS2_1L_pbe_nsoc.save/

     init_run     :     16.96s CPU     16.96s WALL (       2 calls)
     electrons    :    845.04s CPU    782.37s WALL (       9 calls)
     update_pot   :     26.74s CPU     27.13s WALL (       7 calls)
     forces       :     23.10s CPU     22.06s WALL (       9 calls)
     stress       :     67.36s CPU     72.20s WALL (       9 calls)

     Called by init_run:
     wfcinit      :      3.03s CPU      2.88s WALL (       2 calls)
     wfcinit:atom :      0.06s CPU      0.09s WALL (      38 calls)
     wfcinit:wfcr :      2.74s CPU      2.56s WALL (      38 calls)
     potinit      :     10.46s CPU     10.56s WALL (       2 calls)
     hinit0       :      3.31s CPU      3.35s WALL (       2 calls)

     Called by electrons:
     c_bands      :    662.50s CPU    589.78s WALL (     172 calls)
     sum_band     :     98.53s CPU    100.21s WALL (     172 calls)
     v_of_rho     :     90.79s CPU     98.17s WALL (     180 calls)
     v_h          :      1.08s CPU      1.10s WALL (     180 calls)
     v_xc         :     97.74s CPU    105.76s WALL (     198 calls)
     mix_rho      :      4.42s CPU      5.57s WALL (     172 calls)
     vdW_kernel   :      8.08s CPU      8.09s WALL (       1 calls)

     Called by c_bands:
     init_us_2    :     17.83s CPU     18.14s WALL (    6916 calls)
     init_us_2:cp :     17.81s CPU     18.11s WALL (    6916 calls)
     cegterg      :    622.94s CPU    549.44s WALL (    3268 calls)

     Called by sum_band:
     sum_band:wei :      0.00s CPU      0.00s WALL (     172 calls)
     sum_band:loo :     96.45s CPU     98.04s WALL (     172 calls)
     sum_band:buf :      2.72s CPU      2.75s WALL (    3268 calls)
     sum_band:ini :      8.73s CPU      8.86s WALL (    3268 calls)

     Called by *egterg:
     cdiaghg      :      3.13s CPU      3.20s WALL (   14488 calls)
     cegterg:over :     21.68s CPU     22.01s WALL (   11372 calls)
     cegterg:upda :     21.72s CPU     13.45s WALL (   11372 calls)
     cegterg:last :     34.57s CPU     19.93s WALL (    7885 calls)
     h_psi        :    531.52s CPU    479.51s WALL (   14678 calls)
     g_psi        :      2.27s CPU      2.50s WALL (   11372 calls)

     Called by h_psi:
     h_psi:calbec :     70.89s CPU     39.37s WALL (   14678 calls)
     vloc_psi     :    398.71s CPU    405.35s WALL (   14678 calls)
     add_vuspsi   :     57.67s CPU     30.33s WALL (   14678 calls)

     General routines
     calbec       :     75.39s CPU     42.02s WALL (   15533 calls)
     fft          :     44.23s CPU     45.03s WALL (   12320 calls)
     ffts         :      0.58s CPU      0.59s WALL (     172 calls)
     fftw         :    342.42s CPU    347.81s WALL (  287910 calls)

     Parallel routines

     PWSCF        :  16m19.47s CPU  15m21.18s WALL


   This run was terminated on:   6:31: 6  18Apr2024            

=------------------------------------------------------------------------------=
   JOB DONE.
=------------------------------------------------------------------------------=
