
     Program PWSCF v.7.2 starts on 26Mar2024 at 11:13:18 

     This program is part of the open-source Quantum ESPRESSO suite
     for quantum simulation of materials; please cite
         "P. Giannozzi et al., J. Phys.:Condens. Matter 21 395502 (2009);
         "P. Giannozzi et al., J. Phys.:Condens. Matter 29 465901 (2017);
         "P. Giannozzi et al., J. Chem. Phys. 152 154105 (2020);
          URL http://www.quantum-espresso.org", 
     in publications or presentations arising from this work. More details at
     http://www.quantum-espresso.org/quote

     Parallel version (MPI & OpenMP), running on       1 processor cores
     Number of MPI processes:                 1
     Threads/MPI process:                     1

     MPI processes distributed on     1 nodes
     0 MiB available memory on the printing compute node when the environment starts

     Waiting for input...
     Reading input from standard input

     Current dimensions of program PWSCF are:
     Max number of different atomic species (ntypx) = 10
     Max number of k-points (npk) =  40000
     Max angular momentum in pseudopotentials (lmaxx) =  4

     Subspace diagonalization in iterative solution of the eigenvalue problem:
     a serial algorithm will be used


     G-vector sticks info
     --------------------
     sticks:   dense  smooth     PW     G-vecs:    dense   smooth      PW
     Sum         121     121     37                 6307     6307    1307

     Using Slab Decomposition



     bravais-lattice index     =            4
     lattice parameter (alat)  =       4.6350  a.u.
     unit-cell volume          =     517.4056 (a.u.)^3
     number of atoms/cell      =            2
     number of atomic types    =            1
     number of electrons       =         8.00
     number of Kohn-Sham states=            8
     kinetic-energy cutoff     =      20.0000  Ry
     charge density cutoff     =      80.0000  Ry
     scf convergence threshold =      1.0E-06
     mixing beta               =       0.7000
     number of iterations used =            8  plain     mixing
     Exchange-correlation= PZ
                           (   1   1   0   0   0   0   0)

     celldm(1)=   4.635000  celldm(2)=   0.000000  celldm(3)=   6.000000
     celldm(4)=   0.000000  celldm(5)=   0.000000  celldm(6)=   0.000000

     crystal axes: (cart. coord. in units of alat)
               a(1) = (   1.000000   0.000000   0.000000 )  
               a(2) = (  -0.500000   0.866025   0.000000 )  
               a(3) = (   0.000000   0.000000   6.000000 )  

     reciprocal axes: (cart. coord. in units 2 pi/alat)
               b(1) = (  1.000000  0.577350 -0.000000 )  
               b(2) = (  0.000000  1.154701  0.000000 )  
               b(3) = (  0.000000 -0.000000  0.166667 )  


     PseudoPot. # 1 for C  read from file:
     ../../../Pseudo/LDA/C.UPF
     MD5 check sum: 9ef9f0a1c6c947210c7947280cfb54e2
     Pseudo is Norm-conserving + core correction, Zval =  4.0
     Generated using ONCVPSP code by D. R. Hamann
     Using radial grid of 1230 points,  4 beta functions with: 
                l(1) =   0
                l(2) =   0
                l(3) =   1
                l(4) =   1

     atomic species   valence    mass     pseudopotential
        C              4.00    12.01100     C ( 1.00)

     24 Sym. Ops., with inversion, found (12 have fractional translation)


                                    s                        frac. trans.

      isym =  1     identity                                     

 cryst.   s( 1) = (     1          0          0      )
                  (     0          1          0      )
                  (     0          0          1      )

 cart.    s( 1) = (  1.0000000  0.0000000  0.0000000 )
                  (  0.0000000  1.0000000  0.0000000 )
                  (  0.0000000  0.0000000  1.0000000 )


      isym =  2     180 deg rotation - cart. axis [0,0,1]        

 cryst.   s( 2) = (    -1          0          0      )    f =( -0.3333333 )
                  (     0         -1          0      )       (  0.3333333 )
                  (     0          0          1      )       (  0.0000000 )

 cart.    s( 2) = ( -1.0000000  0.0000000  0.0000000 )    f =( -0.5000000 )
                  (  0.0000000 -1.0000000  0.0000000 )       (  0.2886751 )
                  (  0.0000000  0.0000000  1.0000000 )       (  0.0000000 )


      isym =  3     180 deg rotation - cart. axis [0,1,0]        

 cryst.   s( 3) = (    -1          0          0      )
                  (     1          1          0      )
                  (     0          0         -1      )

 cart.    s( 3) = ( -1.0000000  0.0000000  0.0000000 )
                  (  0.0000000  1.0000000  0.0000000 )
                  (  0.0000000  0.0000000 -1.0000000 )


      isym =  4     180 deg rotation - cart. axis [1,0,0]        

 cryst.   s( 4) = (     1          0          0      )    f =( -0.3333333 )
                  (    -1         -1          0      )       (  0.3333333 )
                  (     0          0         -1      )       (  0.0000000 )

 cart.    s( 4) = (  1.0000000  0.0000000  0.0000000 )    f =( -0.5000000 )
                  (  0.0000000 -1.0000000  0.0000000 )       (  0.2886751 )
                  (  0.0000000  0.0000000 -1.0000000 )       (  0.0000000 )


      isym =  5      60 deg rotation - cryst. axis [0,0,1]       

 cryst.   s( 5) = (     1          1          0      )    f =( -0.3333333 )
                  (    -1          0          0      )       (  0.3333333 )
                  (     0          0          1      )       (  0.0000000 )

 cart.    s( 5) = (  0.5000000 -0.8660254  0.0000000 )    f =( -0.5000000 )
                  (  0.8660254  0.5000000  0.0000000 )       (  0.2886751 )
                  (  0.0000000  0.0000000  1.0000000 )       (  0.0000000 )


      isym =  6      60 deg rotation - cryst. axis [0,0,-1]      

 cryst.   s( 6) = (     0         -1          0      )    f =( -0.3333333 )
                  (     1          1          0      )       (  0.3333333 )
                  (     0          0          1      )       (  0.0000000 )

 cart.    s( 6) = (  0.5000000  0.8660254  0.0000000 )    f =( -0.5000000 )
                  ( -0.8660254  0.5000000  0.0000000 )       (  0.2886751 )
                  (  0.0000000  0.0000000  1.0000000 )       (  0.0000000 )


      isym =  7     120 deg rotation - cryst. axis [0,0,1]       

 cryst.   s( 7) = (     0          1          0      )
                  (    -1         -1          0      )
                  (     0          0          1      )

 cart.    s( 7) = ( -0.5000000 -0.8660254  0.0000000 )
                  (  0.8660254 -0.5000000  0.0000000 )
                  (  0.0000000  0.0000000  1.0000000 )


      isym =  8     120 deg rotation - cryst. axis [0,0,-1]      

 cryst.   s( 8) = (    -1         -1          0      )
                  (     1          0          0      )
                  (     0          0          1      )

 cart.    s( 8) = ( -0.5000000  0.8660254  0.0000000 )
                  ( -0.8660254 -0.5000000  0.0000000 )
                  (  0.0000000  0.0000000  1.0000000 )


      isym =  9     180 deg rotation - cryst. axis [1,-1,0]      

 cryst.   s( 9) = (     0         -1          0      )
                  (    -1          0          0      )
                  (     0          0         -1      )

 cart.    s( 9) = (  0.5000000 -0.8660254  0.0000000 )
                  ( -0.8660254 -0.5000000  0.0000000 )
                  (  0.0000000  0.0000000 -1.0000000 )


      isym = 10     180 deg rotation - cryst. axis [2,1,0]       

 cryst.   s(10) = (     1          1          0      )
                  (     0         -1          0      )
                  (     0          0         -1      )

 cart.    s(10) = (  0.5000000  0.8660254  0.0000000 )
                  (  0.8660254 -0.5000000  0.0000000 )
                  (  0.0000000  0.0000000 -1.0000000 )


      isym = 11     180 deg rotation - cryst. axis [0,1,0]       

 cryst.   s(11) = (    -1         -1          0      )    f =( -0.3333333 )
                  (     0          1          0      )       (  0.3333333 )
                  (     0          0         -1      )       (  0.0000000 )

 cart.    s(11) = ( -0.5000000 -0.8660254  0.0000000 )    f =( -0.5000000 )
                  ( -0.8660254  0.5000000  0.0000000 )       (  0.2886751 )
                  (  0.0000000  0.0000000 -1.0000000 )       (  0.0000000 )


      isym = 12     180 deg rotation - cryst. axis [1,1,0]       

 cryst.   s(12) = (     0          1          0      )    f =( -0.3333333 )
                  (     1          0          0      )       (  0.3333333 )
                  (     0          0         -1      )       (  0.0000000 )

 cart.    s(12) = ( -0.5000000  0.8660254  0.0000000 )    f =( -0.5000000 )
                  (  0.8660254  0.5000000  0.0000000 )       (  0.2886751 )
                  (  0.0000000  0.0000000 -1.0000000 )       (  0.0000000 )


      isym = 13     inversion                                    

 cryst.   s(13) = (    -1          0          0      )    f =( -0.3333333 )
                  (     0         -1          0      )       (  0.3333333 )
                  (     0          0         -1      )       (  0.0000000 )

 cart.    s(13) = ( -1.0000000  0.0000000  0.0000000 )    f =( -0.5000000 )
                  (  0.0000000 -1.0000000  0.0000000 )       (  0.2886751 )
                  (  0.0000000  0.0000000 -1.0000000 )       (  0.0000000 )


      isym = 14     inv. 180 deg rotation - cart. axis [0,0,1]   

 cryst.   s(14) = (     1          0          0      )
                  (     0          1          0      )
                  (     0          0         -1      )

 cart.    s(14) = (  1.0000000  0.0000000  0.0000000 )
                  (  0.0000000  1.0000000  0.0000000 )
                  (  0.0000000  0.0000000 -1.0000000 )


      isym = 15     inv. 180 deg rotation - cart. axis [0,1,0]   

 cryst.   s(15) = (     1          0          0      )    f =( -0.3333333 )
                  (    -1         -1          0      )       (  0.3333333 )
                  (     0          0          1      )       (  0.0000000 )

 cart.    s(15) = (  1.0000000  0.0000000  0.0000000 )    f =( -0.5000000 )
                  (  0.0000000 -1.0000000  0.0000000 )       (  0.2886751 )
                  (  0.0000000  0.0000000  1.0000000 )       (  0.0000000 )


      isym = 16     inv. 180 deg rotation - cart. axis [1,0,0]   

 cryst.   s(16) = (    -1          0          0      )
                  (     1          1          0      )
                  (     0          0          1      )

 cart.    s(16) = ( -1.0000000  0.0000000  0.0000000 )
                  (  0.0000000  1.0000000  0.0000000 )
                  (  0.0000000  0.0000000  1.0000000 )


      isym = 17     inv.  60 deg rotation - cryst. axis [0,0,1]  

 cryst.   s(17) = (    -1         -1          0      )
                  (     1          0          0      )
                  (     0          0         -1      )

 cart.    s(17) = ( -0.5000000  0.8660254  0.0000000 )
                  ( -0.8660254 -0.5000000  0.0000000 )
                  (  0.0000000  0.0000000 -1.0000000 )


      isym = 18     inv.  60 deg rotation - cryst. axis [0,0,-1] 

 cryst.   s(18) = (     0          1          0      )
                  (    -1         -1          0      )
                  (     0          0         -1      )

 cart.    s(18) = ( -0.5000000 -0.8660254  0.0000000 )
                  (  0.8660254 -0.5000000  0.0000000 )
                  (  0.0000000  0.0000000 -1.0000000 )


      isym = 19     inv. 120 deg rotation - cryst. axis [0,0,1]  

 cryst.   s(19) = (     0         -1          0      )    f =( -0.3333333 )
                  (     1          1          0      )       (  0.3333333 )
                  (     0          0         -1      )       (  0.0000000 )

 cart.    s(19) = (  0.5000000  0.8660254  0.0000000 )    f =( -0.5000000 )
                  ( -0.8660254  0.5000000  0.0000000 )       (  0.2886751 )
                  (  0.0000000  0.0000000 -1.0000000 )       (  0.0000000 )


      isym = 20     inv. 120 deg rotation - cryst. axis [0,0,-1] 

 cryst.   s(20) = (     1          1          0      )    f =( -0.3333333 )
                  (    -1          0          0      )       (  0.3333333 )
                  (     0          0         -1      )       (  0.0000000 )

 cart.    s(20) = (  0.5000000 -0.8660254  0.0000000 )    f =( -0.5000000 )
                  (  0.8660254  0.5000000  0.0000000 )       (  0.2886751 )
                  (  0.0000000  0.0000000 -1.0000000 )       (  0.0000000 )


      isym = 21     inv. 180 deg rotation - cryst. axis [1,-1,0] 

 cryst.   s(21) = (     0          1          0      )    f =( -0.3333333 )
                  (     1          0          0      )       (  0.3333333 )
                  (     0          0          1      )       (  0.0000000 )

 cart.    s(21) = ( -0.5000000  0.8660254  0.0000000 )    f =( -0.5000000 )
                  (  0.8660254  0.5000000  0.0000000 )       (  0.2886751 )
                  (  0.0000000  0.0000000  1.0000000 )       (  0.0000000 )


      isym = 22     inv. 180 deg rotation - cryst. axis [2,1,0]  

 cryst.   s(22) = (    -1         -1          0      )    f =( -0.3333333 )
                  (     0          1          0      )       (  0.3333333 )
                  (     0          0          1      )       (  0.0000000 )

 cart.    s(22) = ( -0.5000000 -0.8660254  0.0000000 )    f =( -0.5000000 )
                  ( -0.8660254  0.5000000  0.0000000 )       (  0.2886751 )
                  (  0.0000000  0.0000000  1.0000000 )       (  0.0000000 )


      isym = 23     inv. 180 deg rotation - cryst. axis [0,1,0]  

 cryst.   s(23) = (     1          1          0      )
                  (     0         -1          0      )
                  (     0          0          1      )

 cart.    s(23) = (  0.5000000  0.8660254  0.0000000 )
                  (  0.8660254 -0.5000000  0.0000000 )
                  (  0.0000000  0.0000000  1.0000000 )


      isym = 24     inv. 180 deg rotation - cryst. axis [1,1,0]  

 cryst.   s(24) = (     0         -1          0      )
                  (    -1          0          0      )
                  (     0          0          1      )

 cart.    s(24) = (  0.5000000 -0.8660254  0.0000000 )
                  ( -0.8660254 -0.5000000  0.0000000 )
                  (  0.0000000  0.0000000  1.0000000 )


     point group D_6h(6/mmm)
     there are 12 classes
     the character table:

       E     2C6   2C3   C2    3C2'  3C2'' i     2S3   2S6   s_h   3s_d  3s_v 
A_1g   1.00  1.00  1.00  1.00  1.00  1.00  1.00  1.00  1.00  1.00  1.00  1.00
A_2g   1.00  1.00  1.00  1.00 -1.00 -1.00  1.00  1.00  1.00  1.00 -1.00 -1.00
B_1g   1.00 -1.00  1.00 -1.00  1.00 -1.00  1.00 -1.00  1.00 -1.00  1.00 -1.00
B_2g   1.00 -1.00  1.00 -1.00 -1.00  1.00  1.00 -1.00  1.00 -1.00 -1.00  1.00
E_1g   2.00  1.00 -1.00 -2.00  0.00  0.00  2.00  1.00 -1.00 -2.00  0.00  0.00
E_2g   2.00 -1.00 -1.00  2.00  0.00  0.00  2.00 -1.00 -1.00  2.00  0.00  0.00
A_1u   1.00  1.00  1.00  1.00  1.00  1.00 -1.00 -1.00 -1.00 -1.00 -1.00 -1.00
A_2u   1.00  1.00  1.00  1.00 -1.00 -1.00 -1.00 -1.00 -1.00 -1.00  1.00  1.00
B_1u   1.00 -1.00  1.00 -1.00  1.00 -1.00 -1.00  1.00 -1.00  1.00 -1.00  1.00
B_2u   1.00 -1.00  1.00 -1.00 -1.00  1.00 -1.00  1.00 -1.00  1.00  1.00 -1.00
E_1u   2.00  1.00 -1.00 -2.00  0.00  0.00 -2.00 -1.00  1.00  2.00  0.00  0.00
E_2u   2.00 -1.00 -1.00  2.00  0.00  0.00 -2.00  1.00  1.00 -2.00  0.00  0.00

     the symmetry operations in each class and the name of the first element:

     E        1
          identity                                               
     2C6      5    6
           60 deg rotation - cryst. axis [0,0,1]                 
     2C3      7    8
          120 deg rotation - cryst. axis [0,0,1]                 
     C2       2
          180 deg rotation - cart. axis [0,0,1]                  
     3C2'     4   12   11
          180 deg rotation - cart. axis [1,0,0]                  
     3C2''    3    9   10
          180 deg rotation - cart. axis [0,1,0]                  
     i       13
          inversion                                              
     2S3     17   18
          inv.  60 deg rotation - cryst. axis [0,0,1]            
     2S6     19   20
          inv. 120 deg rotation - cryst. axis [0,0,1]            
     s_h     14
          inv. 180 deg rotation - cart. axis [0,0,1]             
     3s_d    16   24   23
          inv. 180 deg rotation - cart. axis [1,0,0]             
     3s_v    15   21   22
          inv. 180 deg rotation - cart. axis [0,1,0]             

   Cartesian axes

     site n.     atom                  positions (alat units)
         1           C   tau(   1) = (   0.0000000   0.0000000   0.0000000  )
         2           C   tau(   2) = (  -0.0000000   0.5773503   0.0000000  )

   Crystallographic axes

     site n.     atom                  positions (cryst. coord.)
         1           C   tau(   1) = (  0.0000000  0.0000000  0.0000000  )
         2           C   tau(   2) = (  0.3333333  0.6666667  0.0000000  )

     number of k points=   102  Marzari-Vanderbilt smearing, width (Ry)=  0.0100
                       cart. coord. in units 2pi/alat
        k(    1) = (   0.0000000   0.0000000   0.0000000), wk =   0.0019531
        k(    2) = (   0.0000000   0.0360844   0.0000000), wk =   0.0117188
        k(    3) = (   0.0000000   0.0721688   0.0000000), wk =   0.0117188
        k(    4) = (   0.0000000   0.1082532   0.0000000), wk =   0.0117188
        k(    5) = (   0.0000000   0.1443376   0.0000000), wk =   0.0117188
        k(    6) = (   0.0000000   0.1804220   0.0000000), wk =   0.0117188
        k(    7) = (   0.0000000   0.2165064   0.0000000), wk =   0.0117188
        k(    8) = (   0.0000000   0.2525907   0.0000000), wk =   0.0117188
        k(    9) = (   0.0000000   0.2886751   0.0000000), wk =   0.0117188
        k(   10) = (   0.0000000   0.3247595   0.0000000), wk =   0.0117188
        k(   11) = (   0.0000000   0.3608439   0.0000000), wk =   0.0117188
        k(   12) = (   0.0000000   0.3969283   0.0000000), wk =   0.0117188
        k(   13) = (   0.0000000   0.4330127   0.0000000), wk =   0.0117188
        k(   14) = (   0.0000000   0.4690971   0.0000000), wk =   0.0117188
        k(   15) = (   0.0000000   0.5051815   0.0000000), wk =   0.0117188
        k(   16) = (   0.0000000   0.5412659   0.0000000), wk =   0.0117188
        k(   17) = (   0.0000000  -0.5773503   0.0000000), wk =   0.0058594
        k(   18) = (   0.0312500   0.0541266   0.0000000), wk =   0.0117188
        k(   19) = (   0.0312500   0.0902110   0.0000000), wk =   0.0234375
        k(   20) = (   0.0312500   0.1262954   0.0000000), wk =   0.0234375
        k(   21) = (   0.0312500   0.1623798   0.0000000), wk =   0.0234375
        k(   22) = (   0.0312500   0.1984642   0.0000000), wk =   0.0234375
        k(   23) = (   0.0312500   0.2345485   0.0000000), wk =   0.0234375
        k(   24) = (   0.0312500   0.2706329   0.0000000), wk =   0.0234375
        k(   25) = (   0.0312500   0.3067173   0.0000000), wk =   0.0234375
        k(   26) = (   0.0312500   0.3428017   0.0000000), wk =   0.0234375
        k(   27) = (   0.0312500   0.3788861   0.0000000), wk =   0.0234375
        k(   28) = (   0.0312500   0.4149705   0.0000000), wk =   0.0234375
        k(   29) = (   0.0312500   0.4510549   0.0000000), wk =   0.0234375
        k(   30) = (   0.0312500   0.4871393   0.0000000), wk =   0.0234375
        k(   31) = (   0.0312500   0.5232237   0.0000000), wk =   0.0234375
        k(   32) = (   0.0312500   0.5593081   0.0000000), wk =   0.0234375
        k(   33) = (   0.0625000   0.1082532   0.0000000), wk =   0.0117188
        k(   34) = (   0.0625000   0.1443376   0.0000000), wk =   0.0234375
        k(   35) = (   0.0625000   0.1804220   0.0000000), wk =   0.0234375
        k(   36) = (   0.0625000   0.2165064   0.0000000), wk =   0.0234375
        k(   37) = (   0.0625000   0.2525907   0.0000000), wk =   0.0234375
        k(   38) = (   0.0625000   0.2886751   0.0000000), wk =   0.0234375
        k(   39) = (   0.0625000   0.3247595   0.0000000), wk =   0.0234375
        k(   40) = (   0.0625000   0.3608439   0.0000000), wk =   0.0234375
        k(   41) = (   0.0625000   0.3969283   0.0000000), wk =   0.0234375
        k(   42) = (   0.0625000   0.4330127   0.0000000), wk =   0.0234375
        k(   43) = (   0.0625000   0.4690971   0.0000000), wk =   0.0234375
        k(   44) = (   0.0625000   0.5051815   0.0000000), wk =   0.0234375
        k(   45) = (   0.0625000   0.5412659   0.0000000), wk =   0.0234375
        k(   46) = (   0.0625000   0.5773503   0.0000000), wk =   0.0117188
        k(   47) = (   0.0937500   0.1623798   0.0000000), wk =   0.0117188
        k(   48) = (   0.0937500   0.1984642   0.0000000), wk =   0.0234375
        k(   49) = (   0.0937500   0.2345485   0.0000000), wk =   0.0234375
        k(   50) = (   0.0937500   0.2706329   0.0000000), wk =   0.0234375
        k(   51) = (   0.0937500   0.3067173   0.0000000), wk =   0.0234375
        k(   52) = (   0.0937500   0.3428017   0.0000000), wk =   0.0234375
        k(   53) = (   0.0937500   0.3788861   0.0000000), wk =   0.0234375
        k(   54) = (   0.0937500   0.4149705   0.0000000), wk =   0.0234375
        k(   55) = (   0.0937500   0.4510549   0.0000000), wk =   0.0234375
        k(   56) = (   0.0937500   0.4871393   0.0000000), wk =   0.0234375
        k(   57) = (   0.0937500   0.5232237   0.0000000), wk =   0.0234375
        k(   58) = (   0.0937500   0.5593081   0.0000000), wk =   0.0234375
        k(   59) = (   0.1250000   0.2165064   0.0000000), wk =   0.0117188
        k(   60) = (   0.1250000   0.2525907   0.0000000), wk =   0.0234375
        k(   61) = (   0.1250000   0.2886751   0.0000000), wk =   0.0234375
        k(   62) = (   0.1250000   0.3247595   0.0000000), wk =   0.0234375
        k(   63) = (   0.1250000   0.3608439   0.0000000), wk =   0.0234375
        k(   64) = (   0.1250000   0.3969283   0.0000000), wk =   0.0234375
        k(   65) = (   0.1250000   0.4330127   0.0000000), wk =   0.0234375
        k(   66) = (   0.1250000   0.4690971   0.0000000), wk =   0.0234375
        k(   67) = (   0.1250000   0.5051815   0.0000000), wk =   0.0234375
        k(   68) = (   0.1250000   0.5412659   0.0000000), wk =   0.0234375
        k(   69) = (   0.1250000   0.5773503   0.0000000), wk =   0.0117188
        k(   70) = (   0.1562500   0.2706329   0.0000000), wk =   0.0117188
        k(   71) = (   0.1562500   0.3067173   0.0000000), wk =   0.0234375
        k(   72) = (   0.1562500   0.3428017   0.0000000), wk =   0.0234375
        k(   73) = (   0.1562500   0.3788861   0.0000000), wk =   0.0234375
        k(   74) = (   0.1562500   0.4149705   0.0000000), wk =   0.0234375
        k(   75) = (   0.1562500   0.4510549   0.0000000), wk =   0.0234375
        k(   76) = (   0.1562500   0.4871393   0.0000000), wk =   0.0234375
        k(   77) = (   0.1562500   0.5232237   0.0000000), wk =   0.0234375
        k(   78) = (   0.1562500   0.5593081   0.0000000), wk =   0.0234375
        k(   79) = (   0.1875000   0.3247595   0.0000000), wk =   0.0117188
        k(   80) = (   0.1875000   0.3608439   0.0000000), wk =   0.0234375
        k(   81) = (   0.1875000   0.3969283   0.0000000), wk =   0.0234375
        k(   82) = (   0.1875000   0.4330127   0.0000000), wk =   0.0234375
        k(   83) = (   0.1875000   0.4690971   0.0000000), wk =   0.0234375
        k(   84) = (   0.1875000   0.5051815   0.0000000), wk =   0.0234375
        k(   85) = (   0.1875000   0.5412659   0.0000000), wk =   0.0234375
        k(   86) = (   0.1875000   0.5773503   0.0000000), wk =   0.0117188
        k(   87) = (   0.2187500   0.3788861   0.0000000), wk =   0.0117188
        k(   88) = (   0.2187500   0.4149705   0.0000000), wk =   0.0234375
        k(   89) = (   0.2187500   0.4510549   0.0000000), wk =   0.0234375
        k(   90) = (   0.2187500   0.4871393   0.0000000), wk =   0.0234375
        k(   91) = (   0.2187500   0.5232237   0.0000000), wk =   0.0234375
        k(   92) = (   0.2187500   0.5593081   0.0000000), wk =   0.0234375
        k(   93) = (   0.2500000   0.4330127   0.0000000), wk =   0.0117188
        k(   94) = (   0.2500000   0.4690971   0.0000000), wk =   0.0234375
        k(   95) = (   0.2500000   0.5051815   0.0000000), wk =   0.0234375
        k(   96) = (   0.2500000   0.5412659   0.0000000), wk =   0.0234375
        k(   97) = (   0.2500000   0.5773503   0.0000000), wk =   0.0117188
        k(   98) = (   0.2812500   0.4871393   0.0000000), wk =   0.0117188
        k(   99) = (   0.2812500   0.5232237   0.0000000), wk =   0.0234375
        k(  100) = (   0.2812500   0.5593081   0.0000000), wk =   0.0234375
        k(  101) = (   0.3125000   0.5412659   0.0000000), wk =   0.0117188
        k(  102) = (   0.3125000   0.5773503   0.0000000), wk =   0.0117188

                       cryst. coord.
        k(    1) = (   0.0000000   0.0000000   0.0000000), wk =   0.0019531
        k(    2) = (   0.0000000   0.0312500   0.0000000), wk =   0.0117188
        k(    3) = (   0.0000000   0.0625000   0.0000000), wk =   0.0117188
        k(    4) = (   0.0000000   0.0937500   0.0000000), wk =   0.0117188
        k(    5) = (   0.0000000   0.1250000   0.0000000), wk =   0.0117188
        k(    6) = (   0.0000000   0.1562500   0.0000000), wk =   0.0117188
        k(    7) = (   0.0000000   0.1875000   0.0000000), wk =   0.0117188
        k(    8) = (   0.0000000   0.2187500   0.0000000), wk =   0.0117188
        k(    9) = (   0.0000000   0.2500000   0.0000000), wk =   0.0117188
        k(   10) = (   0.0000000   0.2812500   0.0000000), wk =   0.0117188
        k(   11) = (   0.0000000   0.3125000   0.0000000), wk =   0.0117188
        k(   12) = (   0.0000000   0.3437500   0.0000000), wk =   0.0117188
        k(   13) = (   0.0000000   0.3750000   0.0000000), wk =   0.0117188
        k(   14) = (   0.0000000   0.4062500   0.0000000), wk =   0.0117188
        k(   15) = (   0.0000000   0.4375000   0.0000000), wk =   0.0117188
        k(   16) = (   0.0000000   0.4687500   0.0000000), wk =   0.0117188
        k(   17) = (   0.0000000  -0.5000000   0.0000000), wk =   0.0058594
        k(   18) = (   0.0312500   0.0312500   0.0000000), wk =   0.0117188
        k(   19) = (   0.0312500   0.0625000   0.0000000), wk =   0.0234375
        k(   20) = (   0.0312500   0.0937500   0.0000000), wk =   0.0234375
        k(   21) = (   0.0312500   0.1250000   0.0000000), wk =   0.0234375
        k(   22) = (   0.0312500   0.1562500   0.0000000), wk =   0.0234375
        k(   23) = (   0.0312500   0.1875000   0.0000000), wk =   0.0234375
        k(   24) = (   0.0312500   0.2187500   0.0000000), wk =   0.0234375
        k(   25) = (   0.0312500   0.2500000   0.0000000), wk =   0.0234375
        k(   26) = (   0.0312500   0.2812500   0.0000000), wk =   0.0234375
        k(   27) = (   0.0312500   0.3125000   0.0000000), wk =   0.0234375
        k(   28) = (   0.0312500   0.3437500   0.0000000), wk =   0.0234375
        k(   29) = (   0.0312500   0.3750000   0.0000000), wk =   0.0234375
        k(   30) = (   0.0312500   0.4062500   0.0000000), wk =   0.0234375
        k(   31) = (   0.0312500   0.4375000   0.0000000), wk =   0.0234375
        k(   32) = (   0.0312500   0.4687500   0.0000000), wk =   0.0234375
        k(   33) = (   0.0625000   0.0625000   0.0000000), wk =   0.0117188
        k(   34) = (   0.0625000   0.0937500   0.0000000), wk =   0.0234375
        k(   35) = (   0.0625000   0.1250000   0.0000000), wk =   0.0234375
        k(   36) = (   0.0625000   0.1562500   0.0000000), wk =   0.0234375
        k(   37) = (   0.0625000   0.1875000   0.0000000), wk =   0.0234375
        k(   38) = (   0.0625000   0.2187500   0.0000000), wk =   0.0234375
        k(   39) = (   0.0625000   0.2500000   0.0000000), wk =   0.0234375
        k(   40) = (   0.0625000   0.2812500   0.0000000), wk =   0.0234375
        k(   41) = (   0.0625000   0.3125000   0.0000000), wk =   0.0234375
        k(   42) = (   0.0625000   0.3437500   0.0000000), wk =   0.0234375
        k(   43) = (   0.0625000   0.3750000   0.0000000), wk =   0.0234375
        k(   44) = (   0.0625000   0.4062500   0.0000000), wk =   0.0234375
        k(   45) = (   0.0625000   0.4375000   0.0000000), wk =   0.0234375
        k(   46) = (   0.0625000   0.4687500   0.0000000), wk =   0.0117188
        k(   47) = (   0.0937500   0.0937500   0.0000000), wk =   0.0117188
        k(   48) = (   0.0937500   0.1250000   0.0000000), wk =   0.0234375
        k(   49) = (   0.0937500   0.1562500   0.0000000), wk =   0.0234375
        k(   50) = (   0.0937500   0.1875000   0.0000000), wk =   0.0234375
        k(   51) = (   0.0937500   0.2187500   0.0000000), wk =   0.0234375
        k(   52) = (   0.0937500   0.2500000   0.0000000), wk =   0.0234375
        k(   53) = (   0.0937500   0.2812500   0.0000000), wk =   0.0234375
        k(   54) = (   0.0937500   0.3125000   0.0000000), wk =   0.0234375
        k(   55) = (   0.0937500   0.3437500   0.0000000), wk =   0.0234375
        k(   56) = (   0.0937500   0.3750000   0.0000000), wk =   0.0234375
        k(   57) = (   0.0937500   0.4062500   0.0000000), wk =   0.0234375
        k(   58) = (   0.0937500   0.4375000   0.0000000), wk =   0.0234375
        k(   59) = (   0.1250000   0.1250000   0.0000000), wk =   0.0117188
        k(   60) = (   0.1250000   0.1562500   0.0000000), wk =   0.0234375
        k(   61) = (   0.1250000   0.1875000   0.0000000), wk =   0.0234375
        k(   62) = (   0.1250000   0.2187500   0.0000000), wk =   0.0234375
        k(   63) = (   0.1250000   0.2500000   0.0000000), wk =   0.0234375
        k(   64) = (   0.1250000   0.2812500   0.0000000), wk =   0.0234375
        k(   65) = (   0.1250000   0.3125000   0.0000000), wk =   0.0234375
        k(   66) = (   0.1250000   0.3437500   0.0000000), wk =   0.0234375
        k(   67) = (   0.1250000   0.3750000   0.0000000), wk =   0.0234375
        k(   68) = (   0.1250000   0.4062500   0.0000000), wk =   0.0234375
        k(   69) = (   0.1250000   0.4375000   0.0000000), wk =   0.0117188
        k(   70) = (   0.1562500   0.1562500   0.0000000), wk =   0.0117188
        k(   71) = (   0.1562500   0.1875000   0.0000000), wk =   0.0234375
        k(   72) = (   0.1562500   0.2187500   0.0000000), wk =   0.0234375
        k(   73) = (   0.1562500   0.2500000   0.0000000), wk =   0.0234375
        k(   74) = (   0.1562500   0.2812500   0.0000000), wk =   0.0234375
        k(   75) = (   0.1562500   0.3125000   0.0000000), wk =   0.0234375
        k(   76) = (   0.1562500   0.3437500   0.0000000), wk =   0.0234375
        k(   77) = (   0.1562500   0.3750000   0.0000000), wk =   0.0234375
        k(   78) = (   0.1562500   0.4062500   0.0000000), wk =   0.0234375
        k(   79) = (   0.1875000   0.1875000   0.0000000), wk =   0.0117188
        k(   80) = (   0.1875000   0.2187500   0.0000000), wk =   0.0234375
        k(   81) = (   0.1875000   0.2500000   0.0000000), wk =   0.0234375
        k(   82) = (   0.1875000   0.2812500   0.0000000), wk =   0.0234375
        k(   83) = (   0.1875000   0.3125000   0.0000000), wk =   0.0234375
        k(   84) = (   0.1875000   0.3437500   0.0000000), wk =   0.0234375
        k(   85) = (   0.1875000   0.3750000   0.0000000), wk =   0.0234375
        k(   86) = (   0.1875000   0.4062500   0.0000000), wk =   0.0117188
        k(   87) = (   0.2187500   0.2187500   0.0000000), wk =   0.0117188
        k(   88) = (   0.2187500   0.2500000   0.0000000), wk =   0.0234375
        k(   89) = (   0.2187500   0.2812500   0.0000000), wk =   0.0234375
        k(   90) = (   0.2187500   0.3125000   0.0000000), wk =   0.0234375
        k(   91) = (   0.2187500   0.3437500   0.0000000), wk =   0.0234375
        k(   92) = (   0.2187500   0.3750000   0.0000000), wk =   0.0234375
        k(   93) = (   0.2500000   0.2500000   0.0000000), wk =   0.0117188
        k(   94) = (   0.2500000   0.2812500   0.0000000), wk =   0.0234375
        k(   95) = (   0.2500000   0.3125000   0.0000000), wk =   0.0234375
        k(   96) = (   0.2500000   0.3437500   0.0000000), wk =   0.0234375
        k(   97) = (   0.2500000   0.3750000   0.0000000), wk =   0.0117188
        k(   98) = (   0.2812500   0.2812500   0.0000000), wk =   0.0117188
        k(   99) = (   0.2812500   0.3125000   0.0000000), wk =   0.0234375
        k(  100) = (   0.2812500   0.3437500   0.0000000), wk =   0.0234375
        k(  101) = (   0.3125000   0.3125000   0.0000000), wk =   0.0117188
        k(  102) = (   0.3125000   0.3437500   0.0000000), wk =   0.0117188

     Dense  grid:     6307 G-vectors     FFT dimensions: (  15,  15,  80)

     Dynamical RAM for                 wfc:       0.10 MB

     Dynamical RAM for     wfc (w. buffer):       9.82 MB

     Dynamical RAM for           str. fact:       0.10 MB

     Dynamical RAM for           local pot:       0.00 MB

     Dynamical RAM for          nlocal pot:       0.19 MB

     Dynamical RAM for                qrad:       0.21 MB

     Dynamical RAM for          rho,v,vnew:       0.70 MB

     Dynamical RAM for               rhoin:       0.23 MB

     Dynamical RAM for            rho*nmix:       1.54 MB

     Dynamical RAM for           G-vectors:       0.41 MB

     Dynamical RAM for          h,s,v(r/c):       0.01 MB

     Dynamical RAM for          <psi|beta>:       0.00 MB

     Dynamical RAM for                 psi:       0.19 MB

     Dynamical RAM for                hpsi:       0.19 MB

     Dynamical RAM for      wfcinit/wfcrot:       0.19 MB

     Estimated static dynamical RAM per process >      12.53 MB

     Estimated max dynamical RAM per process >      14.47 MB

     Check: negative core charge=   -0.000072

     Initial potential from superposition of free atoms

     starting charge       7.9999, renormalised to       8.0000

     negative rho (up, down):  9.135E-03 0.000E+00
     Starting wfcs are    8 randomized atomic wfcs

     total cpu time spent up to now is        0.6 secs

     Self-consistent Calculation

     iteration #  1     ecut=    20.00 Ry     beta= 0.70
     Davidson diagonalization with overlap

---- Real-time Memory Report at c_bands before calling an iterative solver
             0 MiB given to the printing process from OS
             0 MiB allocation reported by mallinfo(arena+hblkhd)
             0 MiB available memory on the node where the printing process lives
------------------
     ethr =  1.00E-02,  avg # of iterations =  7.0

     negative rho (up, down):  2.411E-03 0.000E+00

     total cpu time spent up to now is        1.4 secs

     WARNING: integrated charge=     8.00005867, expected=     8.00000000

     total energy              =     -23.40081312 Ry
     estimated scf accuracy    <       0.12323619 Ry

     iteration #  2     ecut=    20.00 Ry     beta= 0.70
     Davidson diagonalization with overlap

---- Real-time Memory Report at c_bands before calling an iterative solver
             0 MiB given to the printing process from OS
             0 MiB allocation reported by mallinfo(arena+hblkhd)
             0 MiB available memory on the node where the printing process lives
------------------
     ethr =  1.54E-03,  avg # of iterations =  3.5

     negative rho (up, down):  3.530E-04 0.000E+00

     total cpu time spent up to now is        1.9 secs

     WARNING: integrated charge=     8.00007240, expected=     8.00000000

     total energy              =     -23.41232005 Ry
     estimated scf accuracy    <       0.00394190 Ry

     iteration #  3     ecut=    20.00 Ry     beta= 0.70
     Davidson diagonalization with overlap

---- Real-time Memory Report at c_bands before calling an iterative solver
             0 MiB given to the printing process from OS
             0 MiB allocation reported by mallinfo(arena+hblkhd)
             0 MiB available memory on the node where the printing process lives
------------------
     c_bands:  1 eigenvalues not converged
     ethr =  4.93E-05,  avg # of iterations =  8.0

     total cpu time spent up to now is        2.8 secs

     WARNING: integrated charge=     8.00007871, expected=     8.00000000

     total energy              =     -23.41245588 Ry
     estimated scf accuracy    <       0.00017959 Ry

     iteration #  4     ecut=    20.00 Ry     beta= 0.70
     Davidson diagonalization with overlap

---- Real-time Memory Report at c_bands before calling an iterative solver
             0 MiB given to the printing process from OS
             0 MiB allocation reported by mallinfo(arena+hblkhd)
             0 MiB available memory on the node where the printing process lives
------------------
     c_bands:  1 eigenvalues not converged
     c_bands:  1 eigenvalues not converged
     c_bands:  1 eigenvalues not converged
     c_bands:  1 eigenvalues not converged
     c_bands:  1 eigenvalues not converged
     c_bands:  1 eigenvalues not converged
     c_bands:  1 eigenvalues not converged
     c_bands:  1 eigenvalues not converged
     c_bands:  1 eigenvalues not converged
     ethr =  2.24E-06,  avg # of iterations =  8.0

     total cpu time spent up to now is        3.5 secs

     End of self-consistent calculation

          k = 0.0000 0.0000 0.0000 (   801 PWs)   bands (ev):

   -21.8714  -9.6354  -4.6229  -4.6229   1.0368   1.8858   2.0410   4.2479

     occupation numbers 
     1.0000   1.0000   1.0000   1.0000   0.0000   0.0000   0.0000   0.0000

          k = 0.0000 0.0361 0.0000 (   795 PWs)   bands (ev):

   -21.8424  -9.6035  -4.6706  -4.6606   1.0691   1.9182   2.0733   4.2801

     occupation numbers 
     1.0000   1.0000   1.0000   1.0000   0.0000   0.0000   0.0000   0.0000

          k = 0.0000 0.0722 0.0000 (   799 PWs)   bands (ev):

   -21.7780  -9.5361  -4.9950  -4.8129   1.1651   2.0136   2.1694   4.3724

     occupation numbers 
     1.0000   1.0000   1.0000   1.0000   0.0000   0.0000   0.0000   0.0000

          k = 0.0000 0.1083 0.0000 (   795 PWs)   bands (ev):

   -21.6504  -9.3919  -5.4359  -5.0476   1.3257   2.1747   2.3302   4.5310

     occupation numbers 
     1.0000   1.0000   1.0000   1.0000   0.0000   0.0000   0.0000   0.0000

          k = 0.0000 0.1443 0.0000 (   795 PWs)   bands (ev):

   -21.4754  -9.1924  -6.0626  -5.3319   1.5505   2.4001   2.5553   4.7522

     occupation numbers 
     1.0000   1.0000   1.0000   1.0000   0.0000   0.0000   0.0000   0.0000

          k = 0.0000 0.1804 0.0000 (   786 PWs)   bands (ev):

   -21.2553  -8.9145  -6.6901  -5.6483   1.8387   2.6909   2.8442   5.0389

     occupation numbers 
     1.0000   1.0000   1.0000   1.0000   0.0000   0.0000   0.0000   0.0000

          k = 0.0000 0.2165 0.0000 (   786 PWs)   bands (ev):

   -20.9999  -8.6031  -7.4853  -6.0021   2.1903   3.0443   3.1963   5.3833

     occupation numbers 
     1.0000   1.0000   1.0000   1.0000   0.0000   0.0000   0.0000   0.0000

          k = 0.0000 0.2526 0.0000 (   784 PWs)   bands (ev):

   -20.6949  -8.2715  -8.2416  -6.4025   2.6061   3.4604   3.6131   5.7801

     occupation numbers 
     1.0000   1.0000   1.0000   1.0000   0.0000   0.0000   0.0000   0.0000

          k = 0.0000 0.2887 0.0000 (   780 PWs)   bands (ev):

   -20.3409  -9.1057  -7.8270  -6.7578   3.0855   3.9372   4.0936   6.0949

     occupation numbers 
     1.0000   1.0000   1.0000   1.0000   0.0000   0.0000   0.0000   0.0000

          k = 0.0000 0.3248 0.0000 (   770 PWs)   bands (ev):

   -19.9360  -9.9039  -7.3601  -7.0533   3.6286   4.4562   4.6382   5.3532

     occupation numbers 
     1.0000   1.0000   1.0000   1.0000   0.0000   0.0000   0.0000   0.0000

          k = 0.0000 0.3608 0.0000 (   776 PWs)   bands (ev):

   -19.4890 -10.8355  -7.3354  -6.8548   4.2344   4.2536   5.1589   5.2451

     occupation numbers 
     1.0000   1.0000   1.0000   1.0000   0.0000   0.0000   0.0000   0.0000

          k = 0.0000 0.3969 0.0000 (   776 PWs)   bands (ev):

   -19.0272 -11.7142  -7.5774  -6.3050   3.3411   4.9006   5.8018   5.8879

     occupation numbers 
     1.0000   1.0000   1.0000   1.0000   0.0000   0.0000   0.0000   0.0000

          k = 0.0000 0.4330 0.0000 (   784 PWs)   bands (ev):

   -18.5009 -12.6056  -7.8290  -5.7358   2.4050   5.6194   5.8688   6.5306

     occupation numbers 
     1.0000   1.0000   1.0000   1.0000   0.0000   0.0000   0.0000   0.0000

          k = 0.0000 0.4691 0.0000 (   792 PWs)   bands (ev):

   -17.9525 -13.4479  -8.0112  -5.1680   1.5310   5.7163   6.4327   7.3265

     occupation numbers 
     1.0000   1.0000   1.0000   1.0000   0.0000   0.0000   0.0000   0.0000

          k = 0.0000 0.5052 0.0000 (   792 PWs)   bands (ev):

   -17.3337 -14.2624  -8.1318  -4.6332   0.7891   5.6323   7.2845   8.1851

     occupation numbers 
     1.0000   1.0000   1.0000   1.0000   0.0000   0.0000   0.0000   0.0000

          k = 0.0000 0.5413 0.0000 (   790 PWs)   bands (ev):

   -16.7483 -14.9588  -8.2026  -4.2188   0.2670   5.5906   8.1945   9.0998

     occupation numbers 
     1.0000   1.0000   1.0000   1.0000   0.0000   0.0000   0.0000   0.0000

          k = 0.0000-0.5774 0.0000 (   782 PWs)   bands (ev):

   -16.3658 -15.3677  -8.2007  -4.0360   0.0800   5.5986   9.1356   9.1953

     occupation numbers 
     1.0000   1.0000   1.0000   1.0000   0.0000   0.0000   0.0000   0.0000

          k = 0.0312 0.0541 0.0000 (   799 PWs)   bands (ev):

   -21.7991  -9.5561  -4.8948  -4.7852   1.1331   1.9820   2.1374   4.3420

     occupation numbers 
     1.0000   1.0000   1.0000   1.0000   0.0000   0.0000   0.0000   0.0000

          k = 0.0312 0.0902 0.0000 (   797 PWs)   bands (ev):

   -21.7021  -9.4512  -5.2205  -4.9918   1.2615   2.1102   2.2659   4.4675

     occupation numbers 
     1.0000   1.0000   1.0000   1.0000   0.0000   0.0000   0.0000   0.0000

          k = 0.0312 0.1263 0.0000 (   795 PWs)   bands (ev):

   -21.5504  -9.2778  -5.7729  -5.2560   1.4542   2.3035   2.4588   4.6573

     occupation numbers 
     1.0000   1.0000   1.0000   1.0000   0.0000   0.0000   0.0000   0.0000

          k = 0.0312 0.1624 0.0000 (   791 PWs)   bands (ev):

   -21.3483  -9.0413  -6.3879  -5.5812   1.7110   2.5615   2.7160   4.9114

     occupation numbers 
     1.0000   1.0000   1.0000   1.0000   0.0000   0.0000   0.0000   0.0000

          k = 0.0312 0.1985 0.0000 (   790 PWs)   bands (ev):

   -21.1167  -8.7455  -7.1104  -5.9510   2.0305   2.8837   3.0361   5.2271

     occupation numbers 
     1.0000   1.0000   1.0000   1.0000   0.0000   0.0000   0.0000   0.0000

          k = 0.0312 0.2345 0.0000 (   788 PWs)   bands (ev):

   -20.8426  -8.4096  -7.8806  -6.2943   2.4138   3.2684   3.4204   5.5991

     occupation numbers 
     1.0000   1.0000   1.0000   1.0000   0.0000   0.0000   0.0000   0.0000

          k = 0.0312 0.2706 0.0000 (   772 PWs)   bands (ev):

   -20.4963  -8.6349  -8.0179  -6.6103   2.8625   3.7157   3.8700   6.0087

     occupation numbers 
     1.0000   1.0000   1.0000   1.0000   0.0000   0.0000   0.0000   0.0000

          k = 0.0312 0.3067 0.0000 (   772 PWs)   bands (ev):

   -20.1284  -9.4994  -7.5775  -6.9318   3.3731   4.2190   4.3821   5.7748

     occupation numbers 
     1.0000   1.0000   1.0000   1.0000   0.0000   0.0000   0.0000   0.0000

          k = 0.0312 0.3428 0.0000 (   771 PWs)   bands (ev):

   -19.7150 -10.3474  -7.2487  -7.0859   3.9467   4.6261   4.9578   5.0093

     occupation numbers 
     1.0000   1.0000   1.0000   1.0000   0.0000   0.0000   0.0000   0.0000

          k = 0.0312 0.3789 0.0000 (   775 PWs)   bands (ev):

   -19.2573 -11.2688  -7.5142  -6.5618   3.8031   4.5832   5.4860   5.5941

     occupation numbers 
     1.0000   1.0000   1.0000   1.0000   0.0000   0.0000   0.0000   0.0000

          k = 0.0312 0.4150 0.0000 (   777 PWs)   bands (ev):

   -18.7490 -12.1596  -7.7651  -5.9990   2.8756   5.2813   6.0439   6.1797

     occupation numbers 
     1.0000   1.0000   1.0000   1.0000   0.0000   0.0000   0.0000   0.0000

          k = 0.0312 0.4511 0.0000 (   782 PWs)   bands (ev):

   -18.2106 -13.0076  -7.9596  -5.4282   1.9644   5.8831   6.0706   6.9432

     occupation numbers 
     1.0000   1.0000   1.0000   1.0000   0.0000   0.0000   0.0000   0.0000

          k = 0.0312 0.4871 0.0000 (   788 PWs)   bands (ev):

   -17.6284 -13.8378  -8.1255  -4.8702   1.1434   5.7933   6.8740   7.7686

     occupation numbers 
     1.0000   1.0000   1.0000   1.0000   0.0000   0.0000   0.0000   0.0000

          k = 0.0312 0.5232 0.0000 (   786 PWs)   bands (ev):

   -17.0030 -14.6153  -8.2081  -4.3813   0.4967   5.7294   7.7569   8.6548

     occupation numbers 
     1.0000   1.0000   1.0000   1.0000   0.0000   0.0000   0.0000   0.0000

          k = 0.0312 0.5593 0.0000 (   784 PWs)   bands (ev):

   -16.4721 -15.2265  -8.2620  -4.0660   0.1248   5.7104   8.6950   9.6844

     occupation numbers 
     1.0000   1.0000   1.0000   1.0000   0.0000   0.0000   0.0000   0.0000

          k = 0.0625 0.1083 0.0000 (   803 PWs)   bands (ev):

   -21.5845  -9.3203  -5.6863  -5.2581   1.4218   2.2705   2.4264   4.6240

     occupation numbers 
     1.0000   1.0000   1.0000   1.0000   0.0000   0.0000   0.0000   0.0000

          k = 0.0625 0.1443 0.0000 (   787 PWs)   bands (ev):

   -21.3944  -9.0949  -6.1732  -5.5384   1.6470   2.4973   2.6519   4.8485

     occupation numbers 
     1.0000   1.0000   1.0000   1.0000   0.0000   0.0000   0.0000   0.0000

          k = 0.0625 0.1804 0.0000 (   784 PWs)   bands (ev):

   -21.1807  -8.8389  -6.7732  -5.8942   1.9352   2.7868   2.9406   5.1321

     occupation numbers 
     1.0000   1.0000   1.0000   1.0000   0.0000   0.0000   0.0000   0.0000

          k = 0.0625 0.2165 0.0000 (   782 PWs)   bands (ev):

   -20.9245  -8.5147  -7.5070  -6.3010   2.2867   3.1409   3.2929   5.4784

     occupation numbers 
     1.0000   1.0000   1.0000   1.0000   0.0000   0.0000   0.0000   0.0000

          k = 0.0625 0.2526 0.0000 (   784 PWs)   bands (ev):

   -20.6334  -8.2626  -8.1578  -6.6823   2.7016   3.5567   3.7089   5.8746

     occupation numbers 
     1.0000   1.0000   1.0000   1.0000   0.0000   0.0000   0.0000   0.0000

          k = 0.0625 0.2887 0.0000 (   778 PWs)   bands (ev):

   -20.2853  -9.0726  -7.7423  -7.0269   3.1806   4.0336   4.1896   6.0988

     occupation numbers 
     1.0000   1.0000   1.0000   1.0000   0.0000   0.0000   0.0000   0.0000

          k = 0.0625 0.3248 0.0000 (   776 PWs)   bands (ev):

   -19.8941  -9.9305  -7.3424  -7.2731   3.7227   4.5505   4.7335   5.2877

     occupation numbers 
     1.0000   1.0000   1.0000   1.0000   0.0000   0.0000   0.0000   0.0000

          k = 0.0625 0.3608 0.0000 (   775 PWs)   bands (ev):

   -19.4456 -10.7904  -7.6449  -6.7681   4.2390   4.3290   5.2365   5.3418

     occupation numbers 
     1.0000   1.0000   1.0000   1.0000   0.0000   0.0000   0.0000   0.0000

          k = 0.0625 0.3969 0.0000 (   781 PWs)   bands (ev):

   -18.9698 -11.6885  -7.9103  -6.2266   3.2908   4.9963   5.8881   6.0091

     occupation numbers 
     1.0000   1.0000   1.0000   1.0000   0.0000   0.0000   0.0000   0.0000

          k = 0.0625 0.4330 0.0000 (   775 PWs)   bands (ev):

   -18.4279 -12.5332  -8.1174  -5.6474   2.4081   5.7256   6.3319   6.6192

     occupation numbers 
     1.0000   1.0000   1.0000   1.0000   0.0000   0.0000   0.0000   0.0000

          k = 0.0625 0.4691 0.0000 (   775 PWs)   bands (ev):

   -17.8591 -13.3789  -8.2611  -5.0753   1.5541   6.1988   6.5324   7.4148

     occupation numbers 
     1.0000   1.0000   1.0000   1.0000   0.0000   0.0000   0.0000   0.0000

          k = 0.0625 0.5052 0.0000 (   781 PWs)   bands (ev):

   -17.2575 -14.1909  -8.4067  -4.5429   0.8005   6.1140   7.3783   8.2655

     occupation numbers 
     1.0000   1.0000   1.0000   1.0000   0.0000   0.0000   0.0000   0.0000

          k = 0.0625 0.5413 0.0000 (   786 PWs)   bands (ev):

   -16.6741 -14.9006  -8.5261  -4.1223   0.2586   6.0591   8.2874   9.1727

     occupation numbers 
     1.0000   1.0000   1.0000   1.0000   0.0000   0.0000   0.0000   0.0000

          k = 0.0625 0.5774 0.0000 (   782 PWs)   bands (ev):

   -16.2953 -15.3040  -8.5435  -3.9469   0.0559   6.0498   9.2240   9.2861

     occupation numbers 
     1.0000   1.0000   1.0000   1.0000   0.0000   0.0000   0.0000   0.0000

          k = 0.0938 0.1624 0.0000 (   797 PWs)   bands (ev):

   -21.2065  -8.8863  -6.6982  -6.0086   1.9034   2.7535   2.9087   5.0980

     occupation numbers 
     1.0000   1.0000   1.0000   1.0000   0.0000   0.0000   0.0000   0.0000

          k = 0.0938 0.1985 0.0000 (   795 PWs)   bands (ev):

   -20.9895  -8.5988  -7.2692  -6.3985   2.2222   3.0752   3.2283   5.4127

     occupation numbers 
     1.0000   1.0000   1.0000   1.0000   0.0000   0.0000   0.0000   0.0000

          k = 0.0938 0.2345 0.0000 (   788 PWs)   bands (ev):

   -20.7188  -8.2515  -7.9306  -6.8033   2.6051   3.4606   3.6123   5.7875

     occupation numbers 
     1.0000   1.0000   1.0000   1.0000   0.0000   0.0000   0.0000   0.0000

          k = 0.0938 0.2706 0.0000 (   781 PWs)   bands (ev):

   -20.3861  -8.6779  -7.8583  -7.1924   3.0528   3.9083   4.0614   6.1904

     occupation numbers 
     1.0000   1.0000   1.0000   1.0000   0.0000   0.0000   0.0000   0.0000

          k = 0.0938 0.3067 0.0000 (   782 PWs)   bands (ev):

   -20.0179  -9.5194  -7.5456  -7.4326   3.5636   4.4111   4.5741   5.6027

     occupation numbers 
     1.0000   1.0000   1.0000   1.0000   0.0000   0.0000   0.0000   0.0000

          k = 0.0938 0.3428 0.0000 (   782 PWs)   bands (ev):

   -19.6065 -10.3649  -7.8756  -6.9364   4.1371   4.6084   5.0601   5.1503

     occupation numbers 
     1.0000   1.0000   1.0000   1.0000   0.0000   0.0000   0.0000   0.0000

          k = 0.0938 0.3789 0.0000 (   778 PWs)   bands (ev):

   -19.1242 -11.2068  -8.1441  -6.3996   3.6949   4.7752   5.6579   5.7907

     occupation numbers 
     1.0000   1.0000   1.0000   1.0000   0.0000   0.0000   0.0000   0.0000

          k = 0.0938 0.4150 0.0000 (   785 PWs)   bands (ev):

   -18.6279 -12.0831  -8.4085  -5.8464   2.7609   5.4734   6.3532   6.4906

     occupation numbers 
     1.0000   1.0000   1.0000   1.0000   0.0000   0.0000   0.0000   0.0000

          k = 0.0938 0.4511 0.0000 (   783 PWs)   bands (ev):

   -18.0860 -12.9138  -8.5819  -5.2708   1.9017   6.2318   6.7998   7.1146

     occupation numbers 
     1.0000   1.0000   1.0000   1.0000   0.0000   0.0000   0.0000   0.0000

          k = 0.0938 0.4871 0.0000 (   777 PWs)   bands (ev):

   -17.4813 -13.7157  -8.7144  -4.6976   1.1251   6.6946   7.0651   7.9343

     occupation numbers 
     1.0000   1.0000   1.0000   1.0000   0.0000   0.0000   0.0000   0.0000

          k = 0.0938 0.5232 0.0000 (   775 PWs)   bands (ev):

   -16.8608 -14.4819  -8.8084  -4.1835   0.4608   6.6228   7.9429   8.8038

     occupation numbers 
     1.0000   1.0000   1.0000   1.0000   0.0000   0.0000   0.0000   0.0000

          k = 0.0938 0.5593 0.0000 (   775 PWs)   bands (ev):

   -16.3284 -15.0943  -8.8729  -3.8717   0.0797   6.5945   8.8768   9.6989

     occupation numbers 
     1.0000   1.0000   1.0000   1.0000   0.0000   0.0000   0.0000   0.0000

          k = 0.1250 0.2165 0.0000 (   785 PWs)   bands (ev):

   -20.7438  -8.2828  -7.7328  -6.8771   2.5732   3.4286   3.5804   5.7583

     occupation numbers 
     1.0000   1.0000   1.0000   1.0000   0.0000   0.0000   0.0000   0.0000

          k = 0.1250 0.2526 0.0000 (   783 PWs)   bands (ev):

   -20.4334  -8.4233  -7.9120  -7.3638   2.9889   3.8455   3.9973   6.1611

     occupation numbers 
     1.0000   1.0000   1.0000   1.0000   0.0000   0.0000   0.0000   0.0000

          k = 0.1250 0.2887 0.0000 (   791 PWs)   bands (ev):

   -20.1047  -9.1744  -7.8090  -7.5188   3.4669   4.3219   4.4774   5.8074

     occupation numbers 
     1.0000   1.0000   1.0000   1.0000   0.0000   0.0000   0.0000   0.0000

          k = 0.1250 0.3248 0.0000 (   786 PWs)   bands (ev):

   -19.7066  -9.9472  -8.1786  -7.0463   4.0094   4.7985   5.0031   5.0222

     occupation numbers 
     1.0000   1.0000   1.0000   1.0000   0.0000   0.0000   0.0000   0.0000

          k = 0.1250 0.3608 0.0000 (   780 PWs)   bands (ev):

   -19.2564 -10.7654  -8.4815  -6.5280   4.0367   4.6153   5.4871   5.6312

     occupation numbers 
     1.0000   1.0000   1.0000   1.0000   0.0000   0.0000   0.0000   0.0000

          k = 0.1250 0.3969 0.0000 (   782 PWs)   bands (ev):

   -18.7730 -11.6058  -8.7421  -5.9871   3.1316   5.2831   6.1511   6.3025

     occupation numbers 
     1.0000   1.0000   1.0000   1.0000   0.0000   0.0000   0.0000   0.0000

          k = 0.1250 0.4330 0.0000 (   777 PWs)   bands (ev):

   -18.2320 -12.3978  -8.9741  -5.4047   2.2543   6.0135   6.8777   7.0363

     occupation numbers 
     1.0000   1.0000   1.0000   1.0000   0.0000   0.0000   0.0000   0.0000

          k = 0.1250 0.4691 0.0000 (   779 PWs)   bands (ev):

   -17.6761 -13.2290  -9.1496  -4.8310   1.4386   6.8023   7.4509   7.6597

     occupation numbers 
     1.0000   1.0000   1.0000   1.0000   0.0000   0.0000   0.0000   0.0000

          k = 0.1250 0.5052 0.0000 (   776 PWs)   bands (ev):

   -17.0719 -14.0072  -9.2732  -4.2826   0.7316   7.3749   7.6592   8.4878

     occupation numbers 
     1.0000   1.0000   1.0000   1.0000   0.0000   0.0000   0.0000   0.0000

          k = 0.1250 0.5413 0.0000 (   774 PWs)   bands (ev):

   -16.4746 -14.7074  -9.3505  -3.8462   0.2074   7.3324   8.5624   9.3366

     occupation numbers 
     1.0000   1.0000   1.0000   1.0000   0.0000   0.0000   0.0000   0.0000

          k = 0.1250 0.5774 0.0000 (   776 PWs)   bands (ev):

   -16.0987 -15.1154  -9.3887  -3.6808  -0.0111   7.3093   9.4869   9.5560

     occupation numbers 
     1.0000   1.0000   1.0000   1.0000   0.0000   0.0000   0.0000   0.0000

          k = 0.1562 0.2706 0.0000 (   783 PWs)   bands (ev):

   -20.1093  -9.0016  -7.8983  -7.5322   3.4362   4.2927   4.4462   5.9088

     occupation numbers 
     1.0000   1.0000   1.0000   1.0000   0.0000   0.0000   0.0000   0.0000

          k = 0.1562 0.3067 0.0000 (   782 PWs)   bands (ev):

   -19.7499  -9.6597  -8.3804  -7.0880   3.9459   4.7987   4.9583   5.0982

     occupation numbers 
     1.0000   1.0000   1.0000   1.0000   0.0000   0.0000   0.0000   0.0000

          k = 0.1562 0.3428 0.0000 (   780 PWs)   bands (ev):

   -19.3309 -10.3885  -8.7922  -6.6033   4.2721   4.5195   5.3799   5.5349

     occupation numbers 
     1.0000   1.0000   1.0000   1.0000   0.0000   0.0000   0.0000   0.0000

          k = 0.1562 0.3789 0.0000 (   778 PWs)   bands (ev):

   -18.8544 -11.1717  -9.1147  -6.0802   3.4156   5.1569   6.0119   6.1758

     occupation numbers 
     1.0000   1.0000   1.0000   1.0000   0.0000   0.0000   0.0000   0.0000

          k = 0.1562 0.4150 0.0000 (   781 PWs)   bands (ev):

   -18.3643 -11.9560  -9.3818  -5.5286   2.5577   5.8540   6.7027   6.8783

     occupation numbers 
     1.0000   1.0000   1.0000   1.0000   0.0000   0.0000   0.0000   0.0000

          k = 0.1562 0.4511 0.0000 (   780 PWs)   bands (ev):

   -17.8213 -12.7128  -9.6223  -4.9414   1.7322   6.6129   7.4457   7.6438

     occupation numbers 
     1.0000   1.0000   1.0000   1.0000   0.0000   0.0000   0.0000   0.0000

          k = 0.1562 0.4871 0.0000 (   778 PWs)   bands (ev):

   -17.2239 -13.5133  -9.7809  -4.3593   0.9796   7.4329   8.2285   8.2362

     occupation numbers 
     1.0000   1.0000   1.0000   1.0000   0.0000   0.0000   0.0000   0.0000

          k = 0.1562 0.5232 0.0000 (   776 PWs)   bands (ev):

   -16.6128 -14.2559  -9.8849  -3.8580   0.3686   8.1841   8.3144   9.0079

     occupation numbers 
     1.0000   1.0000   1.0000   1.0000   0.0000   0.0000   0.0000   0.0000

          k = 0.1562 0.5593 0.0000 (   780 PWs)   bands (ev):

   -16.0972 -14.8595  -9.9272  -3.5523  -0.0197   8.1397   9.2358   9.6213

     occupation numbers 
     1.0000   1.0000   1.0000   1.0000   0.0000   0.0000   0.0000   0.0000

          k = 0.1875 0.3248 0.0000 (   771 PWs)   bands (ev):

   -19.3403 -10.1658  -8.9232  -6.6251   4.3684   4.4888   5.3418   5.5037

     occupation numbers 
     1.0000   1.0000   1.0000   1.0000   0.0000   0.0000   0.0000   0.0000

          k = 0.1875 0.3608 0.0000 (   779 PWs)   bands (ev):

   -18.9150 -10.8354  -9.4316  -6.1289   3.5784   5.0923   5.9399   6.1113

     occupation numbers 
     1.0000   1.0000   1.0000   1.0000   0.0000   0.0000   0.0000   0.0000

          k = 0.1875 0.3969 0.0000 (   783 PWs)   bands (ev):

   -18.4362 -11.5550  -9.7956  -5.5940   2.7678   5.7586   6.5943   6.7825

     occupation numbers 
     1.0000   1.0000   1.0000   1.0000   0.0000   0.0000   0.0000   0.0000

          k = 0.1875 0.4330 0.0000 (   783 PWs)   bands (ev):

   -17.9014 -12.2657 -10.1043  -5.0261   1.9736   6.4872   7.2971   7.5177

     occupation numbers 
     1.0000   1.0000   1.0000   1.0000   0.0000   0.0000   0.0000   0.0000

          k = 0.1875 0.4691 0.0000 (   782 PWs)   bands (ev):

   -17.3543 -13.0131 -10.3084  -4.4314   1.2083   7.2735   8.0299   8.3134

     occupation numbers 
     1.0000   1.0000   1.0000   1.0000   0.0000   0.0000   0.0000   0.0000

          k = 0.1875 0.5052 0.0000 (   782 PWs)   bands (ev):

   -16.7507 -13.7690 -10.4562  -3.8781   0.5303   8.1191   8.7288   9.1138

     occupation numbers 
     1.0000   1.0000   1.0000   1.0000   0.0000   0.0000   0.0000   0.0000

          k = 0.1875 0.5413 0.0000 (   780 PWs)   bands (ev):

   -16.1702 -14.4265 -10.5380  -3.4419   0.0302   9.0126   9.0784   9.2237

     occupation numbers 
     1.0000   1.0000   1.0000   1.0000   0.0000   0.0000   0.0000   0.0000

          k = 0.1875 0.5774 0.0000 (   780 PWs)   bands (ev):

   -15.8020 -14.8273 -10.5677  -3.2647  -0.1750   9.0716   9.3793   9.9174

     occupation numbers 
     1.0000   1.0000   1.0000   1.0000   0.0000   0.0000   0.0000   0.0000

          k = 0.2188 0.3789 0.0000 (   775 PWs)   bands (ev):

   -18.4376 -11.3552  -9.9898  -5.6068   2.8861   5.7284   6.5583   6.7517

     occupation numbers 
     1.0000   1.0000   1.0000   1.0000   0.0000   0.0000   0.0000   0.0000

          k = 0.2188 0.4150 0.0000 (   787 PWs)   bands (ev):

   -17.9629 -11.9603 -10.4509  -5.0667   2.1067   6.4225   7.2201   7.4528

     occupation numbers 
     1.0000   1.0000   1.0000   1.0000   0.0000   0.0000   0.0000   0.0000

          k = 0.2188 0.4511 0.0000 (   783 PWs)   bands (ev):

   -17.4089 -12.5866 -10.7604  -4.4819   1.3757   7.1796   7.9009   8.2185

     occupation numbers 
     1.0000   1.0000   1.0000   1.0000   0.0000   0.0000   0.0000   0.0000

          k = 0.2188 0.4871 0.0000 (   778 PWs)   bands (ev):

   -16.8339 -13.2664 -10.9570  -3.8952   0.6963   7.9927   8.5140   9.0447

     occupation numbers 
     1.0000   1.0000   1.0000   1.0000   0.0000   0.0000   0.0000   0.0000

          k = 0.2188 0.5232 0.0000 (   776 PWs)   bands (ev):

   -16.2273 -13.9673 -11.0928  -3.3678   0.1128   8.8600   8.8799   9.9372

     occupation numbers 
     1.0000   1.0000   1.0000   1.0000   0.0000   0.0000   0.0000   0.0000

          k = 0.2188 0.5593 0.0000 (   778 PWs)   bands (ev):

   -15.7054 -14.5390 -11.1766  -3.0112  -0.2796   8.9874   9.7664  10.0359

     occupation numbers 
     1.0000   1.0000   1.0000   1.0000   0.0000   0.0000   0.0000   0.0000

          k = 0.2500 0.4330 0.0000 (   781 PWs)   bands (ev):

   -17.4320 -12.3919 -10.9698  -4.4905   1.4575   7.1478   7.8566   8.1864

     occupation numbers 
     1.0000   1.0000   1.0000   1.0000   0.0000   0.0000   0.0000   0.0000

          k = 0.2500 0.4691 0.0000 (   779 PWs)   bands (ev):

   -16.8774 -12.9159 -11.3383  -3.9148   0.7998   7.9293   8.3923   8.9806

     occupation numbers 
     1.0000   1.0000   1.0000   1.0000   0.0000   0.0000   0.0000   0.0000

          k = 0.2500 0.5052 0.0000 (   776 PWs)   bands (ev):

   -16.2960 -13.5142 -11.5811  -3.3365   0.1777   8.6406   8.7635   9.8342

     occupation numbers 
     1.0000   1.0000   1.0000   1.0000   0.0000   0.0000   0.0000   0.0000

          k = 0.2500 0.5413 0.0000 (   780 PWs)   bands (ev):

   -15.7282 -14.1199 -11.7262  -2.8610  -0.3491   8.6665   9.6396  10.7426

     occupation numbers 
     1.0000   1.0000   1.0000   1.0000   0.0000   0.0000   0.0000   0.0000

          k = 0.2500 0.5774 0.0000 (   776 PWs)   bands (ev):

   -15.3605 -14.4886 -11.7792  -2.6111  -0.5669   8.6579  10.4916  10.5927

     occupation numbers 
     1.0000   1.0000   1.0000   1.0000   0.0000   0.0000   0.0000   0.0000

          k = 0.2812 0.4871 0.0000 (   777 PWs)   bands (ev):

   -16.3185 -13.3109 -11.8041  -3.3168   0.1937   8.5559   8.7318   9.8021

     occupation numbers 
     1.0000   1.0000   1.0000   1.0000   0.0000   0.0000   0.0000   0.0000

          k = 0.2812 0.5232 0.0000 (   778 PWs)   bands (ev):

   -15.7337 -13.7885 -12.1260  -2.7582  -0.3802   8.4923   9.5790  10.6806

     occupation numbers 
     1.0000   1.0000   1.0000   1.0000   0.0000   0.0000   0.0000   0.0000

          k = 0.2812 0.5593 0.0000 (   770 PWs)   bands (ev):

   -15.2045 -14.2542 -12.2474  -2.3065  -0.7941   8.4220  10.4466  11.2771

     occupation numbers 
     1.0000   1.0000   1.0000   1.0000   0.0000   0.0000   0.0000   0.0000

          k = 0.3125 0.5413 0.0000 (   765 PWs)   bands (ev):

   -15.1632 -14.0807 -12.4416  -2.1800  -0.8967   8.3393  10.4184  11.5717

     occupation numbers 
     1.0000   1.0000   1.0000   1.0000   0.0000   0.0000   0.0000   0.0000

          k = 0.3125 0.5774 0.0000 (   771 PWs)   bands (ev):

   -14.8045 -14.4057 -12.5809  -1.8438  -1.2536   8.2799  11.1553  11.2608

     occupation numbers 
     1.0000   1.0000   1.0000   1.0036   0.0031   0.0000   0.0000   0.0000

     the Fermi energy is    -1.4646 ev

     WARNING: integrated charge=     8.00007950, expected=     8.00000000

!    total energy              =     -23.41246875 Ry
     estimated scf accuracy    <       0.00000048 Ry
     smearing contrib. (-TS)   =       0.00000064 Ry
     internal energy E=F+TS    =     -23.41246939 Ry

     The total energy is F=E-TS. E is the sum of the following terms:
     one-electron contribution =    -153.67181879 Ry
     hartree contribution      =      78.21206237 Ry
     xc contribution           =      -8.39544905 Ry
     ewald contribution        =      60.44273608 Ry

     convergence has been achieved in   4 iterations

     Forces acting on atoms (cartesian axes, Ry/au):

     atom    1 type  1   force =     0.00000000    0.00000000    0.00000000
     atom    2 type  1   force =     0.00000000    0.00000000    0.00000000
     The non-local contrib.  to forces
     atom    1 type  1   force =     0.00000000    0.00000000    0.00000000
     atom    2 type  1   force =     0.00000000   -0.00000000    0.00000000
     The ionic contribution  to forces
     atom    1 type  1   force =    -0.00000001    0.00000000   -0.00000000
     atom    2 type  1   force =     0.00000001   -0.00000000   -0.00000000
     The local contribution  to forces
     atom    1 type  1   force =     0.00000000   -0.00000000   -0.00000000
     atom    2 type  1   force =     0.00000000   -0.00000000    0.00000000
     The core correction contribution to forces
     atom    1 type  1   force =     0.00000000   -0.00000000   -0.00000000
     atom    2 type  1   force =    -0.00000000    0.00000000   -0.00000000
     The Hubbard contrib.    to forces
     atom    1 type  1   force =     0.00000000    0.00000000    0.00000000
     atom    2 type  1   force =     0.00000000    0.00000000    0.00000000
     The SCF correction term to forces
     atom    1 type  1   force =     0.00000000   -0.00000000    0.00000000
     atom    2 type  1   force =    -0.00000000    0.00000000    0.00000000

     Total force =     0.000000     Total SCF correction =     0.000000


     Computing stress (Cartesian axis) and pressure

          total   stress  (Ry/bohr**3)                   (kbar)     P=     -192.38
  -0.00106505   0.00000000   0.00000000         -156.67        0.00        0.00
   0.00000000  -0.00106505   0.00000000            0.00     -156.67        0.00
   0.00000000   0.00000000  -0.00179315            0.00        0.00     -263.78

     kinetic stress (kbar)   2772.12      0.00      0.00
                                0.00   2772.12      0.00
                                0.00      0.00   3033.88

     local   stress (kbar) -46953.11      0.00     -0.00
                                0.00 -46953.11      0.00
                               -0.00      0.00  47801.95

     nonloc. stress (kbar)   -150.10      0.00      0.00
                                0.00   -150.10      0.00
                                0.00      0.00    -97.87

     hartree stress (kbar)  22036.21      0.00     -0.00
                                0.00  22036.21      0.00
                               -0.00      0.00 -21835.73

     exc-cor stress (kbar)   -243.36      0.00      0.00
                                0.00   -243.36      0.00
                                0.00      0.00   -243.36

     corecor stress (kbar)   -451.94      0.00     -0.00
                                0.00   -451.94     -0.00
                               -0.00     -0.00   -440.29

     ewald   stress (kbar)  22833.51     -0.00     -0.00
                               -0.00  22833.51     -0.00
                               -0.00     -0.00 -28482.36

     hubbard stress (kbar)      0.00      0.00      0.00
                                0.00      0.00      0.00
                                0.00      0.00      0.00

     DFT-D   stress (kbar)      0.00      0.00      0.00
                                0.00      0.00      0.00
                                0.00      0.00      0.00

     XDM     stress (kbar)      0.00      0.00      0.00
                                0.00      0.00      0.00
                                0.00      0.00      0.00

     dft-nl  stress (kbar)      0.00      0.00      0.00
                                0.00      0.00      0.00
                                0.00      0.00      0.00

     TS-vdW  stress (kbar)      0.00      0.00      0.00
                                0.00      0.00      0.00
                                0.00      0.00      0.00

     MDB     stress (kbar)      0.00      0.00      0.00
                                0.00      0.00      0.00
                                0.00      0.00      0.00

     3D-RISM stress (kbar)      0.00      0.00      0.00
                                0.00      0.00      0.00
                                0.00      0.00      0.00


     Writing all to output data dir ./tmp/graphene.save/

     init_run     :      0.55s CPU      0.55s WALL (       1 calls)
     electrons    :      3.47s CPU      2.94s WALL (       1 calls)
     forces       :      0.05s CPU      0.05s WALL (       1 calls)
     stress       :      0.37s CPU      0.37s WALL (       1 calls)

     Called by init_run:
     wfcinit      :      0.30s CPU      0.30s WALL (       1 calls)
     wfcinit:atom :      0.01s CPU      0.01s WALL (     102 calls)
     wfcinit:wfcr :      0.26s CPU      0.26s WALL (     102 calls)
     potinit      :      0.00s CPU      0.00s WALL (       1 calls)
     hinit0       :      0.24s CPU      0.24s WALL (       1 calls)

     Called by electrons:
     c_bands      :      3.26s CPU      2.72s WALL (       4 calls)
     sum_band     :      0.21s CPU      0.22s WALL (       4 calls)
     v_of_rho     :      0.00s CPU      0.00s WALL (       5 calls)
     v_h          :      0.00s CPU      0.00s WALL (       5 calls)
     v_xc         :      0.00s CPU      0.00s WALL (       7 calls)
     mix_rho      :      0.00s CPU      0.00s WALL (       4 calls)

     Called by c_bands:
     init_us_2    :      0.09s CPU      0.09s WALL (    1122 calls)
     init_us_2:cp :      0.09s CPU      0.09s WALL (    1122 calls)
     cegterg      :      3.15s CPU      2.61s WALL (     408 calls)

     Called by sum_band:
     sum_band:wei :      0.00s CPU      0.00s WALL (       4 calls)
     sum_band:loo :      0.20s CPU      0.21s WALL (       4 calls)
     sum_band:buf :      0.00s CPU      0.00s WALL (     408 calls)
     sum_band:ini :      0.03s CPU      0.03s WALL (     408 calls)

     Called by *egterg:
     cdiaghg      :      0.22s CPU      0.22s WALL (    3107 calls)
     cegterg:over :      0.18s CPU      0.19s WALL (    2699 calls)
     cegterg:upda :      0.42s CPU      0.21s WALL (    2699 calls)
     cegterg:last :      0.29s CPU      0.11s WALL (    1276 calls)
     h_psi        :      2.18s CPU      2.00s WALL (    3209 calls)
     g_psi        :      0.03s CPU      0.03s WALL (    2699 calls)

     Called by h_psi:
     h_psi:calbec :      0.12s CPU      0.13s WALL (    3209 calls)
     vloc_psi     :      1.62s CPU      1.67s WALL (    3209 calls)
     add_vuspsi   :      0.42s CPU      0.17s WALL (    3209 calls)

     General routines
     calbec       :      0.15s CPU      0.15s WALL (    3719 calls)
     fft          :      0.23s CPU      0.23s WALL (      22 calls)
     ffts         :      0.00s CPU      0.00s WALL (       4 calls)
     fftw         :      1.37s CPU      1.40s WALL (   27978 calls)

     Parallel routines

     PWSCF        :      4.53s CPU      4.06s WALL


   This run was terminated on:  11:13:22  26Mar2024            

=------------------------------------------------------------------------------=
   JOB DONE.
=------------------------------------------------------------------------------=
