
     Program PWSCF v.7.2 starts on 26Mar2024 at 11:13:14 

     This program is part of the open-source Quantum ESPRESSO suite
     for quantum simulation of materials; please cite
         "P. Giannozzi et al., J. Phys.:Condens. Matter 21 395502 (2009);
         "P. Giannozzi et al., J. Phys.:Condens. Matter 29 465901 (2017);
         "P. Giannozzi et al., J. Chem. Phys. 152 154105 (2020);
          URL http://www.quantum-espresso.org", 
     in publications or presentations arising from this work. More details at
     http://www.quantum-espresso.org/quote

     Parallel version (MPI & OpenMP), running on       1 processor cores
     Number of MPI processes:                 1
     Threads/MPI process:                     1

     MPI processes distributed on     1 nodes
     0 MiB available memory on the printing compute node when the environment starts

     Waiting for input...
     Reading input from standard input

     Current dimensions of program PWSCF are:
     Max number of different atomic species (ntypx) = 10
     Max number of k-points (npk) =  40000
     Max angular momentum in pseudopotentials (lmaxx) =  4

     Subspace diagonalization in iterative solution of the eigenvalue problem:
     a serial algorithm will be used


     G-vector sticks info
     --------------------
     sticks:   dense  smooth     PW     G-vecs:    dense   smooth      PW
     Sum         121     121     37                 6307     6307    1283

     Using Slab Decomposition



     bravais-lattice index     =            4
     lattice parameter (alat)  =       4.6350  a.u.
     unit-cell volume          =     517.4056 (a.u.)^3
     number of atoms/cell      =            2
     number of atomic types    =            1
     number of electrons       =         8.00
     number of Kohn-Sham states=            8
     kinetic-energy cutoff     =      20.0000  Ry
     charge density cutoff     =      80.0000  Ry
     scf convergence threshold =      1.0E-06
     mixing beta               =       0.7000
     number of iterations used =            8  plain     mixing
     Exchange-correlation= PZ
                           (   1   1   0   0   0   0   0)

     celldm(1)=   4.635000  celldm(2)=   0.000000  celldm(3)=   6.000000
     celldm(4)=   0.000000  celldm(5)=   0.000000  celldm(6)=   0.000000

     crystal axes: (cart. coord. in units of alat)
               a(1) = (   1.000000   0.000000   0.000000 )  
               a(2) = (  -0.500000   0.866025   0.000000 )  
               a(3) = (   0.000000   0.000000   6.000000 )  

     reciprocal axes: (cart. coord. in units 2 pi/alat)
               b(1) = (  1.000000  0.577350 -0.000000 )  
               b(2) = (  0.000000  1.154701  0.000000 )  
               b(3) = (  0.000000 -0.000000  0.166667 )  


     PseudoPot. # 1 for C  read from file:
     ../../../Pseudo/LDA/C.UPF
     MD5 check sum: 9ef9f0a1c6c947210c7947280cfb54e2
     Pseudo is Norm-conserving + core correction, Zval =  4.0
     Generated using ONCVPSP code by D. R. Hamann
     Using radial grid of 1230 points,  4 beta functions with: 
                l(1) =   0
                l(2) =   0
                l(3) =   1
                l(4) =   1

     atomic species   valence    mass     pseudopotential
        C              4.00    12.01100     C ( 1.00)

     24 Sym. Ops., with inversion, found (12 have fractional translation)


                                    s                        frac. trans.

      isym =  1     identity                                     

 cryst.   s( 1) = (     1          0          0      )
                  (     0          1          0      )
                  (     0          0          1      )

 cart.    s( 1) = (  1.0000000  0.0000000  0.0000000 )
                  (  0.0000000  1.0000000  0.0000000 )
                  (  0.0000000  0.0000000  1.0000000 )


      isym =  2     180 deg rotation - cart. axis [0,0,1]        

 cryst.   s( 2) = (    -1          0          0      )    f =( -0.3333333 )
                  (     0         -1          0      )       (  0.3333333 )
                  (     0          0          1      )       (  0.0000000 )

 cart.    s( 2) = ( -1.0000000  0.0000000  0.0000000 )    f =( -0.5000000 )
                  (  0.0000000 -1.0000000  0.0000000 )       (  0.2886751 )
                  (  0.0000000  0.0000000  1.0000000 )       (  0.0000000 )


      isym =  3     180 deg rotation - cart. axis [0,1,0]        

 cryst.   s( 3) = (    -1          0          0      )
                  (     1          1          0      )
                  (     0          0         -1      )

 cart.    s( 3) = ( -1.0000000  0.0000000  0.0000000 )
                  (  0.0000000  1.0000000  0.0000000 )
                  (  0.0000000  0.0000000 -1.0000000 )


      isym =  4     180 deg rotation - cart. axis [1,0,0]        

 cryst.   s( 4) = (     1          0          0      )    f =( -0.3333333 )
                  (    -1         -1          0      )       (  0.3333333 )
                  (     0          0         -1      )       (  0.0000000 )

 cart.    s( 4) = (  1.0000000  0.0000000  0.0000000 )    f =( -0.5000000 )
                  (  0.0000000 -1.0000000  0.0000000 )       (  0.2886751 )
                  (  0.0000000  0.0000000 -1.0000000 )       (  0.0000000 )


      isym =  5      60 deg rotation - cryst. axis [0,0,1]       

 cryst.   s( 5) = (     1          1          0      )    f =( -0.3333333 )
                  (    -1          0          0      )       (  0.3333333 )
                  (     0          0          1      )       (  0.0000000 )

 cart.    s( 5) = (  0.5000000 -0.8660254  0.0000000 )    f =( -0.5000000 )
                  (  0.8660254  0.5000000  0.0000000 )       (  0.2886751 )
                  (  0.0000000  0.0000000  1.0000000 )       (  0.0000000 )


      isym =  6      60 deg rotation - cryst. axis [0,0,-1]      

 cryst.   s( 6) = (     0         -1          0      )    f =( -0.3333333 )
                  (     1          1          0      )       (  0.3333333 )
                  (     0          0          1      )       (  0.0000000 )

 cart.    s( 6) = (  0.5000000  0.8660254  0.0000000 )    f =( -0.5000000 )
                  ( -0.8660254  0.5000000  0.0000000 )       (  0.2886751 )
                  (  0.0000000  0.0000000  1.0000000 )       (  0.0000000 )


      isym =  7     120 deg rotation - cryst. axis [0,0,1]       

 cryst.   s( 7) = (     0          1          0      )
                  (    -1         -1          0      )
                  (     0          0          1      )

 cart.    s( 7) = ( -0.5000000 -0.8660254  0.0000000 )
                  (  0.8660254 -0.5000000  0.0000000 )
                  (  0.0000000  0.0000000  1.0000000 )


      isym =  8     120 deg rotation - cryst. axis [0,0,-1]      

 cryst.   s( 8) = (    -1         -1          0      )
                  (     1          0          0      )
                  (     0          0          1      )

 cart.    s( 8) = ( -0.5000000  0.8660254  0.0000000 )
                  ( -0.8660254 -0.5000000  0.0000000 )
                  (  0.0000000  0.0000000  1.0000000 )


      isym =  9     180 deg rotation - cryst. axis [1,-1,0]      

 cryst.   s( 9) = (     0         -1          0      )
                  (    -1          0          0      )
                  (     0          0         -1      )

 cart.    s( 9) = (  0.5000000 -0.8660254  0.0000000 )
                  ( -0.8660254 -0.5000000  0.0000000 )
                  (  0.0000000  0.0000000 -1.0000000 )


      isym = 10     180 deg rotation - cryst. axis [2,1,0]       

 cryst.   s(10) = (     1          1          0      )
                  (     0         -1          0      )
                  (     0          0         -1      )

 cart.    s(10) = (  0.5000000  0.8660254  0.0000000 )
                  (  0.8660254 -0.5000000  0.0000000 )
                  (  0.0000000  0.0000000 -1.0000000 )


      isym = 11     180 deg rotation - cryst. axis [0,1,0]       

 cryst.   s(11) = (    -1         -1          0      )    f =( -0.3333333 )
                  (     0          1          0      )       (  0.3333333 )
                  (     0          0         -1      )       (  0.0000000 )

 cart.    s(11) = ( -0.5000000 -0.8660254  0.0000000 )    f =( -0.5000000 )
                  ( -0.8660254  0.5000000  0.0000000 )       (  0.2886751 )
                  (  0.0000000  0.0000000 -1.0000000 )       (  0.0000000 )


      isym = 12     180 deg rotation - cryst. axis [1,1,0]       

 cryst.   s(12) = (     0          1          0      )    f =( -0.3333333 )
                  (     1          0          0      )       (  0.3333333 )
                  (     0          0         -1      )       (  0.0000000 )

 cart.    s(12) = ( -0.5000000  0.8660254  0.0000000 )    f =( -0.5000000 )
                  (  0.8660254  0.5000000  0.0000000 )       (  0.2886751 )
                  (  0.0000000  0.0000000 -1.0000000 )       (  0.0000000 )


      isym = 13     inversion                                    

 cryst.   s(13) = (    -1          0          0      )    f =( -0.3333333 )
                  (     0         -1          0      )       (  0.3333333 )
                  (     0          0         -1      )       (  0.0000000 )

 cart.    s(13) = ( -1.0000000  0.0000000  0.0000000 )    f =( -0.5000000 )
                  (  0.0000000 -1.0000000  0.0000000 )       (  0.2886751 )
                  (  0.0000000  0.0000000 -1.0000000 )       (  0.0000000 )


      isym = 14     inv. 180 deg rotation - cart. axis [0,0,1]   

 cryst.   s(14) = (     1          0          0      )
                  (     0          1          0      )
                  (     0          0         -1      )

 cart.    s(14) = (  1.0000000  0.0000000  0.0000000 )
                  (  0.0000000  1.0000000  0.0000000 )
                  (  0.0000000  0.0000000 -1.0000000 )


      isym = 15     inv. 180 deg rotation - cart. axis [0,1,0]   

 cryst.   s(15) = (     1          0          0      )    f =( -0.3333333 )
                  (    -1         -1          0      )       (  0.3333333 )
                  (     0          0          1      )       (  0.0000000 )

 cart.    s(15) = (  1.0000000  0.0000000  0.0000000 )    f =( -0.5000000 )
                  (  0.0000000 -1.0000000  0.0000000 )       (  0.2886751 )
                  (  0.0000000  0.0000000  1.0000000 )       (  0.0000000 )


      isym = 16     inv. 180 deg rotation - cart. axis [1,0,0]   

 cryst.   s(16) = (    -1          0          0      )
                  (     1          1          0      )
                  (     0          0          1      )

 cart.    s(16) = ( -1.0000000  0.0000000  0.0000000 )
                  (  0.0000000  1.0000000  0.0000000 )
                  (  0.0000000  0.0000000  1.0000000 )


      isym = 17     inv.  60 deg rotation - cryst. axis [0,0,1]  

 cryst.   s(17) = (    -1         -1          0      )
                  (     1          0          0      )
                  (     0          0         -1      )

 cart.    s(17) = ( -0.5000000  0.8660254  0.0000000 )
                  ( -0.8660254 -0.5000000  0.0000000 )
                  (  0.0000000  0.0000000 -1.0000000 )


      isym = 18     inv.  60 deg rotation - cryst. axis [0,0,-1] 

 cryst.   s(18) = (     0          1          0      )
                  (    -1         -1          0      )
                  (     0          0         -1      )

 cart.    s(18) = ( -0.5000000 -0.8660254  0.0000000 )
                  (  0.8660254 -0.5000000  0.0000000 )
                  (  0.0000000  0.0000000 -1.0000000 )


      isym = 19     inv. 120 deg rotation - cryst. axis [0,0,1]  

 cryst.   s(19) = (     0         -1          0      )    f =( -0.3333333 )
                  (     1          1          0      )       (  0.3333333 )
                  (     0          0         -1      )       (  0.0000000 )

 cart.    s(19) = (  0.5000000  0.8660254  0.0000000 )    f =( -0.5000000 )
                  ( -0.8660254  0.5000000  0.0000000 )       (  0.2886751 )
                  (  0.0000000  0.0000000 -1.0000000 )       (  0.0000000 )


      isym = 20     inv. 120 deg rotation - cryst. axis [0,0,-1] 

 cryst.   s(20) = (     1          1          0      )    f =( -0.3333333 )
                  (    -1          0          0      )       (  0.3333333 )
                  (     0          0         -1      )       (  0.0000000 )

 cart.    s(20) = (  0.5000000 -0.8660254  0.0000000 )    f =( -0.5000000 )
                  (  0.8660254  0.5000000  0.0000000 )       (  0.2886751 )
                  (  0.0000000  0.0000000 -1.0000000 )       (  0.0000000 )


      isym = 21     inv. 180 deg rotation - cryst. axis [1,-1,0] 

 cryst.   s(21) = (     0          1          0      )    f =( -0.3333333 )
                  (     1          0          0      )       (  0.3333333 )
                  (     0          0          1      )       (  0.0000000 )

 cart.    s(21) = ( -0.5000000  0.8660254  0.0000000 )    f =( -0.5000000 )
                  (  0.8660254  0.5000000  0.0000000 )       (  0.2886751 )
                  (  0.0000000  0.0000000  1.0000000 )       (  0.0000000 )


      isym = 22     inv. 180 deg rotation - cryst. axis [2,1,0]  

 cryst.   s(22) = (    -1         -1          0      )    f =( -0.3333333 )
                  (     0          1          0      )       (  0.3333333 )
                  (     0          0          1      )       (  0.0000000 )

 cart.    s(22) = ( -0.5000000 -0.8660254  0.0000000 )    f =( -0.5000000 )
                  ( -0.8660254  0.5000000  0.0000000 )       (  0.2886751 )
                  (  0.0000000  0.0000000  1.0000000 )       (  0.0000000 )


      isym = 23     inv. 180 deg rotation - cryst. axis [0,1,0]  

 cryst.   s(23) = (     1          1          0      )
                  (     0         -1          0      )
                  (     0          0          1      )

 cart.    s(23) = (  0.5000000  0.8660254  0.0000000 )
                  (  0.8660254 -0.5000000  0.0000000 )
                  (  0.0000000  0.0000000  1.0000000 )


      isym = 24     inv. 180 deg rotation - cryst. axis [1,1,0]  

 cryst.   s(24) = (     0         -1          0      )
                  (    -1          0          0      )
                  (     0          0          1      )

 cart.    s(24) = (  0.5000000 -0.8660254  0.0000000 )
                  ( -0.8660254 -0.5000000  0.0000000 )
                  (  0.0000000  0.0000000  1.0000000 )


     point group D_6h(6/mmm)
     there are 12 classes
     the character table:

       E     2C6   2C3   C2    3C2'  3C2'' i     2S3   2S6   s_h   3s_d  3s_v 
A_1g   1.00  1.00  1.00  1.00  1.00  1.00  1.00  1.00  1.00  1.00  1.00  1.00
A_2g   1.00  1.00  1.00  1.00 -1.00 -1.00  1.00  1.00  1.00  1.00 -1.00 -1.00
B_1g   1.00 -1.00  1.00 -1.00  1.00 -1.00  1.00 -1.00  1.00 -1.00  1.00 -1.00
B_2g   1.00 -1.00  1.00 -1.00 -1.00  1.00  1.00 -1.00  1.00 -1.00 -1.00  1.00
E_1g   2.00  1.00 -1.00 -2.00  0.00  0.00  2.00  1.00 -1.00 -2.00  0.00  0.00
E_2g   2.00 -1.00 -1.00  2.00  0.00  0.00  2.00 -1.00 -1.00  2.00  0.00  0.00
A_1u   1.00  1.00  1.00  1.00  1.00  1.00 -1.00 -1.00 -1.00 -1.00 -1.00 -1.00
A_2u   1.00  1.00  1.00  1.00 -1.00 -1.00 -1.00 -1.00 -1.00 -1.00  1.00  1.00
B_1u   1.00 -1.00  1.00 -1.00  1.00 -1.00 -1.00  1.00 -1.00  1.00 -1.00  1.00
B_2u   1.00 -1.00  1.00 -1.00 -1.00  1.00 -1.00  1.00 -1.00  1.00  1.00 -1.00
E_1u   2.00  1.00 -1.00 -2.00  0.00  0.00 -2.00 -1.00  1.00  2.00  0.00  0.00
E_2u   2.00 -1.00 -1.00  2.00  0.00  0.00 -2.00  1.00  1.00 -2.00  0.00  0.00

     the symmetry operations in each class and the name of the first element:

     E        1
          identity                                               
     2C6      5    6
           60 deg rotation - cryst. axis [0,0,1]                 
     2C3      7    8
          120 deg rotation - cryst. axis [0,0,1]                 
     C2       2
          180 deg rotation - cart. axis [0,0,1]                  
     3C2'     4   12   11
          180 deg rotation - cart. axis [1,0,0]                  
     3C2''    3    9   10
          180 deg rotation - cart. axis [0,1,0]                  
     i       13
          inversion                                              
     2S3     17   18
          inv.  60 deg rotation - cryst. axis [0,0,1]            
     2S6     19   20
          inv. 120 deg rotation - cryst. axis [0,0,1]            
     s_h     14
          inv. 180 deg rotation - cart. axis [0,0,1]             
     3s_d    16   24   23
          inv. 180 deg rotation - cart. axis [1,0,0]             
     3s_v    15   21   22
          inv. 180 deg rotation - cart. axis [0,1,0]             

   Cartesian axes

     site n.     atom                  positions (alat units)
         1           C   tau(   1) = (   0.0000000   0.0000000   0.0000000  )
         2           C   tau(   2) = (  -0.0000000   0.5773503   0.0000000  )

   Crystallographic axes

     site n.     atom                  positions (cryst. coord.)
         1           C   tau(   1) = (  0.0000000  0.0000000  0.0000000  )
         2           C   tau(   2) = (  0.3333333  0.6666667  0.0000000  )

     number of k points=    80  Marzari-Vanderbilt smearing, width (Ry)=  0.0100
                       cart. coord. in units 2pi/alat
        k(    1) = (   0.0000000   0.0000000   0.0000000), wk =   0.0025510
        k(    2) = (   0.0000000   0.0412393   0.0000000), wk =   0.0153061
        k(    3) = (   0.0000000   0.0824786   0.0000000), wk =   0.0153061
        k(    4) = (   0.0000000   0.1237179   0.0000000), wk =   0.0153061
        k(    5) = (   0.0000000   0.1649572   0.0000000), wk =   0.0153061
        k(    6) = (   0.0000000   0.2061965   0.0000000), wk =   0.0153061
        k(    7) = (   0.0000000   0.2474358   0.0000000), wk =   0.0153061
        k(    8) = (   0.0000000   0.2886751   0.0000000), wk =   0.0153061
        k(    9) = (   0.0000000   0.3299144   0.0000000), wk =   0.0153061
        k(   10) = (   0.0000000   0.3711537   0.0000000), wk =   0.0153061
        k(   11) = (   0.0000000   0.4123930   0.0000000), wk =   0.0153061
        k(   12) = (   0.0000000   0.4536324   0.0000000), wk =   0.0153061
        k(   13) = (   0.0000000   0.4948717   0.0000000), wk =   0.0153061
        k(   14) = (   0.0000000   0.5361110   0.0000000), wk =   0.0153061
        k(   15) = (   0.0000000  -0.5773503   0.0000000), wk =   0.0076531
        k(   16) = (   0.0357143   0.0618590   0.0000000), wk =   0.0153061
        k(   17) = (   0.0357143   0.1030983   0.0000000), wk =   0.0306122
        k(   18) = (   0.0357143   0.1443376   0.0000000), wk =   0.0306122
        k(   19) = (   0.0357143   0.1855769   0.0000000), wk =   0.0306122
        k(   20) = (   0.0357143   0.2268162   0.0000000), wk =   0.0306122
        k(   21) = (   0.0357143   0.2680555   0.0000000), wk =   0.0306122
        k(   22) = (   0.0357143   0.3092948   0.0000000), wk =   0.0306122
        k(   23) = (   0.0357143   0.3505341   0.0000000), wk =   0.0306122
        k(   24) = (   0.0357143   0.3917734   0.0000000), wk =   0.0306122
        k(   25) = (   0.0357143   0.4330127   0.0000000), wk =   0.0306122
        k(   26) = (   0.0357143   0.4742520   0.0000000), wk =   0.0306122
        k(   27) = (   0.0357143   0.5154913   0.0000000), wk =   0.0306122
        k(   28) = (   0.0357143   0.5567306   0.0000000), wk =   0.0306122
        k(   29) = (   0.0714286   0.1237179   0.0000000), wk =   0.0153061
        k(   30) = (   0.0714286   0.1649572   0.0000000), wk =   0.0306122
        k(   31) = (   0.0714286   0.2061965   0.0000000), wk =   0.0306122
        k(   32) = (   0.0714286   0.2474358   0.0000000), wk =   0.0306122
        k(   33) = (   0.0714286   0.2886751   0.0000000), wk =   0.0306122
        k(   34) = (   0.0714286   0.3299144   0.0000000), wk =   0.0306122
        k(   35) = (   0.0714286   0.3711537   0.0000000), wk =   0.0306122
        k(   36) = (   0.0714286   0.4123930   0.0000000), wk =   0.0306122
        k(   37) = (   0.0714286   0.4536324   0.0000000), wk =   0.0306122
        k(   38) = (   0.0714286   0.4948717   0.0000000), wk =   0.0306122
        k(   39) = (   0.0714286   0.5361110   0.0000000), wk =   0.0306122
        k(   40) = (   0.0714286   0.5773503   0.0000000), wk =   0.0153061
        k(   41) = (   0.1071429   0.1855769   0.0000000), wk =   0.0153061
        k(   42) = (   0.1071429   0.2268162   0.0000000), wk =   0.0306122
        k(   43) = (   0.1071429   0.2680555   0.0000000), wk =   0.0306122
        k(   44) = (   0.1071429   0.3092948   0.0000000), wk =   0.0306122
        k(   45) = (   0.1071429   0.3505341   0.0000000), wk =   0.0306122
        k(   46) = (   0.1071429   0.3917734   0.0000000), wk =   0.0306122
        k(   47) = (   0.1071429   0.4330127   0.0000000), wk =   0.0306122
        k(   48) = (   0.1071429   0.4742520   0.0000000), wk =   0.0306122
        k(   49) = (   0.1071429   0.5154913   0.0000000), wk =   0.0306122
        k(   50) = (   0.1071429   0.5567306   0.0000000), wk =   0.0306122
        k(   51) = (   0.1428571   0.2474358   0.0000000), wk =   0.0153061
        k(   52) = (   0.1428571   0.2886751   0.0000000), wk =   0.0306122
        k(   53) = (   0.1428571   0.3299144   0.0000000), wk =   0.0306122
        k(   54) = (   0.1428571   0.3711537   0.0000000), wk =   0.0306122
        k(   55) = (   0.1428571   0.4123930   0.0000000), wk =   0.0306122
        k(   56) = (   0.1428571   0.4536324   0.0000000), wk =   0.0306122
        k(   57) = (   0.1428571   0.4948717   0.0000000), wk =   0.0306122
        k(   58) = (   0.1428571   0.5361110   0.0000000), wk =   0.0306122
        k(   59) = (   0.1428571   0.5773503   0.0000000), wk =   0.0153061
        k(   60) = (   0.1785714   0.3092948   0.0000000), wk =   0.0153061
        k(   61) = (   0.1785714   0.3505341   0.0000000), wk =   0.0306122
        k(   62) = (   0.1785714   0.3917734   0.0000000), wk =   0.0306122
        k(   63) = (   0.1785714   0.4330127   0.0000000), wk =   0.0306122
        k(   64) = (   0.1785714   0.4742520   0.0000000), wk =   0.0306122
        k(   65) = (   0.1785714   0.5154913   0.0000000), wk =   0.0306122
        k(   66) = (   0.1785714   0.5567306   0.0000000), wk =   0.0306122
        k(   67) = (   0.2142857   0.3711537   0.0000000), wk =   0.0153061
        k(   68) = (   0.2142857   0.4123930   0.0000000), wk =   0.0306122
        k(   69) = (   0.2142857   0.4536324   0.0000000), wk =   0.0306122
        k(   70) = (   0.2142857   0.4948717   0.0000000), wk =   0.0306122
        k(   71) = (   0.2142857   0.5361110   0.0000000), wk =   0.0306122
        k(   72) = (   0.2142857   0.5773503   0.0000000), wk =   0.0153061
        k(   73) = (   0.2500000   0.4330127   0.0000000), wk =   0.0153061
        k(   74) = (   0.2500000   0.4742520   0.0000000), wk =   0.0306122
        k(   75) = (   0.2500000   0.5154913   0.0000000), wk =   0.0306122
        k(   76) = (   0.2500000   0.5567306   0.0000000), wk =   0.0306122
        k(   77) = (   0.2857143   0.4948717   0.0000000), wk =   0.0153061
        k(   78) = (   0.2857143   0.5361110   0.0000000), wk =   0.0306122
        k(   79) = (   0.2857143   0.5773503   0.0000000), wk =   0.0153061
        k(   80) = (   0.3214286   0.5567306   0.0000000), wk =   0.0153061

                       cryst. coord.
        k(    1) = (   0.0000000   0.0000000   0.0000000), wk =   0.0025510
        k(    2) = (   0.0000000   0.0357143   0.0000000), wk =   0.0153061
        k(    3) = (   0.0000000   0.0714286   0.0000000), wk =   0.0153061
        k(    4) = (   0.0000000   0.1071429   0.0000000), wk =   0.0153061
        k(    5) = (   0.0000000   0.1428571   0.0000000), wk =   0.0153061
        k(    6) = (   0.0000000   0.1785714   0.0000000), wk =   0.0153061
        k(    7) = (   0.0000000   0.2142857   0.0000000), wk =   0.0153061
        k(    8) = (   0.0000000   0.2500000   0.0000000), wk =   0.0153061
        k(    9) = (   0.0000000   0.2857143   0.0000000), wk =   0.0153061
        k(   10) = (   0.0000000   0.3214286   0.0000000), wk =   0.0153061
        k(   11) = (   0.0000000   0.3571429   0.0000000), wk =   0.0153061
        k(   12) = (   0.0000000   0.3928571   0.0000000), wk =   0.0153061
        k(   13) = (   0.0000000   0.4285714   0.0000000), wk =   0.0153061
        k(   14) = (   0.0000000   0.4642857   0.0000000), wk =   0.0153061
        k(   15) = (   0.0000000  -0.5000000   0.0000000), wk =   0.0076531
        k(   16) = (   0.0357143   0.0357143   0.0000000), wk =   0.0153061
        k(   17) = (   0.0357143   0.0714286   0.0000000), wk =   0.0306122
        k(   18) = (   0.0357143   0.1071429   0.0000000), wk =   0.0306122
        k(   19) = (   0.0357143   0.1428571   0.0000000), wk =   0.0306122
        k(   20) = (   0.0357143   0.1785714   0.0000000), wk =   0.0306122
        k(   21) = (   0.0357143   0.2142857   0.0000000), wk =   0.0306122
        k(   22) = (   0.0357143   0.2500000   0.0000000), wk =   0.0306122
        k(   23) = (   0.0357143   0.2857143   0.0000000), wk =   0.0306122
        k(   24) = (   0.0357143   0.3214286   0.0000000), wk =   0.0306122
        k(   25) = (   0.0357143   0.3571429   0.0000000), wk =   0.0306122
        k(   26) = (   0.0357143   0.3928571   0.0000000), wk =   0.0306122
        k(   27) = (   0.0357143   0.4285714   0.0000000), wk =   0.0306122
        k(   28) = (   0.0357143   0.4642857   0.0000000), wk =   0.0306122
        k(   29) = (   0.0714286   0.0714286   0.0000000), wk =   0.0153061
        k(   30) = (   0.0714286   0.1071429   0.0000000), wk =   0.0306122
        k(   31) = (   0.0714286   0.1428571   0.0000000), wk =   0.0306122
        k(   32) = (   0.0714286   0.1785714   0.0000000), wk =   0.0306122
        k(   33) = (   0.0714286   0.2142857   0.0000000), wk =   0.0306122
        k(   34) = (   0.0714286   0.2500000   0.0000000), wk =   0.0306122
        k(   35) = (   0.0714286   0.2857143   0.0000000), wk =   0.0306122
        k(   36) = (   0.0714286   0.3214286   0.0000000), wk =   0.0306122
        k(   37) = (   0.0714286   0.3571429   0.0000000), wk =   0.0306122
        k(   38) = (   0.0714286   0.3928571   0.0000000), wk =   0.0306122
        k(   39) = (   0.0714286   0.4285714   0.0000000), wk =   0.0306122
        k(   40) = (   0.0714286   0.4642857   0.0000000), wk =   0.0153061
        k(   41) = (   0.1071429   0.1071429   0.0000000), wk =   0.0153061
        k(   42) = (   0.1071429   0.1428571   0.0000000), wk =   0.0306122
        k(   43) = (   0.1071429   0.1785714   0.0000000), wk =   0.0306122
        k(   44) = (   0.1071429   0.2142857   0.0000000), wk =   0.0306122
        k(   45) = (   0.1071429   0.2500000   0.0000000), wk =   0.0306122
        k(   46) = (   0.1071429   0.2857143   0.0000000), wk =   0.0306122
        k(   47) = (   0.1071429   0.3214286   0.0000000), wk =   0.0306122
        k(   48) = (   0.1071429   0.3571429   0.0000000), wk =   0.0306122
        k(   49) = (   0.1071429   0.3928571   0.0000000), wk =   0.0306122
        k(   50) = (   0.1071429   0.4285714   0.0000000), wk =   0.0306122
        k(   51) = (   0.1428571   0.1428571   0.0000000), wk =   0.0153061
        k(   52) = (   0.1428571   0.1785714   0.0000000), wk =   0.0306122
        k(   53) = (   0.1428571   0.2142857   0.0000000), wk =   0.0306122
        k(   54) = (   0.1428571   0.2500000   0.0000000), wk =   0.0306122
        k(   55) = (   0.1428571   0.2857143   0.0000000), wk =   0.0306122
        k(   56) = (   0.1428571   0.3214286   0.0000000), wk =   0.0306122
        k(   57) = (   0.1428571   0.3571429   0.0000000), wk =   0.0306122
        k(   58) = (   0.1428571   0.3928571   0.0000000), wk =   0.0306122
        k(   59) = (   0.1428571   0.4285714   0.0000000), wk =   0.0153061
        k(   60) = (   0.1785714   0.1785714   0.0000000), wk =   0.0153061
        k(   61) = (   0.1785714   0.2142857   0.0000000), wk =   0.0306122
        k(   62) = (   0.1785714   0.2500000   0.0000000), wk =   0.0306122
        k(   63) = (   0.1785714   0.2857143   0.0000000), wk =   0.0306122
        k(   64) = (   0.1785714   0.3214286   0.0000000), wk =   0.0306122
        k(   65) = (   0.1785714   0.3571429   0.0000000), wk =   0.0306122
        k(   66) = (   0.1785714   0.3928571   0.0000000), wk =   0.0306122
        k(   67) = (   0.2142857   0.2142857   0.0000000), wk =   0.0153061
        k(   68) = (   0.2142857   0.2500000   0.0000000), wk =   0.0306122
        k(   69) = (   0.2142857   0.2857143   0.0000000), wk =   0.0306122
        k(   70) = (   0.2142857   0.3214286   0.0000000), wk =   0.0306122
        k(   71) = (   0.2142857   0.3571429   0.0000000), wk =   0.0306122
        k(   72) = (   0.2142857   0.3928571   0.0000000), wk =   0.0153061
        k(   73) = (   0.2500000   0.2500000   0.0000000), wk =   0.0153061
        k(   74) = (   0.2500000   0.2857143   0.0000000), wk =   0.0306122
        k(   75) = (   0.2500000   0.3214286   0.0000000), wk =   0.0306122
        k(   76) = (   0.2500000   0.3571429   0.0000000), wk =   0.0306122
        k(   77) = (   0.2857143   0.2857143   0.0000000), wk =   0.0153061
        k(   78) = (   0.2857143   0.3214286   0.0000000), wk =   0.0306122
        k(   79) = (   0.2857143   0.3571429   0.0000000), wk =   0.0153061
        k(   80) = (   0.3214286   0.3214286   0.0000000), wk =   0.0153061

     Dense  grid:     6307 G-vectors     FFT dimensions: (  15,  15,  80)

     Dynamical RAM for                 wfc:       0.10 MB

     Dynamical RAM for     wfc (w. buffer):       7.72 MB

     Dynamical RAM for           str. fact:       0.10 MB

     Dynamical RAM for           local pot:       0.00 MB

     Dynamical RAM for          nlocal pot:       0.19 MB

     Dynamical RAM for                qrad:       0.21 MB

     Dynamical RAM for          rho,v,vnew:       0.70 MB

     Dynamical RAM for               rhoin:       0.23 MB

     Dynamical RAM for            rho*nmix:       1.54 MB

     Dynamical RAM for           G-vectors:       0.41 MB

     Dynamical RAM for          h,s,v(r/c):       0.01 MB

     Dynamical RAM for          <psi|beta>:       0.00 MB

     Dynamical RAM for                 psi:       0.19 MB

     Dynamical RAM for                hpsi:       0.19 MB

     Dynamical RAM for      wfcinit/wfcrot:       0.19 MB

     Estimated static dynamical RAM per process >      10.44 MB

     Estimated max dynamical RAM per process >      12.37 MB

     Check: negative core charge=   -0.000072

     Initial potential from superposition of free atoms

     starting charge       7.9999, renormalised to       8.0000

     negative rho (up, down):  9.135E-03 0.000E+00
     Starting wfcs are    8 randomized atomic wfcs

     total cpu time spent up to now is        0.5 secs

     Self-consistent Calculation

     iteration #  1     ecut=    20.00 Ry     beta= 0.70
     Davidson diagonalization with overlap

---- Real-time Memory Report at c_bands before calling an iterative solver
             0 MiB given to the printing process from OS
             0 MiB allocation reported by mallinfo(arena+hblkhd)
             0 MiB available memory on the node where the printing process lives
------------------
     ethr =  1.00E-02,  avg # of iterations =  7.1

     negative rho (up, down):  2.411E-03 0.000E+00

     total cpu time spent up to now is        1.2 secs

     WARNING: integrated charge=     8.00000733, expected=     8.00000000

     total energy              =     -23.40115052 Ry
     estimated scf accuracy    <       0.12327599 Ry

     iteration #  2     ecut=    20.00 Ry     beta= 0.70
     Davidson diagonalization with overlap

---- Real-time Memory Report at c_bands before calling an iterative solver
             0 MiB given to the printing process from OS
             0 MiB allocation reported by mallinfo(arena+hblkhd)
             0 MiB available memory on the node where the printing process lives
------------------
     ethr =  1.54E-03,  avg # of iterations =  3.8

     negative rho (up, down):  3.536E-04 0.000E+00

     total cpu time spent up to now is        1.6 secs

     WARNING: integrated charge=     8.00000818, expected=     8.00000000

     total energy              =     -23.41267933 Ry
     estimated scf accuracy    <       0.00395014 Ry

     iteration #  3     ecut=    20.00 Ry     beta= 0.70
     Davidson diagonalization with overlap

---- Real-time Memory Report at c_bands before calling an iterative solver
             0 MiB given to the printing process from OS
             0 MiB allocation reported by mallinfo(arena+hblkhd)
             0 MiB available memory on the node where the printing process lives
------------------
     c_bands:  1 eigenvalues not converged
     c_bands:  1 eigenvalues not converged
     ethr =  4.94E-05,  avg # of iterations =  8.2

     total cpu time spent up to now is        2.3 secs

     WARNING: integrated charge=     8.00000880, expected=     8.00000000

     total energy              =     -23.41281723 Ry
     estimated scf accuracy    <       0.00017892 Ry

     iteration #  4     ecut=    20.00 Ry     beta= 0.70
     Davidson diagonalization with overlap

---- Real-time Memory Report at c_bands before calling an iterative solver
             0 MiB given to the printing process from OS
             0 MiB allocation reported by mallinfo(arena+hblkhd)
             0 MiB available memory on the node where the printing process lives
------------------
     c_bands:  1 eigenvalues not converged
     c_bands:  1 eigenvalues not converged
     c_bands:  1 eigenvalues not converged
     c_bands:  2 eigenvalues not converged
     c_bands:  1 eigenvalues not converged
     ethr =  2.24E-06,  avg # of iterations =  7.3

     total cpu time spent up to now is        2.8 secs

     End of self-consistent calculation

          k = 0.0000 0.0000 0.0000 (   801 PWs)   bands (ev):

   -21.8716  -9.6359  -4.6229  -4.6229   1.0368   1.8859   2.0416   4.2482

     occupation numbers 
     1.0000   1.0000   1.0000   1.0000   0.0000   0.0000   0.0000   0.0000

          k = 0.0000 0.0412 0.0000 (   795 PWs)   bands (ev):

   -21.8354  -9.5955  -4.7059  -4.6660   1.0789   1.9281   2.0837   4.2901

     occupation numbers 
     1.0000   1.0000   1.0000   1.0000   0.0000   0.0000   0.0000   0.0000

          k = 0.0000 0.0825 0.0000 (   799 PWs)   bands (ev):

   -21.7475  -9.5015  -5.1177  -4.8741   1.2044   2.0532   2.2093   4.4116

     occupation numbers 
     1.0000   1.0000   1.0000   1.0000   0.0000   0.0000   0.0000   0.0000

          k = 0.0000 0.1237 0.0000 (   791 PWs)   bands (ev):

   -21.5794  -9.3127  -5.6472  -5.1507   1.4143   2.2636   2.4194   4.6185

     occupation numbers 
     1.0000   1.0000   1.0000   1.0000   0.0000   0.0000   0.0000   0.0000

          k = 0.0000 0.1650 0.0000 (   793 PWs)   bands (ev):

   -21.3539  -9.0551  -6.4335  -5.5147   1.7076   2.5577   2.7132   4.9066

     occupation numbers 
     1.0000   1.0000   1.0000   1.0000   0.0000   0.0000   0.0000   0.0000

          k = 0.0000 0.2062 0.0000 (   786 PWs)   bands (ev):

   -21.0830  -8.6982  -7.2424  -5.8993   2.0829   2.9369   3.0893   5.2791

     occupation numbers 
     1.0000   1.0000   1.0000   1.0000   0.0000   0.0000   0.0000   0.0000

          k = 0.0000 0.2474 0.0000 (   780 PWs)   bands (ev):

   -20.7414  -8.2962  -8.1421  -6.2885   2.5427   3.3972   3.5501   5.7209

     occupation numbers 
     1.0000   1.0000   1.0000   1.0000   0.0000   0.0000   0.0000   0.0000

          k = 0.0000 0.2887 0.0000 (   780 PWs)   bands (ev):

   -20.3411  -9.1058  -7.8275  -6.7578   3.0855   3.9373   4.0942   6.0950

     occupation numbers 
     1.0000   1.0000   1.0000   1.0000   0.0000   0.0000   0.0000   0.0000

          k = 0.0000 0.3299 0.0000 (   766 PWs)   bands (ev):

   -19.8719 -10.0282  -7.2866  -7.0721   3.7113   4.5257   4.7219   5.2470

     occupation numbers 
     1.0000   1.0000   1.0000   1.0000   0.0000   0.0000   0.0000   0.0000

          k = 0.0000 0.3712 0.0000 (   778 PWs)   bands (ev):

   -19.3801 -11.0656  -7.4007  -6.7189   4.0146   4.4175   5.3266   5.4288

     occupation numbers 
     1.0000   1.0000   1.0000   1.0000   0.0000   0.0000   0.0000   0.0000

          k = 0.0000 0.4124 0.0000 (   780 PWs)   bands (ev):

   -18.8144 -12.0999  -7.6856  -6.0631   2.9398   5.2039   5.9362   6.1056

     occupation numbers 
     1.0000   1.0000   1.0000   1.0000   0.0000   0.0000   0.0000   0.0000

          k = 0.0000 0.4536 0.0000 (   784 PWs)   bands (ev):

   -18.1851 -13.0813  -7.9304  -5.4063   1.9072   5.7684   6.0927   6.9791

     occupation numbers 
     1.0000   1.0000   1.0000   1.0000   0.0000   0.0000   0.0000   0.0000

          k = 0.0000 0.4949 0.0000 (   792 PWs)   bands (ev):

   -17.5129 -14.0357  -8.1024  -4.7786   0.9846   5.6530   7.0343   7.9336

     occupation numbers 
     1.0000   1.0000   1.0000   1.0000   0.0000   0.0000   0.0000   0.0000

          k = 0.0000 0.5361 0.0000 (   792 PWs)   bands (ev):

   -16.8338 -14.8823  -8.1952  -4.2695   0.3248   5.5955   8.0603   8.9689

     occupation numbers 
     1.0000   1.0000   1.0000   1.0000   0.0000   0.0000   0.0000   0.0000

          k = 0.0000-0.5774 0.0000 (   782 PWs)   bands (ev):

   -16.3660 -15.3679  -8.2007  -4.0365   0.0795   5.5983   9.1353   9.1947

     occupation numbers 
     1.0000   1.0000   1.0000   1.0000   0.0000   0.0000   0.0000   0.0000

          k = 0.0357 0.0619 0.0000 (   799 PWs)   bands (ev):

   -21.7762  -9.5302  -4.9863  -4.8353   1.1626   2.0117   2.1674   4.3714

     occupation numbers 
     1.0000   1.0000   1.0000   1.0000   0.0000   0.0000   0.0000   0.0000

          k = 0.0357 0.1031 0.0000 (   795 PWs)   bands (ev):

   -21.6470  -9.3883  -5.4176  -5.0875   1.3303   2.1795   2.3353   4.5357

     occupation numbers 
     1.0000   1.0000   1.0000   1.0000   0.0000   0.0000   0.0000   0.0000

          k = 0.0357 0.1443 0.0000 (   797 PWs)   bands (ev):

   -21.4529  -9.1659  -6.1098  -5.4507   1.5818   2.4317   2.5872   4.7835

     occupation numbers 
     1.0000   1.0000   1.0000   1.0000   0.0000   0.0000   0.0000   0.0000

          k = 0.0357 0.1856 0.0000 (   792 PWs)   bands (ev):

   -21.2072  -8.8571  -6.8477  -5.8278   1.9160   2.7685   2.9220   5.1139

     occupation numbers 
     1.0000   1.0000   1.0000   1.0000   0.0000   0.0000   0.0000   0.0000

          k = 0.0357 0.2268 0.0000 (   786 PWs)   bands (ev):

   -20.8915  -8.4748  -7.7170  -6.2421   2.3341   3.1886   3.3410   5.5236

     occupation numbers 
     1.0000   1.0000   1.0000   1.0000   0.0000   0.0000   0.0000   0.0000

          k = 0.0357 0.2681 0.0000 (   775 PWs)   bands (ev):

   -20.5181  -8.5854  -8.0422  -6.6232   2.8356   3.6892   3.8437   5.9878

     occupation numbers 
     1.0000   1.0000   1.0000   1.0000   0.0000   0.0000   0.0000   0.0000

          k = 0.0357 0.3093 0.0000 (   772 PWs)   bands (ev):

   -20.0933  -9.5652  -7.5382  -6.9804   3.4194   4.2639   4.4291   5.7069

     occupation numbers 
     1.0000   1.0000   1.0000   1.0000   0.0000   0.0000   0.0000   0.0000

          k = 0.0357 0.3505 0.0000 (   775 PWs)   bands (ev):

   -19.6206 -10.5483  -7.3390  -6.9840   4.0850   4.5078   5.0412   5.0970

     occupation numbers 
     1.0000   1.0000   1.0000   1.0000   0.0000   0.0000   0.0000   0.0000

          k = 0.0357 0.3918 0.0000 (   775 PWs)   bands (ev):

   -19.0777 -11.5878  -7.6346  -6.3480   3.4637   4.8327   5.7322   5.8416

     occupation numbers 
     1.0000   1.0000   1.0000   1.0000   0.0000   0.0000   0.0000   0.0000

          k = 0.0357 0.4330 0.0000 (   775 PWs)   bands (ev):

   -18.4639 -12.5887  -7.8829  -5.7047   2.4195   5.6574   6.0223   6.5599

     occupation numbers 
     1.0000   1.0000   1.0000   1.0000   0.0000   0.0000   0.0000   0.0000

          k = 0.0357 0.4743 0.0000 (   784 PWs)   bands (ev):

   -17.8323 -13.5381  -8.0981  -5.0570   1.4259   5.8670   6.5819   7.4746

     occupation numbers 
     1.0000   1.0000   1.0000   1.0000   0.0000   0.0000   0.0000   0.0000

          k = 0.0357 0.5155 0.0000 (   786 PWs)   bands (ev):

   -17.1319 -14.4502  -8.2183  -4.4689   0.6180   5.7776   7.5695   8.4664

     occupation numbers 
     1.0000   1.0000   1.0000   1.0000   0.0000   0.0000   0.0000   0.0000

          k = 0.0357 0.5567 0.0000 (   784 PWs)   bands (ev):

   -16.4992 -15.1870  -8.2870  -4.0725   0.1399   5.7480   8.6328   9.5344

     occupation numbers 
     1.0000   1.0000   1.0000   1.0000   0.0000   0.0000   0.0000   0.0000

          k = 0.0714 0.1237 0.0000 (   795 PWs)   bands (ev):

   -21.4891  -9.2144  -5.9006  -5.4251   1.5398   2.3889   2.5452   4.7403

     occupation numbers 
     1.0000   1.0000   1.0000   1.0000   0.0000   0.0000   0.0000   0.0000

          k = 0.0714 0.1650 0.0000 (   791 PWs)   bands (ev):

   -21.2562  -8.9434  -6.5933  -5.8219   1.8335   2.6837   2.8392   5.0302

     occupation numbers 
     1.0000   1.0000   1.0000   1.0000   0.0000   0.0000   0.0000   0.0000

          k = 0.0714 0.2062 0.0000 (   792 PWs)   bands (ev):

   -20.9944  -8.6111  -7.3513  -6.2465   2.2086   3.0614   3.2153   5.3993

     occupation numbers 
     1.0000   1.0000   1.0000   1.0000   0.0000   0.0000   0.0000   0.0000

          k = 0.0714 0.2474 0.0000 (   780 PWs)   bands (ev):

   -20.6564  -8.1860  -8.1392  -6.6775   2.6677   3.5232   3.6756   5.8454

     occupation numbers 
     1.0000   1.0000   1.0000   1.0000   0.0000   0.0000   0.0000   0.0000

          k = 0.0714 0.2887 0.0000 (   776 PWs)   bands (ev):

   -20.2625  -9.0677  -7.7125  -7.1176   3.2100   4.0638   4.2195   6.1064

     occupation numbers 
     1.0000   1.0000   1.0000   1.0000   0.0000   0.0000   0.0000   0.0000

          k = 0.0714 0.3299 0.0000 (   778 PWs)   bands (ev):

   -19.8176 -10.0574  -7.4834  -7.1905   3.8345   4.6413   4.8466   5.1479

     occupation numbers 
     1.0000   1.0000   1.0000   1.0000   0.0000   0.0000   0.0000   0.0000

          k = 0.0714 0.3712 0.0000 (   783 PWs)   bands (ev):

   -19.3014 -11.0419  -7.8602  -6.5952   3.9332   4.5423   5.4361   5.5569

     occupation numbers 
     1.0000   1.0000   1.0000   1.0000   0.0000   0.0000   0.0000   0.0000

          k = 0.0714 0.4124 0.0000 (   781 PWs)   bands (ev):

   -18.7199 -12.0548  -8.1309  -5.9486   2.8800   5.3314   6.2203   6.3384

     occupation numbers 
     1.0000   1.0000   1.0000   1.0000   0.0000   0.0000   0.0000   0.0000

          k = 0.0714 0.4536 0.0000 (   779 PWs)   bands (ev):

   -18.0957 -13.0069  -8.3351  -5.2978   1.8906   6.1892   6.3980   7.0907

     occupation numbers 
     1.0000   1.0000   1.0000   1.0000   0.0000   0.0000   0.0000   0.0000

          k = 0.0714 0.4949 0.0000 (   781 PWs)   bands (ev):

   -17.4147 -13.9490  -8.4852  -4.6636   0.9933   6.2661   7.1577   8.0414

     occupation numbers 
     1.0000   1.0000   1.0000   1.0000   0.0000   0.0000   0.0000   0.0000

          k = 0.0714 0.5361 0.0000 (   782 PWs)   bands (ev):

   -16.7294 -14.7983  -8.5992  -4.1392   0.3204   6.2047   8.1821   9.0621

     occupation numbers 
     1.0000   1.0000   1.0000   1.0000   0.0000   0.0000   0.0000   0.0000

          k = 0.0714 0.5774 0.0000 (   782 PWs)   bands (ev):

   -16.2755 -15.2849  -8.6443  -3.9200   0.0524   6.1887   9.2507   9.3136

     occupation numbers 
     1.0000   1.0000   1.0000   1.0000   0.0000   0.0000   0.0000   0.0000

          k = 0.1071 0.1856 0.0000 (   799 PWs)   bands (ev):

   -21.0428  -8.6506  -7.1441  -6.3760   2.1659   3.0195   3.1725   5.3585

     occupation numbers 
     1.0000   1.0000   1.0000   1.0000   0.0000   0.0000   0.0000   0.0000

          k = 0.1071 0.2268 0.0000 (   782 PWs)   bands (ev):

   -20.7235  -8.2656  -7.7998  -6.8563   2.5841   3.4397   3.5919   5.7692

     occupation numbers 
     1.0000   1.0000   1.0000   1.0000   0.0000   0.0000   0.0000   0.0000

          k = 0.1071 0.2681 0.0000 (   785 PWs)   bands (ev):

   -20.3636  -8.6667  -7.8315  -7.3479   3.0847   3.9407   4.0940   6.2266

     occupation numbers 
     1.0000   1.0000   1.0000   1.0000   0.0000   0.0000   0.0000   0.0000

          k = 0.1071 0.3093 0.0000 (   782 PWs)   bands (ev):

   -19.9487  -9.5797  -7.7493  -7.3432   3.6680   4.5151   4.6796   5.4691

     occupation numbers 
     1.0000   1.0000   1.0000   1.0000   0.0000   0.0000   0.0000   0.0000

          k = 0.1071 0.3505 0.0000 (   782 PWs)   bands (ev):

   -19.4591 -10.5384  -8.1251  -6.7747   4.3346   4.3675   5.2208   5.3494

     occupation numbers 
     1.0000   1.0000   1.0000   1.0000   0.0000   0.0000   0.0000   0.0000

          k = 0.1071 0.3918 0.0000 (   786 PWs)   bands (ev):

   -18.9247 -11.5055  -8.4419  -6.1666   3.3110   5.0821   5.9574   6.1007

     occupation numbers 
     1.0000   1.0000   1.0000   1.0000   0.0000   0.0000   0.0000   0.0000

          k = 0.1071 0.4330 0.0000 (   781 PWs)   bands (ev):

   -18.3083 -12.4512  -8.6907  -5.5026   2.2959   5.9121   6.7895   6.9654

     occupation numbers 
     1.0000   1.0000   1.0000   1.0000   0.0000   0.0000   0.0000   0.0000

          k = 0.1071 0.4743 0.0000 (   777 PWs)   bands (ev):

   -17.6526 -13.3986  -8.8756  -4.8281   1.3782   6.8141   7.0324   7.6915

     occupation numbers 
     1.0000   1.0000   1.0000   1.0000   0.0000   0.0000   0.0000   0.0000

          k = 0.1071 0.5155 0.0000 (   777 PWs)   bands (ev):

   -16.9610 -14.2829  -9.0041  -4.2228   0.5704   6.9260   7.8120   8.6614

     occupation numbers 
     1.0000   1.0000   1.0000   1.0000   0.0000   0.0000   0.0000   0.0000

          k = 0.1071 0.5567 0.0000 (   774 PWs)   bands (ev):

   -16.3156 -15.0153  -9.0758  -3.8249   0.0842   6.8889   8.8704   9.6602

     occupation numbers 
     1.0000   1.0000   1.0000   1.0000   0.0000   0.0000   0.0000   0.0000

          k = 0.1429 0.2474 0.0000 (   785 PWs)   bands (ev):

   -20.4019  -8.4646  -7.8608  -7.4532   3.0425   3.9003   4.0518   6.2177

     occupation numbers 
     1.0000   1.0000   1.0000   1.0000   0.0000   0.0000   0.0000   0.0000

          k = 0.1429 0.2887 0.0000 (   785 PWs)   bands (ev):

   -20.0110  -9.2397  -7.9919  -7.4058   3.5846   4.4408   4.5960   5.6519

     occupation numbers 
     1.0000   1.0000   1.0000   1.0000   0.0000   0.0000   0.0000   0.0000

          k = 0.1429 0.3299 0.0000 (   784 PWs)   bands (ev):

   -19.5650 -10.0974  -8.4727  -6.8665   4.2087   4.6648   5.0822   5.2232

     occupation numbers 
     1.0000   1.0000   1.0000   1.0000   0.0000   0.0000   0.0000   0.0000

          k = 0.1429 0.3712 0.0000 (   776 PWs)   bands (ev):

   -19.0310 -10.9870  -8.8166  -6.2763   3.6967   4.9170   5.7797   5.9351

     occupation numbers 
     1.0000   1.0000   1.0000   1.0000   0.0000   0.0000   0.0000   0.0000

          k = 0.1429 0.4124 0.0000 (   776 PWs)   bands (ev):

   -18.4607 -11.8966  -9.1067  -5.6489   2.6811   5.7052   6.5622   6.7285

     occupation numbers 
     1.0000   1.0000   1.0000   1.0000   0.0000   0.0000   0.0000   0.0000

          k = 0.1429 0.4536 0.0000 (   776 PWs)   bands (ev):

   -17.8458 -12.8147  -9.3638  -4.9797   1.7350   6.5724   7.4185   7.6015

     occupation numbers 
     1.0000   1.0000   1.0000   1.0000   0.0000   0.0000   0.0000   0.0000

          k = 0.1429 0.4949 0.0000 (   776 PWs)   bands (ev):

   -17.1667 -13.7232  -9.5381  -4.3327   0.8825   7.5183   7.8637   8.3318

     occupation numbers 
     1.0000   1.0000   1.0000   1.0000   0.0000   0.0000   0.0000   0.0000

          k = 0.1429 0.5361 0.0000 (   776 PWs)   bands (ev):

   -16.4825 -14.5422  -9.6722  -3.8035   0.2361   7.8080   8.5419   9.2550

     occupation numbers 
     1.0000   1.0000   1.0000   1.0000   0.0000   0.0000   0.0000   0.0000

          k = 0.1429 0.5774 0.0000 (   776 PWs)   bands (ev):

   -16.0362 -15.0450  -9.6916  -3.5764  -0.0295   7.7801   9.5926   9.6647

     occupation numbers 
     1.0000   1.0000   1.0000   1.0000   0.0000   0.0000   0.0000   0.0000

          k = 0.1786 0.3093 0.0000 (   775 PWs)   bands (ev):

   -19.5830  -9.8362  -8.6555  -6.8956   4.1681   4.8032   5.0240   5.1821

     occupation numbers 
     1.0000   1.0000   1.0000   1.0000   0.0000   0.0000   0.0000   0.0000

          k = 0.1786 0.3505 0.0000 (   781 PWs)   bands (ev):

   -19.1097 -10.6017  -9.2167  -6.3439   3.8895   4.8327   5.6853   5.8509

     occupation numbers 
     1.0000   1.0000   1.0000   1.0000   0.0000   0.0000   0.0000   0.0000

          k = 0.1786 0.3918 0.0000 (   783 PWs)   bands (ev):

   -18.5666 -11.4472  -9.6280  -5.7378   2.9590   5.5798   6.4227   6.6030

     occupation numbers 
     1.0000   1.0000   1.0000   1.0000   0.0000   0.0000   0.0000   0.0000

          k = 0.1786 0.4330 0.0000 (   783 PWs)   bands (ev):

   -17.9598 -12.2864  -9.9378  -5.0915   2.0257   6.4078   7.2280   7.4381

     occupation numbers 
     1.0000   1.0000   1.0000   1.0000   0.0000   0.0000   0.0000   0.0000

          k = 0.1786 0.4743 0.0000 (   778 PWs)   bands (ev):

   -17.3096 -13.1561 -10.1530  -4.4093   1.1593   7.3134   8.0806   8.3536

     occupation numbers 
     1.0000   1.0000   1.0000   1.0000   0.0000   0.0000   0.0000   0.0000

          k = 0.1786 0.5155 0.0000 (   780 PWs)   bands (ev):

   -16.6286 -14.0093 -10.3012  -3.8017   0.3958   8.2932   8.8360   8.8966

     occupation numbers 
     1.0000   1.0000   1.0000   1.0000   0.0000   0.0000   0.0000   0.0000

          k = 0.1786 0.5567 0.0000 (   780 PWs)   bands (ev):

   -16.0040 -14.7158 -10.3750  -3.4000  -0.0708   8.8039   9.3393   9.4201

     occupation numbers 
     1.0000   1.0000   1.0000   1.0000   0.0000   0.0000   0.0000   0.0000

          k = 0.2143 0.3712 0.0000 (   775 PWs)   bands (ev):

   -18.5785 -11.1921  -9.8412  -5.7600   3.0916   5.5396   6.3757   6.5622

     occupation numbers 
     1.0000   1.0000   1.0000   1.0000   0.0000   0.0000   0.0000   0.0000

          k = 0.2143 0.4124 0.0000 (   787 PWs)   bands (ev):

   -18.0359 -11.8998 -10.3628  -5.1451   2.1995   6.3236   7.1289   7.3537

     occupation numbers 
     1.0000   1.0000   1.0000   1.0000   0.0000   0.0000   0.0000   0.0000

          k = 0.2143 0.4536 0.0000 (   783 PWs)   bands (ev):

   -17.4019 -12.6431 -10.7023  -4.4780   1.3573   7.1892   7.9144   8.2289

     occupation numbers 
     1.0000   1.0000   1.0000   1.0000   0.0000   0.0000   0.0000   0.0000

          k = 0.2143 0.4949 0.0000 (   778 PWs)   bands (ev):

   -16.7378 -13.4384 -10.9063  -3.8143   0.5842   8.1282   8.6130   9.1831

     occupation numbers 
     1.0000   1.0000   1.0000   1.0000   0.0000   0.0000   0.0000   0.0000

          k = 0.2143 0.5361 0.0000 (   780 PWs)   bands (ev):

   -16.0701 -14.2112 -11.0516  -3.2607  -0.0459   8.9758   9.1337   9.9138

     occupation numbers 
     1.0000   1.0000   1.0000   1.0000   0.0000   0.0000   0.0000   0.0000

          k = 0.2143 0.5774 0.0000 (   786 PWs)   bands (ev):

   -15.6450 -14.6925 -11.1045  -3.0277  -0.3290   9.0448   9.8723  10.1537

     occupation numbers 
     1.0000   1.0000   1.0000   1.0000   0.0000   0.0000   0.0000   0.0000

          k = 0.2500 0.4330 0.0000 (   781 PWs)   bands (ev):

   -17.4322 -12.3920 -10.9699  -4.4909   1.4571   7.1476   7.8566   8.1870

     occupation numbers 
     1.0000   1.0000   1.0000   1.0000   0.0000   0.0000   0.0000   0.0000

          k = 0.2500 0.4743 0.0000 (   779 PWs)   bands (ev):

   -16.7939 -13.0024 -11.3833  -3.8324   0.7076   8.0453   8.4479   9.0997

     occupation numbers 
     1.0000   1.0000   1.0000   1.0000   0.0000   0.0000   0.0000   0.0000

          k = 0.2500 0.5155 0.0000 (   778 PWs)   bands (ev):

   -16.1277 -13.6976 -11.6329  -3.1881   0.0042   8.6597   9.0102  10.0894

     occupation numbers 
     1.0000   1.0000   1.0000   1.0000   0.0000   0.0000   0.0000   0.0000

          k = 0.2500 0.5567 0.0000 (   780 PWs)   bands (ev):

   -15.5099 -14.3489 -11.7557  -2.7216  -0.4963   8.6604  10.0234  10.9456

     occupation numbers 
     1.0000   1.0000   1.0000   1.0000   0.0000   0.0000   0.0000   0.0000

          k = 0.2857 0.4949 0.0000 (   777 PWs)   bands (ev):

   -16.1506 -13.4395 -11.9192  -3.1528   0.0268   8.5459   8.9693  10.0476

     occupation numbers 
     1.0000   1.0000   1.0000   1.0000   0.0000   0.0000   0.0000   0.0000

          k = 0.2857 0.5361 0.0000 (   772 PWs)   bands (ev):

   -15.4860 -13.9468 -12.2293  -2.5232  -0.5890   8.4394   9.9450  11.0661

     occupation numbers 
     1.0000   1.0000   1.0000   1.0000   0.0000   0.0000   0.0000   0.0000

          k = 0.2857 0.5774 0.0000 (   770 PWs)   bands (ev):

   -15.0483 -14.3631 -12.3086  -2.1936  -0.9205   8.3846  10.8714  10.9758

     occupation numbers 
     1.0000   1.0000   1.0000   1.0000   0.0000   0.0000   0.0000   0.0000

          k = 0.3214 0.5567 0.0000 (   771 PWs)   bands (ev):

   -14.9054 -14.3031 -12.5770  -1.9136  -1.1843   8.2837  10.8747  11.5938

     occupation numbers 
     1.0000   1.0000   1.0000   1.0003   0.0003   0.0000   0.0000   0.0000

     the Fermi energy is    -1.4601 ev

     WARNING: integrated charge=     8.00000892, expected=     8.00000000

!    total energy              =     -23.41282979 Ry
     estimated scf accuracy    <       0.00000043 Ry
     smearing contrib. (-TS)   =       0.00000007 Ry
     internal energy E=F+TS    =     -23.41282985 Ry

     The total energy is F=E-TS. E is the sum of the following terms:
     one-electron contribution =    -153.67142221 Ry
     hartree contribution      =      78.21131364 Ry
     xc contribution           =      -8.39545737 Ry
     ewald contribution        =      60.44273608 Ry

     convergence has been achieved in   4 iterations

     Forces acting on atoms (cartesian axes, Ry/au):

     atom    1 type  1   force =     0.00000000    0.00000000    0.00000000
     atom    2 type  1   force =    -0.00000000   -0.00000000    0.00000000
     The non-local contrib.  to forces
     atom    1 type  1   force =    -0.00000000    0.00000000   -0.00000000
     atom    2 type  1   force =     0.00000000    0.00000000    0.00000000
     The ionic contribution  to forces
     atom    1 type  1   force =    -0.00000001    0.00000000   -0.00000000
     atom    2 type  1   force =     0.00000001   -0.00000000   -0.00000000
     The local contribution  to forces
     atom    1 type  1   force =    -0.00000000   -0.00000000   -0.00000000
     atom    2 type  1   force =     0.00000000   -0.00000000   -0.00000000
     The core correction contribution to forces
     atom    1 type  1   force =     0.00000000   -0.00000000    0.00000000
     atom    2 type  1   force =    -0.00000000    0.00000000   -0.00000000
     The Hubbard contrib.    to forces
     atom    1 type  1   force =     0.00000000    0.00000000    0.00000000
     atom    2 type  1   force =     0.00000000    0.00000000    0.00000000
     The SCF correction term to forces
     atom    1 type  1   force =     0.00000000   -0.00000000    0.00000000
     atom    2 type  1   force =    -0.00000000    0.00000000    0.00000000

     Total force =     0.000000     Total SCF correction =     0.000000


     Computing stress (Cartesian axis) and pressure

          total   stress  (Ry/bohr**3)                   (kbar)     P=     -192.36
  -0.00106508   0.00000000   0.00000000         -156.68        0.00        0.00
   0.00000000  -0.00106508  -0.00000000            0.00     -156.68       -0.00
   0.00000000  -0.00000000  -0.00179283            0.00       -0.00     -263.73

     kinetic stress (kbar)   2772.20      0.00      0.00
                                0.00   2772.20      0.00
                                0.00      0.00   3034.06

     local   stress (kbar) -46952.87      0.00      0.00
                                0.00 -46952.87      0.00
                                0.00      0.00  47801.73

     nonloc. stress (kbar)   -150.21      0.00      0.00
                                0.00   -150.21      0.00
                                0.00      0.00    -98.01

     hartree stress (kbar)  22035.99     -0.00     -0.00
                               -0.00  22035.99     -0.00
                               -0.00     -0.00 -21835.50

     exc-cor stress (kbar)   -243.35      0.00      0.00
                                0.00   -243.35      0.00
                                0.00      0.00   -243.35

     corecor stress (kbar)   -451.95      0.00     -0.00
                                0.00   -451.95     -0.00
                               -0.00     -0.00   -440.30

     ewald   stress (kbar)  22833.51     -0.00     -0.00
                               -0.00  22833.51     -0.00
                               -0.00     -0.00 -28482.36

     hubbard stress (kbar)      0.00      0.00      0.00
                                0.00      0.00      0.00
                                0.00      0.00      0.00

     DFT-D   stress (kbar)      0.00      0.00      0.00
                                0.00      0.00      0.00
                                0.00      0.00      0.00

     XDM     stress (kbar)      0.00      0.00      0.00
                                0.00      0.00      0.00
                                0.00      0.00      0.00

     dft-nl  stress (kbar)      0.00      0.00      0.00
                                0.00      0.00      0.00
                                0.00      0.00      0.00

     TS-vdW  stress (kbar)      0.00      0.00      0.00
                                0.00      0.00      0.00
                                0.00      0.00      0.00

     MDB     stress (kbar)      0.00      0.00      0.00
                                0.00      0.00      0.00
                                0.00      0.00      0.00

     3D-RISM stress (kbar)      0.00      0.00      0.00
                                0.00      0.00      0.00
                                0.00      0.00      0.00


     Writing all to output data dir ./tmp/graphene.save/

     init_run     :      0.51s CPU      0.51s WALL (       1 calls)
     electrons    :      2.73s CPU      2.30s WALL (       1 calls)
     forces       :      0.04s CPU      0.04s WALL (       1 calls)
     stress       :      0.29s CPU      0.30s WALL (       1 calls)

     Called by init_run:
     wfcinit      :      0.26s CPU      0.26s WALL (       1 calls)
     wfcinit:atom :      0.01s CPU      0.01s WALL (      80 calls)
     wfcinit:wfcr :      0.23s CPU      0.23s WALL (      80 calls)
     potinit      :      0.00s CPU      0.00s WALL (       1 calls)
     hinit0       :      0.24s CPU      0.24s WALL (       1 calls)

     Called by electrons:
     c_bands      :      2.56s CPU      2.13s WALL (       4 calls)
     sum_band     :      0.16s CPU      0.17s WALL (       4 calls)
     v_of_rho     :      0.00s CPU      0.01s WALL (       5 calls)
     v_h          :      0.00s CPU      0.00s WALL (       5 calls)
     v_xc         :      0.00s CPU      0.01s WALL (       7 calls)
     mix_rho      :      0.00s CPU      0.00s WALL (       4 calls)

     Called by c_bands:
     init_us_2    :      0.07s CPU      0.07s WALL (     880 calls)
     init_us_2:cp :      0.07s CPU      0.07s WALL (     880 calls)
     cegterg      :      2.47s CPU      2.04s WALL (     320 calls)

     Called by sum_band:
     sum_band:wei :      0.00s CPU      0.00s WALL (       4 calls)
     sum_band:loo :      0.16s CPU      0.16s WALL (       4 calls)
     sum_band:buf :      0.00s CPU      0.00s WALL (     320 calls)
     sum_band:ini :      0.02s CPU      0.02s WALL (     320 calls)

     Called by *egterg:
     cdiaghg      :      0.17s CPU      0.17s WALL (    2426 calls)
     cegterg:over :      0.15s CPU      0.15s WALL (    2106 calls)
     cegterg:upda :      0.33s CPU      0.15s WALL (    2106 calls)
     cegterg:last :      0.22s CPU      0.08s WALL (     989 calls)
     h_psi        :      1.75s CPU      1.60s WALL (    2506 calls)
     g_psi        :      0.02s CPU      0.03s WALL (    2106 calls)

     Called by h_psi:
     h_psi:calbec :      0.09s CPU      0.10s WALL (    2506 calls)
     vloc_psi     :      1.31s CPU      1.34s WALL (    2506 calls)
     add_vuspsi   :      0.33s CPU      0.13s WALL (    2506 calls)

     General routines
     calbec       :      0.11s CPU      0.12s WALL (    2906 calls)
     fft          :      0.22s CPU      0.23s WALL (      22 calls)
     ffts         :      0.00s CPU      0.00s WALL (       4 calls)
     fftw         :      1.11s CPU      1.13s WALL (   21820 calls)

     Parallel routines

     PWSCF        :      3.65s CPU      3.27s WALL


   This run was terminated on:  11:13:18  26Mar2024            

=------------------------------------------------------------------------------=
   JOB DONE.
=------------------------------------------------------------------------------=
