
     Program PWSCF v.7.2 starts on 26Mar2024 at 11:13: 9 

     This program is part of the open-source Quantum ESPRESSO suite
     for quantum simulation of materials; please cite
         "P. Giannozzi et al., J. Phys.:Condens. Matter 21 395502 (2009);
         "P. Giannozzi et al., J. Phys.:Condens. Matter 29 465901 (2017);
         "P. Giannozzi et al., J. Chem. Phys. 152 154105 (2020);
          URL http://www.quantum-espresso.org", 
     in publications or presentations arising from this work. More details at
     http://www.quantum-espresso.org/quote

     Parallel version (MPI & OpenMP), running on       1 processor cores
     Number of MPI processes:                 1
     Threads/MPI process:                     1

     MPI processes distributed on     1 nodes
     0 MiB available memory on the printing compute node when the environment starts

     Waiting for input...
     Reading input from standard input

     Current dimensions of program PWSCF are:
     Max number of different atomic species (ntypx) = 10
     Max number of k-points (npk) =  40000
     Max angular momentum in pseudopotentials (lmaxx) =  4

     Subspace diagonalization in iterative solution of the eigenvalue problem:
     a serial algorithm will be used


     G-vector sticks info
     --------------------
     sticks:   dense  smooth     PW     G-vecs:    dense   smooth      PW
     Sum         121     121     37                 6307     6307    1307

     Using Slab Decomposition



     bravais-lattice index     =            4
     lattice parameter (alat)  =       4.6350  a.u.
     unit-cell volume          =     517.4056 (a.u.)^3
     number of atoms/cell      =            2
     number of atomic types    =            1
     number of electrons       =         8.00
     number of Kohn-Sham states=            8
     kinetic-energy cutoff     =      20.0000  Ry
     charge density cutoff     =      80.0000  Ry
     scf convergence threshold =      1.0E-06
     mixing beta               =       0.7000
     number of iterations used =            8  plain     mixing
     Exchange-correlation= PZ
                           (   1   1   0   0   0   0   0)

     celldm(1)=   4.635000  celldm(2)=   0.000000  celldm(3)=   6.000000
     celldm(4)=   0.000000  celldm(5)=   0.000000  celldm(6)=   0.000000

     crystal axes: (cart. coord. in units of alat)
               a(1) = (   1.000000   0.000000   0.000000 )  
               a(2) = (  -0.500000   0.866025   0.000000 )  
               a(3) = (   0.000000   0.000000   6.000000 )  

     reciprocal axes: (cart. coord. in units 2 pi/alat)
               b(1) = (  1.000000  0.577350 -0.000000 )  
               b(2) = (  0.000000  1.154701  0.000000 )  
               b(3) = (  0.000000 -0.000000  0.166667 )  


     PseudoPot. # 1 for C  read from file:
     ../../../Pseudo/LDA/C.UPF
     MD5 check sum: 9ef9f0a1c6c947210c7947280cfb54e2
     Pseudo is Norm-conserving + core correction, Zval =  4.0
     Generated using ONCVPSP code by D. R. Hamann
     Using radial grid of 1230 points,  4 beta functions with: 
                l(1) =   0
                l(2) =   0
                l(3) =   1
                l(4) =   1

     atomic species   valence    mass     pseudopotential
        C              4.00    12.01100     C ( 1.00)

     24 Sym. Ops., with inversion, found (12 have fractional translation)


                                    s                        frac. trans.

      isym =  1     identity                                     

 cryst.   s( 1) = (     1          0          0      )
                  (     0          1          0      )
                  (     0          0          1      )

 cart.    s( 1) = (  1.0000000  0.0000000  0.0000000 )
                  (  0.0000000  1.0000000  0.0000000 )
                  (  0.0000000  0.0000000  1.0000000 )


      isym =  2     180 deg rotation - cart. axis [0,0,1]        

 cryst.   s( 2) = (    -1          0          0      )    f =( -0.3333333 )
                  (     0         -1          0      )       (  0.3333333 )
                  (     0          0          1      )       (  0.0000000 )

 cart.    s( 2) = ( -1.0000000  0.0000000  0.0000000 )    f =( -0.5000000 )
                  (  0.0000000 -1.0000000  0.0000000 )       (  0.2886751 )
                  (  0.0000000  0.0000000  1.0000000 )       (  0.0000000 )


      isym =  3     180 deg rotation - cart. axis [0,1,0]        

 cryst.   s( 3) = (    -1          0          0      )
                  (     1          1          0      )
                  (     0          0         -1      )

 cart.    s( 3) = ( -1.0000000  0.0000000  0.0000000 )
                  (  0.0000000  1.0000000  0.0000000 )
                  (  0.0000000  0.0000000 -1.0000000 )


      isym =  4     180 deg rotation - cart. axis [1,0,0]        

 cryst.   s( 4) = (     1          0          0      )    f =( -0.3333333 )
                  (    -1         -1          0      )       (  0.3333333 )
                  (     0          0         -1      )       (  0.0000000 )

 cart.    s( 4) = (  1.0000000  0.0000000  0.0000000 )    f =( -0.5000000 )
                  (  0.0000000 -1.0000000  0.0000000 )       (  0.2886751 )
                  (  0.0000000  0.0000000 -1.0000000 )       (  0.0000000 )


      isym =  5      60 deg rotation - cryst. axis [0,0,1]       

 cryst.   s( 5) = (     1          1          0      )    f =( -0.3333333 )
                  (    -1          0          0      )       (  0.3333333 )
                  (     0          0          1      )       (  0.0000000 )

 cart.    s( 5) = (  0.5000000 -0.8660254  0.0000000 )    f =( -0.5000000 )
                  (  0.8660254  0.5000000  0.0000000 )       (  0.2886751 )
                  (  0.0000000  0.0000000  1.0000000 )       (  0.0000000 )


      isym =  6      60 deg rotation - cryst. axis [0,0,-1]      

 cryst.   s( 6) = (     0         -1          0      )    f =( -0.3333333 )
                  (     1          1          0      )       (  0.3333333 )
                  (     0          0          1      )       (  0.0000000 )

 cart.    s( 6) = (  0.5000000  0.8660254  0.0000000 )    f =( -0.5000000 )
                  ( -0.8660254  0.5000000  0.0000000 )       (  0.2886751 )
                  (  0.0000000  0.0000000  1.0000000 )       (  0.0000000 )


      isym =  7     120 deg rotation - cryst. axis [0,0,1]       

 cryst.   s( 7) = (     0          1          0      )
                  (    -1         -1          0      )
                  (     0          0          1      )

 cart.    s( 7) = ( -0.5000000 -0.8660254  0.0000000 )
                  (  0.8660254 -0.5000000  0.0000000 )
                  (  0.0000000  0.0000000  1.0000000 )


      isym =  8     120 deg rotation - cryst. axis [0,0,-1]      

 cryst.   s( 8) = (    -1         -1          0      )
                  (     1          0          0      )
                  (     0          0          1      )

 cart.    s( 8) = ( -0.5000000  0.8660254  0.0000000 )
                  ( -0.8660254 -0.5000000  0.0000000 )
                  (  0.0000000  0.0000000  1.0000000 )


      isym =  9     180 deg rotation - cryst. axis [1,-1,0]      

 cryst.   s( 9) = (     0         -1          0      )
                  (    -1          0          0      )
                  (     0          0         -1      )

 cart.    s( 9) = (  0.5000000 -0.8660254  0.0000000 )
                  ( -0.8660254 -0.5000000  0.0000000 )
                  (  0.0000000  0.0000000 -1.0000000 )


      isym = 10     180 deg rotation - cryst. axis [2,1,0]       

 cryst.   s(10) = (     1          1          0      )
                  (     0         -1          0      )
                  (     0          0         -1      )

 cart.    s(10) = (  0.5000000  0.8660254  0.0000000 )
                  (  0.8660254 -0.5000000  0.0000000 )
                  (  0.0000000  0.0000000 -1.0000000 )


      isym = 11     180 deg rotation - cryst. axis [0,1,0]       

 cryst.   s(11) = (    -1         -1          0      )    f =( -0.3333333 )
                  (     0          1          0      )       (  0.3333333 )
                  (     0          0         -1      )       (  0.0000000 )

 cart.    s(11) = ( -0.5000000 -0.8660254  0.0000000 )    f =( -0.5000000 )
                  ( -0.8660254  0.5000000  0.0000000 )       (  0.2886751 )
                  (  0.0000000  0.0000000 -1.0000000 )       (  0.0000000 )


      isym = 12     180 deg rotation - cryst. axis [1,1,0]       

 cryst.   s(12) = (     0          1          0      )    f =( -0.3333333 )
                  (     1          0          0      )       (  0.3333333 )
                  (     0          0         -1      )       (  0.0000000 )

 cart.    s(12) = ( -0.5000000  0.8660254  0.0000000 )    f =( -0.5000000 )
                  (  0.8660254  0.5000000  0.0000000 )       (  0.2886751 )
                  (  0.0000000  0.0000000 -1.0000000 )       (  0.0000000 )


      isym = 13     inversion                                    

 cryst.   s(13) = (    -1          0          0      )    f =( -0.3333333 )
                  (     0         -1          0      )       (  0.3333333 )
                  (     0          0         -1      )       (  0.0000000 )

 cart.    s(13) = ( -1.0000000  0.0000000  0.0000000 )    f =( -0.5000000 )
                  (  0.0000000 -1.0000000  0.0000000 )       (  0.2886751 )
                  (  0.0000000  0.0000000 -1.0000000 )       (  0.0000000 )


      isym = 14     inv. 180 deg rotation - cart. axis [0,0,1]   

 cryst.   s(14) = (     1          0          0      )
                  (     0          1          0      )
                  (     0          0         -1      )

 cart.    s(14) = (  1.0000000  0.0000000  0.0000000 )
                  (  0.0000000  1.0000000  0.0000000 )
                  (  0.0000000  0.0000000 -1.0000000 )


      isym = 15     inv. 180 deg rotation - cart. axis [0,1,0]   

 cryst.   s(15) = (     1          0          0      )    f =( -0.3333333 )
                  (    -1         -1          0      )       (  0.3333333 )
                  (     0          0          1      )       (  0.0000000 )

 cart.    s(15) = (  1.0000000  0.0000000  0.0000000 )    f =( -0.5000000 )
                  (  0.0000000 -1.0000000  0.0000000 )       (  0.2886751 )
                  (  0.0000000  0.0000000  1.0000000 )       (  0.0000000 )


      isym = 16     inv. 180 deg rotation - cart. axis [1,0,0]   

 cryst.   s(16) = (    -1          0          0      )
                  (     1          1          0      )
                  (     0          0          1      )

 cart.    s(16) = ( -1.0000000  0.0000000  0.0000000 )
                  (  0.0000000  1.0000000  0.0000000 )
                  (  0.0000000  0.0000000  1.0000000 )


      isym = 17     inv.  60 deg rotation - cryst. axis [0,0,1]  

 cryst.   s(17) = (    -1         -1          0      )
                  (     1          0          0      )
                  (     0          0         -1      )

 cart.    s(17) = ( -0.5000000  0.8660254  0.0000000 )
                  ( -0.8660254 -0.5000000  0.0000000 )
                  (  0.0000000  0.0000000 -1.0000000 )


      isym = 18     inv.  60 deg rotation - cryst. axis [0,0,-1] 

 cryst.   s(18) = (     0          1          0      )
                  (    -1         -1          0      )
                  (     0          0         -1      )

 cart.    s(18) = ( -0.5000000 -0.8660254  0.0000000 )
                  (  0.8660254 -0.5000000  0.0000000 )
                  (  0.0000000  0.0000000 -1.0000000 )


      isym = 19     inv. 120 deg rotation - cryst. axis [0,0,1]  

 cryst.   s(19) = (     0         -1          0      )    f =( -0.3333333 )
                  (     1          1          0      )       (  0.3333333 )
                  (     0          0         -1      )       (  0.0000000 )

 cart.    s(19) = (  0.5000000  0.8660254  0.0000000 )    f =( -0.5000000 )
                  ( -0.8660254  0.5000000  0.0000000 )       (  0.2886751 )
                  (  0.0000000  0.0000000 -1.0000000 )       (  0.0000000 )


      isym = 20     inv. 120 deg rotation - cryst. axis [0,0,-1] 

 cryst.   s(20) = (     1          1          0      )    f =( -0.3333333 )
                  (    -1          0          0      )       (  0.3333333 )
                  (     0          0         -1      )       (  0.0000000 )

 cart.    s(20) = (  0.5000000 -0.8660254  0.0000000 )    f =( -0.5000000 )
                  (  0.8660254  0.5000000  0.0000000 )       (  0.2886751 )
                  (  0.0000000  0.0000000 -1.0000000 )       (  0.0000000 )


      isym = 21     inv. 180 deg rotation - cryst. axis [1,-1,0] 

 cryst.   s(21) = (     0          1          0      )    f =( -0.3333333 )
                  (     1          0          0      )       (  0.3333333 )
                  (     0          0          1      )       (  0.0000000 )

 cart.    s(21) = ( -0.5000000  0.8660254  0.0000000 )    f =( -0.5000000 )
                  (  0.8660254  0.5000000  0.0000000 )       (  0.2886751 )
                  (  0.0000000  0.0000000  1.0000000 )       (  0.0000000 )


      isym = 22     inv. 180 deg rotation - cryst. axis [2,1,0]  

 cryst.   s(22) = (    -1         -1          0      )    f =( -0.3333333 )
                  (     0          1          0      )       (  0.3333333 )
                  (     0          0          1      )       (  0.0000000 )

 cart.    s(22) = ( -0.5000000 -0.8660254  0.0000000 )    f =( -0.5000000 )
                  ( -0.8660254  0.5000000  0.0000000 )       (  0.2886751 )
                  (  0.0000000  0.0000000  1.0000000 )       (  0.0000000 )


      isym = 23     inv. 180 deg rotation - cryst. axis [0,1,0]  

 cryst.   s(23) = (     1          1          0      )
                  (     0         -1          0      )
                  (     0          0          1      )

 cart.    s(23) = (  0.5000000  0.8660254  0.0000000 )
                  (  0.8660254 -0.5000000  0.0000000 )
                  (  0.0000000  0.0000000  1.0000000 )


      isym = 24     inv. 180 deg rotation - cryst. axis [1,1,0]  

 cryst.   s(24) = (     0         -1          0      )
                  (    -1          0          0      )
                  (     0          0          1      )

 cart.    s(24) = (  0.5000000 -0.8660254  0.0000000 )
                  ( -0.8660254 -0.5000000  0.0000000 )
                  (  0.0000000  0.0000000  1.0000000 )


     point group D_6h(6/mmm)
     there are 12 classes
     the character table:

       E     2C6   2C3   C2    3C2'  3C2'' i     2S3   2S6   s_h   3s_d  3s_v 
A_1g   1.00  1.00  1.00  1.00  1.00  1.00  1.00  1.00  1.00  1.00  1.00  1.00
A_2g   1.00  1.00  1.00  1.00 -1.00 -1.00  1.00  1.00  1.00  1.00 -1.00 -1.00
B_1g   1.00 -1.00  1.00 -1.00  1.00 -1.00  1.00 -1.00  1.00 -1.00  1.00 -1.00
B_2g   1.00 -1.00  1.00 -1.00 -1.00  1.00  1.00 -1.00  1.00 -1.00 -1.00  1.00
E_1g   2.00  1.00 -1.00 -2.00  0.00  0.00  2.00  1.00 -1.00 -2.00  0.00  0.00
E_2g   2.00 -1.00 -1.00  2.00  0.00  0.00  2.00 -1.00 -1.00  2.00  0.00  0.00
A_1u   1.00  1.00  1.00  1.00  1.00  1.00 -1.00 -1.00 -1.00 -1.00 -1.00 -1.00
A_2u   1.00  1.00  1.00  1.00 -1.00 -1.00 -1.00 -1.00 -1.00 -1.00  1.00  1.00
B_1u   1.00 -1.00  1.00 -1.00  1.00 -1.00 -1.00  1.00 -1.00  1.00 -1.00  1.00
B_2u   1.00 -1.00  1.00 -1.00 -1.00  1.00 -1.00  1.00 -1.00  1.00  1.00 -1.00
E_1u   2.00  1.00 -1.00 -2.00  0.00  0.00 -2.00 -1.00  1.00  2.00  0.00  0.00
E_2u   2.00 -1.00 -1.00  2.00  0.00  0.00 -2.00  1.00  1.00 -2.00  0.00  0.00

     the symmetry operations in each class and the name of the first element:

     E        1
          identity                                               
     2C6      5    6
           60 deg rotation - cryst. axis [0,0,1]                 
     2C3      7    8
          120 deg rotation - cryst. axis [0,0,1]                 
     C2       2
          180 deg rotation - cart. axis [0,0,1]                  
     3C2'     4   12   11
          180 deg rotation - cart. axis [1,0,0]                  
     3C2''    3    9   10
          180 deg rotation - cart. axis [0,1,0]                  
     i       13
          inversion                                              
     2S3     17   18
          inv.  60 deg rotation - cryst. axis [0,0,1]            
     2S6     19   20
          inv. 120 deg rotation - cryst. axis [0,0,1]            
     s_h     14
          inv. 180 deg rotation - cart. axis [0,0,1]             
     3s_d    16   24   23
          inv. 180 deg rotation - cart. axis [1,0,0]             
     3s_v    15   21   22
          inv. 180 deg rotation - cart. axis [0,1,0]             

   Cartesian axes

     site n.     atom                  positions (alat units)
         1           C   tau(   1) = (   0.0000000   0.0000000   0.0000000  )
         2           C   tau(   2) = (  -0.0000000   0.5773503   0.0000000  )

   Crystallographic axes

     site n.     atom                  positions (cryst. coord.)
         1           C   tau(   1) = (  0.0000000  0.0000000  0.0000000  )
         2           C   tau(   2) = (  0.3333333  0.6666667  0.0000000  )

     number of k points=    44  Marzari-Vanderbilt smearing, width (Ry)=  0.0100
                       cart. coord. in units 2pi/alat
        k(    1) = (   0.0000000   0.0000000   0.0000000), wk =   0.0050000
        k(    2) = (   0.0000000   0.0577350   0.0000000), wk =   0.0300000
        k(    3) = (   0.0000000   0.1154701   0.0000000), wk =   0.0300000
        k(    4) = (   0.0000000   0.1732051   0.0000000), wk =   0.0300000
        k(    5) = (   0.0000000   0.2309401   0.0000000), wk =   0.0300000
        k(    6) = (   0.0000000   0.2886751   0.0000000), wk =   0.0300000
        k(    7) = (   0.0000000   0.3464102   0.0000000), wk =   0.0300000
        k(    8) = (   0.0000000   0.4041452   0.0000000), wk =   0.0300000
        k(    9) = (   0.0000000   0.4618802   0.0000000), wk =   0.0300000
        k(   10) = (   0.0000000   0.5196152   0.0000000), wk =   0.0300000
        k(   11) = (   0.0000000  -0.5773503   0.0000000), wk =   0.0150000
        k(   12) = (   0.0500000   0.0866025   0.0000000), wk =   0.0300000
        k(   13) = (   0.0500000   0.1443376   0.0000000), wk =   0.0600000
        k(   14) = (   0.0500000   0.2020726   0.0000000), wk =   0.0600000
        k(   15) = (   0.0500000   0.2598076   0.0000000), wk =   0.0600000
        k(   16) = (   0.0500000   0.3175426   0.0000000), wk =   0.0600000
        k(   17) = (   0.0500000   0.3752777   0.0000000), wk =   0.0600000
        k(   18) = (   0.0500000   0.4330127   0.0000000), wk =   0.0600000
        k(   19) = (   0.0500000   0.4907477   0.0000000), wk =   0.0600000
        k(   20) = (   0.0500000   0.5484828   0.0000000), wk =   0.0600000
        k(   21) = (   0.1000000   0.1732051   0.0000000), wk =   0.0300000
        k(   22) = (   0.1000000   0.2309401   0.0000000), wk =   0.0600000
        k(   23) = (   0.1000000   0.2886751   0.0000000), wk =   0.0600000
        k(   24) = (   0.1000000   0.3464102   0.0000000), wk =   0.0600000
        k(   25) = (   0.1000000   0.4041452   0.0000000), wk =   0.0600000
        k(   26) = (   0.1000000   0.4618802   0.0000000), wk =   0.0600000
        k(   27) = (   0.1000000   0.5196152   0.0000000), wk =   0.0600000
        k(   28) = (   0.1000000   0.5773503   0.0000000), wk =   0.0300000
        k(   29) = (   0.1500000   0.2598076   0.0000000), wk =   0.0300000
        k(   30) = (   0.1500000   0.3175426   0.0000000), wk =   0.0600000
        k(   31) = (   0.1500000   0.3752777   0.0000000), wk =   0.0600000
        k(   32) = (   0.1500000   0.4330127   0.0000000), wk =   0.0600000
        k(   33) = (   0.1500000   0.4907477   0.0000000), wk =   0.0600000
        k(   34) = (   0.1500000   0.5484828   0.0000000), wk =   0.0600000
        k(   35) = (   0.2000000   0.3464102   0.0000000), wk =   0.0300000
        k(   36) = (   0.2000000   0.4041452   0.0000000), wk =   0.0600000
        k(   37) = (   0.2000000   0.4618802   0.0000000), wk =   0.0600000
        k(   38) = (   0.2000000   0.5196152   0.0000000), wk =   0.0600000
        k(   39) = (   0.2000000   0.5773503   0.0000000), wk =   0.0300000
        k(   40) = (   0.2500000   0.4330127   0.0000000), wk =   0.0300000
        k(   41) = (   0.2500000   0.4907477   0.0000000), wk =   0.0600000
        k(   42) = (   0.2500000   0.5484828   0.0000000), wk =   0.0600000
        k(   43) = (   0.3000000   0.5196152   0.0000000), wk =   0.0300000
        k(   44) = (   0.3000000   0.5773503   0.0000000), wk =   0.0300000

                       cryst. coord.
        k(    1) = (   0.0000000   0.0000000   0.0000000), wk =   0.0050000
        k(    2) = (   0.0000000   0.0500000   0.0000000), wk =   0.0300000
        k(    3) = (   0.0000000   0.1000000   0.0000000), wk =   0.0300000
        k(    4) = (   0.0000000   0.1500000   0.0000000), wk =   0.0300000
        k(    5) = (   0.0000000   0.2000000   0.0000000), wk =   0.0300000
        k(    6) = (   0.0000000   0.2500000   0.0000000), wk =   0.0300000
        k(    7) = (   0.0000000   0.3000000   0.0000000), wk =   0.0300000
        k(    8) = (   0.0000000   0.3500000   0.0000000), wk =   0.0300000
        k(    9) = (   0.0000000   0.4000000   0.0000000), wk =   0.0300000
        k(   10) = (   0.0000000   0.4500000   0.0000000), wk =   0.0300000
        k(   11) = (   0.0000000  -0.5000000   0.0000000), wk =   0.0150000
        k(   12) = (   0.0500000   0.0500000   0.0000000), wk =   0.0300000
        k(   13) = (   0.0500000   0.1000000   0.0000000), wk =   0.0600000
        k(   14) = (   0.0500000   0.1500000   0.0000000), wk =   0.0600000
        k(   15) = (   0.0500000   0.2000000   0.0000000), wk =   0.0600000
        k(   16) = (   0.0500000   0.2500000   0.0000000), wk =   0.0600000
        k(   17) = (   0.0500000   0.3000000   0.0000000), wk =   0.0600000
        k(   18) = (   0.0500000   0.3500000   0.0000000), wk =   0.0600000
        k(   19) = (   0.0500000   0.4000000   0.0000000), wk =   0.0600000
        k(   20) = (   0.0500000   0.4500000   0.0000000), wk =   0.0600000
        k(   21) = (   0.1000000   0.1000000   0.0000000), wk =   0.0300000
        k(   22) = (   0.1000000   0.1500000   0.0000000), wk =   0.0600000
        k(   23) = (   0.1000000   0.2000000   0.0000000), wk =   0.0600000
        k(   24) = (   0.1000000   0.2500000   0.0000000), wk =   0.0600000
        k(   25) = (   0.1000000   0.3000000   0.0000000), wk =   0.0600000
        k(   26) = (   0.1000000   0.3500000   0.0000000), wk =   0.0600000
        k(   27) = (   0.1000000   0.4000000   0.0000000), wk =   0.0600000
        k(   28) = (   0.1000000   0.4500000   0.0000000), wk =   0.0300000
        k(   29) = (   0.1500000   0.1500000   0.0000000), wk =   0.0300000
        k(   30) = (   0.1500000   0.2000000   0.0000000), wk =   0.0600000
        k(   31) = (   0.1500000   0.2500000   0.0000000), wk =   0.0600000
        k(   32) = (   0.1500000   0.3000000   0.0000000), wk =   0.0600000
        k(   33) = (   0.1500000   0.3500000   0.0000000), wk =   0.0600000
        k(   34) = (   0.1500000   0.4000000   0.0000000), wk =   0.0600000
        k(   35) = (   0.2000000   0.2000000   0.0000000), wk =   0.0300000
        k(   36) = (   0.2000000   0.2500000   0.0000000), wk =   0.0600000
        k(   37) = (   0.2000000   0.3000000   0.0000000), wk =   0.0600000
        k(   38) = (   0.2000000   0.3500000   0.0000000), wk =   0.0600000
        k(   39) = (   0.2000000   0.4000000   0.0000000), wk =   0.0300000
        k(   40) = (   0.2500000   0.2500000   0.0000000), wk =   0.0300000
        k(   41) = (   0.2500000   0.3000000   0.0000000), wk =   0.0600000
        k(   42) = (   0.2500000   0.3500000   0.0000000), wk =   0.0600000
        k(   43) = (   0.3000000   0.3000000   0.0000000), wk =   0.0300000
        k(   44) = (   0.3000000   0.3500000   0.0000000), wk =   0.0300000

     Dense  grid:     6307 G-vectors     FFT dimensions: (  15,  15,  80)

     Dynamical RAM for                 wfc:       0.10 MB

     Dynamical RAM for     wfc (w. buffer):       4.29 MB

     Dynamical RAM for           str. fact:       0.10 MB

     Dynamical RAM for           local pot:       0.00 MB

     Dynamical RAM for          nlocal pot:       0.19 MB

     Dynamical RAM for                qrad:       0.21 MB

     Dynamical RAM for          rho,v,vnew:       0.70 MB

     Dynamical RAM for               rhoin:       0.23 MB

     Dynamical RAM for            rho*nmix:       1.54 MB

     Dynamical RAM for           G-vectors:       0.41 MB

     Dynamical RAM for          h,s,v(r/c):       0.01 MB

     Dynamical RAM for          <psi|beta>:       0.00 MB

     Dynamical RAM for                 psi:       0.19 MB

     Dynamical RAM for                hpsi:       0.19 MB

     Dynamical RAM for      wfcinit/wfcrot:       0.19 MB

     Estimated static dynamical RAM per process >       7.01 MB

     Estimated max dynamical RAM per process >       8.94 MB

     Check: negative core charge=   -0.000072

     Initial potential from superposition of free atoms

     starting charge       7.9999, renormalised to       8.0000

     negative rho (up, down):  9.135E-03 0.000E+00
     Starting wfcs are    8 randomized atomic wfcs

     total cpu time spent up to now is        0.5 secs

     Self-consistent Calculation

     iteration #  1     ecut=    20.00 Ry     beta= 0.70
     Davidson diagonalization with overlap

---- Real-time Memory Report at c_bands before calling an iterative solver
             0 MiB given to the printing process from OS
             0 MiB allocation reported by mallinfo(arena+hblkhd)
             0 MiB available memory on the node where the printing process lives
------------------
     ethr =  1.00E-02,  avg # of iterations =  7.3

     negative rho (up, down):  2.410E-03 0.000E+00

     total cpu time spent up to now is        0.9 secs

     total energy              =     -23.39972100 Ry
     estimated scf accuracy    <       0.12320404 Ry

     iteration #  2     ecut=    20.00 Ry     beta= 0.70
     Davidson diagonalization with overlap

---- Real-time Memory Report at c_bands before calling an iterative solver
             0 MiB given to the printing process from OS
             0 MiB allocation reported by mallinfo(arena+hblkhd)
             0 MiB available memory on the node where the printing process lives
------------------
     ethr =  1.54E-03,  avg # of iterations =  3.5

     negative rho (up, down):  3.530E-04 0.000E+00

     total cpu time spent up to now is        1.1 secs

     total energy              =     -23.41120412 Ry
     estimated scf accuracy    <       0.00394359 Ry

     iteration #  3     ecut=    20.00 Ry     beta= 0.70
     Davidson diagonalization with overlap

---- Real-time Memory Report at c_bands before calling an iterative solver
             0 MiB given to the printing process from OS
             0 MiB allocation reported by mallinfo(arena+hblkhd)
             0 MiB available memory on the node where the printing process lives
------------------
     ethr =  4.93E-05,  avg # of iterations =  8.0

     total cpu time spent up to now is        1.5 secs

     total energy              =     -23.41133867 Ry
     estimated scf accuracy    <       0.00017912 Ry

     iteration #  4     ecut=    20.00 Ry     beta= 0.70
     Davidson diagonalization with overlap

---- Real-time Memory Report at c_bands before calling an iterative solver
             0 MiB given to the printing process from OS
             0 MiB allocation reported by mallinfo(arena+hblkhd)
             0 MiB available memory on the node where the printing process lives
------------------
     ethr =  2.24E-06,  avg # of iterations =  6.8

     total cpu time spent up to now is        1.8 secs

     End of self-consistent calculation

          k = 0.0000 0.0000 0.0000 (   801 PWs)   bands (ev):

   -21.8744  -9.6379  -4.6263  -4.6263   1.0369   1.8861   2.0417   4.2483

     occupation numbers 
     1.0000   1.0000   1.0000   1.0000   0.0000   0.0000   0.0000   0.0000

          k = 0.0000 0.0577 0.0000 (   795 PWs)   bands (ev):

   -21.8067  -9.5588  -4.8514  -4.7418   1.1192   1.9689   2.1240   4.3303

     occupation numbers 
     1.0000   1.0000   1.0000   1.0000   0.0000   0.0000   0.0000   0.0000

          k = 0.0000 0.1155 0.0000 (   795 PWs)   bands (ev):

   -21.6220  -9.3589  -5.5567  -5.1067   1.3656   2.2150   2.3707   4.5705

     occupation numbers 
     1.0000   1.0000   1.0000   1.0000   0.0000   0.0000   0.0000   0.0000

          k = 0.0000 0.1732 0.0000 (   796 PWs)   bands (ev):

   -21.3149  -8.9961  -6.6152  -5.5974   1.7757   2.6268   2.7815   4.9742

     occupation numbers 
     1.0000   1.0000   1.0000   1.0000   0.0000   0.0000   0.0000   0.0000

          k = 0.0000 0.2309 0.0000 (   782 PWs)   bands (ev):

   -20.8835  -8.4677  -7.7662  -6.1332   2.3492   3.2035   3.3562   5.5362

     occupation numbers 
     1.0000   1.0000   1.0000   1.0000   0.0000   0.0000   0.0000   0.0000

          k = 0.0000 0.2887 0.0000 (   780 PWs)   bands (ev):

   -20.3439  -9.1089  -7.8296  -6.7611   3.0855   3.9375   4.0943   6.0940

     occupation numbers 
     1.0000   1.0000   1.0000   1.0000   0.0000   0.0000   0.0000   0.0000

          k = 0.0000 0.3464 0.0000 (   770 PWs)   bands (ev):

   -19.6715 -10.4667  -7.2122  -7.0608   3.9848   4.5782   4.9964   5.0011

     occupation numbers 
     1.0000   1.0000   1.0000   1.0000   0.0000   0.0000   0.0000   0.0000

          k = 0.0000 0.4041 0.0000 (   780 PWs)   bands (ev):

   -18.9408 -11.8979  -7.6384  -6.1951   3.1506   5.0403   5.9428   5.9464

     occupation numbers 
     1.0000   1.0000   1.0000   1.0000   0.0000   0.0000   0.0000   0.0000

          k = 0.0000 0.4619 0.0000 (   792 PWs)   bands (ev):

   -18.0758 -13.2821  -7.9846  -5.2840   1.6927   5.7330   6.2708   7.1634

     occupation numbers 
     1.0000   1.0000   1.0000   1.0000   0.0000   0.0000   0.0000   0.0000

          k = 0.0000 0.5196 0.0000 (   788 PWs)   bands (ev):

   -17.0834 -14.5554  -8.1533  -4.4482   0.5414   5.6052   7.6425   8.5436

     occupation numbers 
     1.0000   1.0000   1.0000   1.0000   0.0000   0.0000   0.0000   0.0000

          k = 0.0000-0.5774 0.0000 (   782 PWs)   bands (ev):

   -16.3690 -15.3707  -8.2040  -4.0387   0.0775   5.5958   9.1352   9.1947

     occupation numbers 
     1.0000   1.0000   1.0000   1.0000   0.0000   0.0000   0.0000   0.0000

          k = 0.0500 0.0866 0.0000 (   791 PWs)   bands (ev):

   -21.6802  -9.4222  -5.2747  -4.9849   1.2837   2.1332   2.2886   4.4910

     occupation numbers 
     1.0000   1.0000   1.0000   1.0000   0.0000   0.0000   0.0000   0.0000

          k = 0.0500 0.1443 0.0000 (   795 PWs)   bands (ev):

   -21.4311  -9.1406  -6.1370  -5.5221   1.6121   2.4622   2.6176   4.8130

     occupation numbers 
     1.0000   1.0000   1.0000   1.0000   0.0000   0.0000   0.0000   0.0000

          k = 0.0500 0.2021 0.0000 (   782 PWs)   bands (ev):

   -21.0589  -8.6817  -7.1724  -6.0606   2.1040   2.9574   3.1103   5.2994

     occupation numbers 
     1.0000   1.0000   1.0000   1.0000   0.0000   0.0000   0.0000   0.0000

          k = 0.0500 0.2598 0.0000 (   780 PWs)   bands (ev):

   -20.5851  -8.4201  -8.1115  -6.6447   2.7584   3.6130   3.7665   5.9236

     occupation numbers 
     1.0000   1.0000   1.0000   1.0000   0.0000   0.0000   0.0000   0.0000

          k = 0.0500 0.3175 0.0000 (   774 PWs)   bands (ev):

   -19.9879  -9.7588  -7.4011  -7.1736   3.5758   4.4150   4.5865   5.4889

     occupation numbers 
     1.0000   1.0000   1.0000   1.0000   0.0000   0.0000   0.0000   0.0000

          k = 0.0500 0.3753 0.0000 (   775 PWs)   bands (ev):

   -19.2788 -11.1606  -7.6292  -6.5869   3.8711   4.5545   5.4539   5.5682

     occupation numbers 
     1.0000   1.0000   1.0000   1.0000   0.0000   0.0000   0.0000   0.0000

          k = 0.0500 0.4330 0.0000 (   775 PWs)   bands (ev):

   -18.4555 -12.5538  -7.9999  -5.6795   2.4143   5.6894   6.1647   6.5875

     occupation numbers 
     1.0000   1.0000   1.0000   1.0000   0.0000   0.0000   0.0000   0.0000

          k = 0.0500 0.4907 0.0000 (   782 PWs)   bands (ev):

   -17.5340 -13.8967  -8.2485  -4.7808   1.0796   5.9724   6.9967   7.8879

     occupation numbers 
     1.0000   1.0000   1.0000   1.0000   0.0000   0.0000   0.0000   0.0000

          k = 0.0500 0.5485 0.0000 (   782 PWs)   bands (ev):

   -16.5898 -15.0415  -8.3837  -4.0982   0.2004   5.8997   8.4431   9.3378

     occupation numbers 
     1.0000   1.0000   1.0000   1.0000   0.0000   0.0000   0.0000   0.0000

          k = 0.1000 0.1732 0.0000 (   803 PWs)   bands (ev):

   -21.1401  -8.7834  -6.9536  -6.1888   2.0214   2.8734   3.0277   5.2154

     occupation numbers 
     1.0000   1.0000   1.0000   1.0000   0.0000   0.0000   0.0000   0.0000

          k = 0.1000 0.2309 0.0000 (   782 PWs)   bands (ev):

   -20.7186  -8.2590  -7.8535  -6.8321   2.5943   3.4498   3.6020   5.7785

     occupation numbers 
     1.0000   1.0000   1.0000   1.0000   0.0000   0.0000   0.0000   0.0000

          k = 0.1000 0.2887 0.0000 (   780 PWs)   bands (ev):

   -20.1888  -9.1068  -7.6219  -7.4615   3.3299   4.1844   4.3401   6.0106

     occupation numbers 
     1.0000   1.0000   1.0000   1.0000   0.0000   0.0000   0.0000   0.0000

          k = 0.1000 0.3464 0.0000 (   780 PWs)   bands (ev):

   -19.5409 -10.4452  -7.9877  -6.8623   4.2278   4.5095   5.1295   5.2420

     occupation numbers 
     1.0000   1.0000   1.0000   1.0000   0.0000   0.0000   0.0000   0.0000

          k = 0.1000 0.4041 0.0000 (   785 PWs)   bands (ev):

   -18.7712 -11.8111  -8.4352  -5.9948   3.0134   5.2865   6.1647   6.3054

     occupation numbers 
     1.0000   1.0000   1.0000   1.0000   0.0000   0.0000   0.0000   0.0000

          k = 0.1000 0.4619 0.0000 (   779 PWs)   bands (ev):

   -17.8896 -13.1377  -8.7192  -5.0688   1.6574   6.5004   6.9006   7.3796

     occupation numbers 
     1.0000   1.0000   1.0000   1.0000   0.0000   0.0000   0.0000   0.0000

          k = 0.1000 0.5196 0.0000 (   777 PWs)   bands (ev):

   -16.9177 -14.3931  -8.9037  -4.2050   0.5086   6.7571   7.8796   8.7356

     occupation numbers 
     1.0000   1.0000   1.0000   1.0000   0.0000   0.0000   0.0000   0.0000

          k = 0.1000 0.5774 0.0000 (   776 PWs)   bands (ev):

   -16.1940 -15.2067  -8.9738  -3.8108   0.0140   6.7130   9.3601   9.4263

     occupation numbers 
     1.0000   1.0000   1.0000   1.0000   0.0000   0.0000   0.0000   0.0000

          k = 0.1500 0.2598 0.0000 (   785 PWs)   bands (ev):

   -20.2481  -8.7674  -7.6961  -7.6848   3.2483   4.1060   4.2584   6.2167

     occupation numbers 
     1.0000   1.0000   1.0000   1.0000   0.0000   0.0000   0.0000   0.0000

          k = 0.1500 0.3175 0.0000 (   782 PWs)   bands (ev):

   -19.6646  -9.8410  -8.4470  -6.9891   4.0646   4.8591   4.9697   5.0783

     occupation numbers 
     1.0000   1.0000   1.0000   1.0000   0.0000   0.0000   0.0000   0.0000

          k = 0.1500 0.3753 0.0000 (   780 PWs)   bands (ev):

   -18.9423 -11.1039  -8.9853  -6.1761   3.5366   5.0434   5.9021   6.0624

     occupation numbers 
     1.0000   1.0000   1.0000   1.0000   0.0000   0.0000   0.0000   0.0000

          k = 0.1500 0.4330 0.0000 (   774 PWs)   bands (ev):

   -18.1229 -12.3231  -9.3697  -5.2792   2.1776   6.1801   7.0272   7.2075

     occupation numbers 
     1.0000   1.0000   1.0000   1.0000   0.0000   0.0000   0.0000   0.0000

          k = 0.1500 0.4907 0.0000 (   776 PWs)   bands (ev):

   -17.1975 -13.6181  -9.6622  -4.3458   0.9303   7.4716   8.0668   8.2766

     occupation numbers 
     1.0000   1.0000   1.0000   1.0000   0.0000   0.0000   0.0000   0.0000

          k = 0.1500 0.5485 0.0000 (   772 PWs)   bands (ev):

   -16.2559 -14.7276  -9.7778  -3.6487   0.0943   7.9982   8.9099   9.4964

     occupation numbers 
     1.0000   1.0000   1.0000   1.0000   0.0000   0.0000   0.0000   0.0000

          k = 0.2000 0.3464 0.0000 (   775 PWs)   bands (ev):

   -19.0136 -10.6586  -9.3605  -6.2359   3.7619   4.9611   5.8101   5.9801

     occupation numbers 
     1.0000   1.0000   1.0000   1.0000   0.0000   0.0000   0.0000   0.0000

          k = 0.2000 0.4041 0.0000 (   785 PWs)   bands (ev):

   -18.2505 -11.7154 -10.0728  -5.3900   2.4979   6.0171   6.8406   7.0442

     occupation numbers 
     1.0000   1.0000   1.0000   1.0000   0.0000   0.0000   0.0000   0.0000

          k = 0.2000 0.4619 0.0000 (   780 PWs)   bands (ev):

   -17.3901 -12.8183 -10.4837  -4.4534   1.2841   7.2277   7.9694   8.2684

     occupation numbers 
     1.0000   1.0000   1.0000   1.0000   0.0000   0.0000   0.0000   0.0000

          k = 0.2000 0.5196 0.0000 (   780 PWs)   bands (ev):

   -16.4263 -13.9997 -10.7245  -3.5820   0.2403   8.5863   8.9370   9.4896

     occupation numbers 
     1.0000   1.0000   1.0000   1.0000   0.0000   0.0000   0.0000   0.0000

          k = 0.2000 0.5774 0.0000 (   778 PWs)   bands (ev):

   -15.7239 -14.7606 -10.7981  -3.1584  -0.2314   9.2251   9.4655  10.0217

     occupation numbers 
     1.0000   1.0000   1.0000   1.0000   0.0000   0.0000   0.0000   0.0000

          k = 0.2500 0.4330 0.0000 (   781 PWs)   bands (ev):

   -17.4351 -12.3951 -10.9728  -4.4931   1.4547   7.1476   7.8565   8.1872

     occupation numbers 
     1.0000   1.0000   1.0000   1.0000   0.0000   0.0000   0.0000   0.0000

          k = 0.2500 0.4907 0.0000 (   776 PWs)   bands (ev):

   -16.5393 -13.2626 -11.4966  -3.5625   0.4170   8.4231   8.5795   9.4864

     occupation numbers 
     1.0000   1.0000   1.0000   1.0000   0.0000   0.0000   0.0000   0.0000

          k = 0.2500 0.5485 0.0000 (   780 PWs)   bands (ev):

   -15.6235 -14.2363 -11.7450  -2.7911  -0.4282   8.6626   9.8182  10.9234

     occupation numbers 
     1.0000   1.0000   1.0000   1.0000   0.0000   0.0000   0.0000   0.0000

          k = 0.3000 0.5196 0.0000 (   771 PWs)   bands (ev):

   -15.6210 -13.7873 -12.2193  -2.6320  -0.4837   8.4413   9.7405  10.8511

     occupation numbers 
     1.0000   1.0000   1.0000   1.0000   0.0000   0.0000   0.0000   0.0000

          k = 0.3000 0.5774 0.0000 (   771 PWs)   bands (ev):

   -14.9359 -14.3648 -12.4716  -2.0162  -1.0953   8.3168  11.0200  11.1291

     occupation numbers 
     1.0000   1.0000   1.0000   1.0000   0.0000   0.0000   0.0000   0.0000

     the Fermi energy is    -1.4640 ev

!    total energy              =     -23.41135112 Ry
     estimated scf accuracy    <       0.00000045 Ry
     smearing contrib. (-TS)   =       0.00000000 Ry
     internal energy E=F+TS    =     -23.41135112 Ry

     The total energy is F=E-TS. E is the sum of the following terms:
     one-electron contribution =    -153.66895743 Ry
     hartree contribution      =      78.21005364 Ry
     xc contribution           =      -8.39518341 Ry
     ewald contribution        =      60.44273608 Ry

     convergence has been achieved in   4 iterations

     Forces acting on atoms (cartesian axes, Ry/au):

     atom    1 type  1   force =    -0.00000000   -0.00000000    0.00000000
     atom    2 type  1   force =     0.00000000    0.00000000    0.00000000
     The non-local contrib.  to forces
     atom    1 type  1   force =    -0.00000000   -0.00000000    0.00000000
     atom    2 type  1   force =     0.00000000    0.00000000   -0.00000000
     The ionic contribution  to forces
     atom    1 type  1   force =    -0.00000001    0.00000000   -0.00000000
     atom    2 type  1   force =     0.00000001   -0.00000000   -0.00000000
     The local contribution  to forces
     atom    1 type  1   force =     0.00000000   -0.00000000    0.00000000
     atom    2 type  1   force =     0.00000000   -0.00000000    0.00000000
     The core correction contribution to forces
     atom    1 type  1   force =     0.00000000   -0.00000000    0.00000000
     atom    2 type  1   force =    -0.00000000    0.00000000    0.00000000
     The Hubbard contrib.    to forces
     atom    1 type  1   force =     0.00000000    0.00000000    0.00000000
     atom    2 type  1   force =     0.00000000    0.00000000    0.00000000
     The SCF correction term to forces
     atom    1 type  1   force =     0.00000000   -0.00000000   -0.00000000
     atom    2 type  1   force =    -0.00000000    0.00000000    0.00000000

     Total force =     0.000000     Total SCF correction =     0.000000


     Computing stress (Cartesian axis) and pressure

          total   stress  (Ry/bohr**3)                   (kbar)     P=     -192.46
  -0.00106593   0.00000000   0.00000000         -156.80        0.00        0.00
   0.00000000  -0.00106593  -0.00000000            0.00     -156.80       -0.00
   0.00000000   0.00000000  -0.00179305            0.00        0.00     -263.77

     kinetic stress (kbar)   2771.54      0.00     -0.00
                                0.00   2771.54      0.00
                                0.00      0.00   3033.58

     local   stress (kbar) -46952.60      0.00     -0.00
                                0.00 -46952.60      0.00
                               -0.00      0.00  47801.39

     nonloc. stress (kbar)   -149.68      0.00      0.00
                                0.00   -149.68      0.00
                                0.00      0.00    -97.48

     hartree stress (kbar)  22035.70     -0.00      0.00
                               -0.00  22035.70     -0.00
                                0.00     -0.00 -21835.27

     exc-cor stress (kbar)   -243.36      0.00      0.00
                                0.00   -243.36      0.00
                                0.00      0.00   -243.36

     corecor stress (kbar)   -451.91      0.00     -0.00
                                0.00   -451.91     -0.00
                               -0.00     -0.00   -440.27

     ewald   stress (kbar)  22833.51     -0.00     -0.00
                               -0.00  22833.51     -0.00
                               -0.00     -0.00 -28482.36

     hubbard stress (kbar)      0.00      0.00      0.00
                                0.00      0.00      0.00
                                0.00      0.00      0.00

     DFT-D   stress (kbar)      0.00      0.00      0.00
                                0.00      0.00      0.00
                                0.00      0.00      0.00

     XDM     stress (kbar)      0.00      0.00      0.00
                                0.00      0.00      0.00
                                0.00      0.00      0.00

     dft-nl  stress (kbar)      0.00      0.00      0.00
                                0.00      0.00      0.00
                                0.00      0.00      0.00

     TS-vdW  stress (kbar)      0.00      0.00      0.00
                                0.00      0.00      0.00
                                0.00      0.00      0.00

     MDB     stress (kbar)      0.00      0.00      0.00
                                0.00      0.00      0.00
                                0.00      0.00      0.00

     3D-RISM stress (kbar)      0.00      0.00      0.00
                                0.00      0.00      0.00
                                0.00      0.00      0.00


     Writing all to output data dir ./tmp/graphene.save/

     init_run     :      0.45s CPU      0.46s WALL (       1 calls)
     electrons    :      1.55s CPU      1.32s WALL (       1 calls)
     forces       :      0.02s CPU      0.02s WALL (       1 calls)
     stress       :      0.17s CPU      0.17s WALL (       1 calls)

     Called by init_run:
     wfcinit      :      0.21s CPU      0.21s WALL (       1 calls)
     wfcinit:atom :      0.00s CPU      0.00s WALL (      44 calls)
     wfcinit:wfcr :      0.19s CPU      0.19s WALL (      44 calls)
     potinit      :      0.00s CPU      0.00s WALL (       1 calls)
     hinit0       :      0.24s CPU      0.24s WALL (       1 calls)

     Called by electrons:
     c_bands      :      1.44s CPU      1.20s WALL (       4 calls)
     sum_band     :      0.10s CPU      0.10s WALL (       4 calls)
     v_of_rho     :      0.00s CPU      0.01s WALL (       5 calls)
     v_h          :      0.00s CPU      0.00s WALL (       5 calls)
     v_xc         :      0.00s CPU      0.01s WALL (       7 calls)
     mix_rho      :      0.00s CPU      0.00s WALL (       4 calls)

     Called by c_bands:
     init_us_2    :      0.04s CPU      0.04s WALL (     484 calls)
     init_us_2:cp :      0.04s CPU      0.04s WALL (     484 calls)
     cegterg      :      1.39s CPU      1.15s WALL (     176 calls)

     Called by sum_band:
     sum_band:wei :      0.00s CPU      0.00s WALL (       4 calls)
     sum_band:loo :      0.10s CPU      0.10s WALL (       4 calls)
     sum_band:buf :      0.00s CPU      0.00s WALL (     176 calls)
     sum_band:ini :      0.01s CPU      0.01s WALL (     176 calls)

     Called by *egterg:
     cdiaghg      :      0.09s CPU      0.09s WALL (    1302 calls)
     cegterg:over :      0.08s CPU      0.08s WALL (    1126 calls)
     cegterg:upda :      0.19s CPU      0.10s WALL (    1126 calls)
     cegterg:last :      0.13s CPU      0.05s WALL (     547 calls)
     h_psi        :      1.03s CPU      0.95s WALL (    1346 calls)
     g_psi        :      0.01s CPU      0.01s WALL (    1126 calls)

     Called by h_psi:
     h_psi:calbec :      0.05s CPU      0.05s WALL (    1346 calls)
     vloc_psi     :      0.79s CPU      0.81s WALL (    1346 calls)
     add_vuspsi   :      0.18s CPU      0.08s WALL (    1346 calls)

     General routines
     calbec       :      0.06s CPU      0.06s WALL (    1566 calls)
     fft          :      0.23s CPU      0.23s WALL (      22 calls)
     ffts         :      0.00s CPU      0.00s WALL (       4 calls)
     fftw         :      0.68s CPU      0.70s WALL (   11968 calls)

     Parallel routines

     PWSCF        :      2.25s CPU      2.05s WALL


   This run was terminated on:  11:13:11  26Mar2024            

=------------------------------------------------------------------------------=
   JOB DONE.
=------------------------------------------------------------------------------=
