
     Program PWSCF v.7.2 starts on  8Apr2024 at 12:52:37 

     This program is part of the open-source Quantum ESPRESSO suite
     for quantum simulation of materials; please cite
         "P. Giannozzi et al., J. Phys.:Condens. Matter 21 395502 (2009);
         "P. Giannozzi et al., J. Phys.:Condens. Matter 29 465901 (2017);
         "P. Giannozzi et al., J. Chem. Phys. 152 154105 (2020);
          URL http://www.quantum-espresso.org", 
     in publications or presentations arising from this work. More details at
     http://www.quantum-espresso.org/quote

     Parallel version (MPI & OpenMP), running on       8 processor cores
     Number of MPI processes:                 8
     Threads/MPI process:                     1

     MPI processes distributed on     1 nodes
     0 MiB available memory on the printing compute node when the environment starts

     Waiting for input...
     Reading input from standard input

     Current dimensions of program PWSCF are:
     Max number of different atomic species (ntypx) = 10
     Max number of k-points (npk) =  40000
     Max angular momentum in pseudopotentials (lmaxx) =  4

     IMPORTANT: XC functional enforced from input :
     Exchange-correlation= VDW-DF2-B86R
                           (   1   4  26   0   2   0   0)
     Any further DFT definition will be discarded
     Please, verify this is what you really want


     R & G space division:  proc/nbgrp/npool/nimage =       8
     Subspace diagonalization in iterative solution of the eigenvalue problem:
     a serial algorithm will be used


     Parallelization info
     --------------------
     sticks:   dense  smooth     PW     G-vecs:    dense   smooth      PW
     Min          93      93     26                16393    16393    2566
     Max          94      94     27                16428    16428    2595
     Sum         745     745    211               131209   131209   20621

     Using Slab Decomposition



     bravais-lattice index     =            4
     lattice parameter (alat)  =       4.7400  a.u.
     unit-cell volume          =     737.8289 (a.u.)^3
     number of atoms/cell      =            4
     number of atomic types    =            2
     number of electrons       =        16.00
     number of Kohn-Sham states=           12
     kinetic-energy cutoff     =     120.0000  Ry
     charge density cutoff     =     480.0000  Ry
     scf convergence threshold =      1.0E-06
     mixing beta               =       0.7000
     number of iterations used =            8  plain     mixing
     energy convergence thresh.=      1.0E-04
     force convergence thresh. =      1.0E-03
     press convergence thresh. =      5.0E-01
     Exchange-correlation= VDW-DF2-B86R
                           (   1   4  26   0   2   0   0)
     nstep                     =           50


     celldm(1)=   4.740000  celldm(2)=   0.000000  celldm(3)=   8.000000
     celldm(4)=   0.000000  celldm(5)=   0.000000  celldm(6)=   0.000000

     crystal axes: (cart. coord. in units of alat)
               a(1) = (   1.000000   0.000000   0.000000 )  
               a(2) = (  -0.500000   0.866025   0.000000 )  
               a(3) = (   0.000000   0.000000   8.000000 )  

     reciprocal axes: (cart. coord. in units 2 pi/alat)
               b(1) = (  1.000000  0.577350 -0.000000 )  
               b(2) = (  0.000000  1.154701  0.000000 )  
               b(3) = (  0.000000 -0.000000  0.125000 )  


     PseudoPot. # 1 for B  read from file:
     ../../../Pseudo/PBE/B.upf
     MD5 check sum: 72f82fc31bc892420d0cab7e25c88ab8
     Pseudo is Norm-conserving + core correction, Zval =  3.0
     Generated using ONCVPSP code by D. R. Hamann
     Using radial grid of 1534 points,  4 beta functions with: 
                l(1) =   0
                l(2) =   0
                l(3) =   1
                l(4) =   1

     PseudoPot. # 2 for N  read from file:
     ../../../Pseudo/PBE/N.upf
     MD5 check sum: d34365f73bb0e2ee98afc20ec3e87676
     Pseudo is Norm-conserving + core correction, Zval =  5.0
     Generated using ONCVPSP code by D. R. Hamann
     Using radial grid of 1058 points,  4 beta functions with: 
                l(1) =   0
                l(2) =   0
                l(3) =   1
                l(4) =   1

     atomic species   valence    mass     pseudopotential
        B              3.00    10.00000     B ( 1.00)
        N              5.00    14.01100     N ( 1.00)

      6 Sym. Ops. (no inversion) found


                                    s                        frac. trans.

      isym =  1     identity                                     

 cryst.   s( 1) = (     1          0          0      )
                  (     0          1          0      )
                  (     0          0          1      )

 cart.    s( 1) = (  1.0000000  0.0000000  0.0000000 )
                  (  0.0000000  1.0000000  0.0000000 )
                  (  0.0000000  0.0000000  1.0000000 )


      isym =  2     120 deg rotation - cryst. axis [0,0,1]       

 cryst.   s( 2) = (     0          1          0      )
                  (    -1         -1          0      )
                  (     0          0          1      )

 cart.    s( 2) = ( -0.5000000 -0.8660254  0.0000000 )
                  (  0.8660254 -0.5000000  0.0000000 )
                  (  0.0000000  0.0000000  1.0000000 )


      isym =  3     120 deg rotation - cryst. axis [0,0,-1]      

 cryst.   s( 3) = (    -1         -1          0      )
                  (     1          0          0      )
                  (     0          0          1      )

 cart.    s( 3) = ( -0.5000000  0.8660254  0.0000000 )
                  ( -0.8660254 -0.5000000  0.0000000 )
                  (  0.0000000  0.0000000  1.0000000 )


      isym =  4     inv. 180 deg rotation - cart. axis [1,0,0]   

 cryst.   s( 4) = (    -1          0          0      )
                  (     1          1          0      )
                  (     0          0          1      )

 cart.    s( 4) = ( -1.0000000  0.0000000  0.0000000 )
                  (  0.0000000  1.0000000  0.0000000 )
                  (  0.0000000  0.0000000  1.0000000 )


      isym =  5     inv. 180 deg rotation - cryst. axis [0,1,0]  

 cryst.   s( 5) = (     1          1          0      )
                  (     0         -1          0      )
                  (     0          0          1      )

 cart.    s( 5) = (  0.5000000  0.8660254  0.0000000 )
                  (  0.8660254 -0.5000000  0.0000000 )
                  (  0.0000000  0.0000000  1.0000000 )


      isym =  6     inv. 180 deg rotation - cryst. axis [1,1,0]  

 cryst.   s( 6) = (     0         -1          0      )
                  (    -1          0          0      )
                  (     0          0          1      )

 cart.    s( 6) = (  0.5000000 -0.8660254  0.0000000 )
                  ( -0.8660254 -0.5000000  0.0000000 )
                  (  0.0000000  0.0000000  1.0000000 )


     point group C_3v (3m)  
     there are  3 classes
     the character table:

       E     2C3   3s_v 
A_1    1.00  1.00  1.00
A_2    1.00  1.00 -1.00
E      2.00 -1.00  0.00

     the symmetry operations in each class and the name of the first element:

     E        1
          identity                                               
     2C3      2    3
          120 deg rotation - cryst. axis [0,0,1]                 
     3s_v     4    5    6
          inv. 180 deg rotation - cart. axis [1,0,0]             

   Cartesian axes

     site n.     atom                  positions (alat units)
         1           B   tau(   1) = (   0.0000000   0.0000000   0.0000000  )
         2           N   tau(   2) = (   0.5000005   0.2886748   0.0000000  )
         3           N   tau(   3) = (   0.0000000   0.0000000   1.3600000  )
         4           B   tau(   4) = (   0.5000005   0.2886748   1.3600000  )

   Crystallographic axes

     site n.     atom                  positions (cryst. coord.)
         1           B   tau(   1) = (  0.0000000  0.0000000  0.0000000  )
         2           N   tau(   2) = (  0.6666670  0.3333330  0.0000000  )
         3           N   tau(   3) = (  0.0000000  0.0000000  0.1700000  )
         4           B   tau(   4) = (  0.6666670  0.3333330  0.1700000  )

     number of k points=    19  Marzari-Vanderbilt smearing, width (Ry)=  0.0050
                       cart. coord. in units 2pi/alat
        k(    1) = (   0.0000000   0.0000000   0.0000000), wk =   0.0138889
        k(    2) = (   0.0000000   0.0962250   0.0000000), wk =   0.0833333
        k(    3) = (   0.0000000   0.1924501   0.0000000), wk =   0.0833333
        k(    4) = (   0.0000000   0.2886751   0.0000000), wk =   0.0833333
        k(    5) = (   0.0000000   0.3849002   0.0000000), wk =   0.0833333
        k(    6) = (   0.0000000   0.4811252   0.0000000), wk =   0.0833333
        k(    7) = (   0.0000000  -0.5773503   0.0000000), wk =   0.0416667
        k(    8) = (   0.0833333   0.1443376   0.0000000), wk =   0.0833333
        k(    9) = (   0.0833333   0.2405626   0.0000000), wk =   0.1666667
        k(   10) = (   0.0833333   0.3367877   0.0000000), wk =   0.1666667
        k(   11) = (   0.0833333   0.4330127   0.0000000), wk =   0.1666667
        k(   12) = (   0.0833333   0.5292377   0.0000000), wk =   0.1666667
        k(   13) = (   0.1666667   0.2886751   0.0000000), wk =   0.0833333
        k(   14) = (   0.1666667   0.3849002   0.0000000), wk =   0.1666667
        k(   15) = (   0.1666667   0.4811252   0.0000000), wk =   0.1666667
        k(   16) = (   0.1666667   0.5773503   0.0000000), wk =   0.0833333
        k(   17) = (   0.2500000   0.4330127   0.0000000), wk =   0.0833333
        k(   18) = (   0.2500000   0.5292377   0.0000000), wk =   0.1666667
        k(   19) = (   0.3333333   0.5773503   0.0000000), wk =   0.0277778

                       cryst. coord.
        k(    1) = (   0.0000000   0.0000000   0.0000000), wk =   0.0138889
        k(    2) = (   0.0000000   0.0833333   0.0000000), wk =   0.0833333
        k(    3) = (   0.0000000   0.1666667   0.0000000), wk =   0.0833333
        k(    4) = (   0.0000000   0.2500000   0.0000000), wk =   0.0833333
        k(    5) = (   0.0000000   0.3333333   0.0000000), wk =   0.0833333
        k(    6) = (   0.0000000   0.4166667   0.0000000), wk =   0.0833333
        k(    7) = (   0.0000000  -0.5000000   0.0000000), wk =   0.0416667
        k(    8) = (   0.0833333   0.0833333   0.0000000), wk =   0.0833333
        k(    9) = (   0.0833333   0.1666667   0.0000000), wk =   0.1666667
        k(   10) = (   0.0833333   0.2500000   0.0000000), wk =   0.1666667
        k(   11) = (   0.0833333   0.3333333   0.0000000), wk =   0.1666667
        k(   12) = (   0.0833333   0.4166667   0.0000000), wk =   0.1666667
        k(   13) = (   0.1666667   0.1666667   0.0000000), wk =   0.0833333
        k(   14) = (   0.1666667   0.2500000   0.0000000), wk =   0.1666667
        k(   15) = (   0.1666667   0.3333333   0.0000000), wk =   0.1666667
        k(   16) = (   0.1666667   0.4166667   0.0000000), wk =   0.0833333
        k(   17) = (   0.2500000   0.2500000   0.0000000), wk =   0.0833333
        k(   18) = (   0.2500000   0.3333333   0.0000000), wk =   0.1666667
        k(   19) = (   0.3333333   0.3333333   0.0000000), wk =   0.0277778

     Dense  grid:   131209 G-vectors     FFT dimensions: (  36,  36, 270)

     Dynamical RAM for                 wfc:       0.37 MB

     Dynamical RAM for     wfc (w. buffer):       7.50 MB

     Dynamical RAM for           str. fact:       0.50 MB

     Dynamical RAM for           local pot:       0.00 MB

     Dynamical RAM for          nlocal pot:       1.00 MB

     Dynamical RAM for                qrad:       2.01 MB

     Dynamical RAM for          rho,v,vnew:       1.76 MB

     Dynamical RAM for               rhoin:       0.59 MB

     Dynamical RAM for            rho*nmix:       4.00 MB

     Dynamical RAM for           G-vectors:       1.06 MB

     Dynamical RAM for          h,s,v(r/c):       0.03 MB

     Dynamical RAM for          <psi|beta>:       0.01 MB

     Dynamical RAM for                 psi:       0.75 MB

     Dynamical RAM for                hpsi:       0.75 MB

     Dynamical RAM for      wfcinit/wfcrot:       1.01 MB

     Estimated static dynamical RAM per process >      16.84 MB

     Estimated max dynamical RAM per process >      22.38 MB

     Estimated total dynamical RAM >     179.03 MB

     Initial potential from superposition of free atoms

     starting charge      15.9995, renormalised to      16.0000

     negative rho (up, down):  4.186E-06 0.000E+00


     %%%%%%%%%%%%%%%%%%%%%%%%%%%%%%%%%%%%%%%%%%%%%%%%%%%%%%%%%%%%%%%%%%%%%%%%
     %                                                                      %
     % You are using vdW-DF, which was implemented by the Thonhauser group. %
     % Please cite the following two papers that made this development      %
     % possible and the two reviews that describe the various versions:     %
     %                                                                      %
     %   T. Thonhauser et al., PRL 115, 136402 (2015).                      %
     %   T. Thonhauser et al., PRB 76, 125112 (2007).                       %
     %   K. Berland et al., Rep. Prog. Phys. 78, 066501 (2015).             %
     %   D.C. Langreth et al., J. Phys.: Condens. Matter 21, 084203 (2009). %
     %                                                                      %
     % If you are calculating stress with vdW-DF, please also cite:         %
     %                                                                      %
     %   R. Sabatini et al., J. Phys.: Condens. Matter 24, 424209 (2012).   %
     %                                                                      %
     %%%%%%%%%%%%%%%%%%%%%%%%%%%%%%%%%%%%%%%%%%%%%%%%%%%%%%%%%%%%%%%%%%%%%%%%

     %%%%%%%%%%%%%%%%%%%%%%%%%%%%%%%%%%%%%%%%%%%%%%%%%%%%%%%%%%%%%%%%%%%%%%%%
     %                                                                      %
     %  vdW-DF NEWS:                                                        %
     %                                                                      %
     %  * vdW-DF3 is now available. DOI: 10.1021/acs.jctc.0c00471           %
     %    use with input_dft = 'vdW-DF3-opt1' or 'vdW-DF3-opt2'             %
     %                                                                      %
     %  * Unscreened and range-separated hybrid vdW-DF-cx functionals       %
     %    DOI: 10.1063/1.4986522 and 10.1088/1361-648X/ac2ad2               %
     %    use with input_dft = 'vdW-DF-cx0'    and 'vdW-DF-ahcx'            %
     %  * Unscreened and range-separated hybrid vdW-DF2-b86r functionals    %
     %    DOI: 10.1063/1.4986522 and DOI: 10.1103/PhysRevX.12.041003        %
     %    use with input_dft = 'vdW-DF2-br0' and 'vdW-DF2-ahbr'             %
     %                                                                      %
     %%%%%%%%%%%%%%%%%%%%%%%%%%%%%%%%%%%%%%%%%%%%%%%%%%%%%%%%%%%%%%%%%%%%%%%%


     Carrying out vdW-DF run using the following parameters:
     Nqs    =  20  Npoints =  1024  r_max =  100.000
     q_mesh =  0.00001000  0.04494208  0.09755937  0.15916263
               0.23128650  0.31572767  0.41458969  0.53033537
               0.66584808  0.82450364  1.01025438  1.22772762
               1.48234092  1.78043706  2.12944203  2.53805004
               3.01644009  3.57652955  4.23227104  5.00000000


     -----------------------------------------------
     Non-local corr. energy    =       0.17616248 Ry
     -----------------------------------------------

     Starting wfcs are   16 randomized atomic wfcs

     total cpu time spent up to now is       10.3 secs

     Self-consistent Calculation

     iteration #  1     ecut=   120.00 Ry     beta= 0.70
     Davidson diagonalization with overlap

---- Real-time Memory Report at c_bands before calling an iterative solver
             0 MiB given to the printing process from OS
             0 MiB allocation reported by mallinfo(arena+hblkhd)
             0 MiB available memory on the node where the printing process lives
------------------
     ethr =  1.00E-02,  avg # of iterations =  4.2


     -----------------------------------------------
     Non-local corr. energy    =       0.20631708 Ry
     -----------------------------------------------


     total cpu time spent up to now is       11.8 secs

     total energy              =     -53.44437325 Ry
     estimated scf accuracy    <       0.76742278 Ry

     iteration #  2     ecut=   120.00 Ry     beta= 0.70
     Davidson diagonalization with overlap

---- Real-time Memory Report at c_bands before calling an iterative solver
             0 MiB given to the printing process from OS
             0 MiB allocation reported by mallinfo(arena+hblkhd)
             0 MiB available memory on the node where the printing process lives
------------------
     ethr =  4.80E-03,  avg # of iterations =  3.5


     -----------------------------------------------
     Non-local corr. energy    =       0.20020578 Ry
     -----------------------------------------------


     total cpu time spent up to now is       13.2 secs

     total energy              =     -53.64591392 Ry
     estimated scf accuracy    <       0.32892733 Ry

     iteration #  3     ecut=   120.00 Ry     beta= 0.70
     Davidson diagonalization with overlap

---- Real-time Memory Report at c_bands before calling an iterative solver
             0 MiB given to the printing process from OS
             0 MiB allocation reported by mallinfo(arena+hblkhd)
             0 MiB available memory on the node where the printing process lives
------------------
     ethr =  2.06E-03,  avg # of iterations =  2.0


     -----------------------------------------------
     Non-local corr. energy    =       0.20212456 Ry
     -----------------------------------------------


     total cpu time spent up to now is       14.5 secs

     total energy              =     -53.69845764 Ry
     estimated scf accuracy    <       0.00565755 Ry

     iteration #  4     ecut=   120.00 Ry     beta= 0.70
     Davidson diagonalization with overlap

---- Real-time Memory Report at c_bands before calling an iterative solver
             0 MiB given to the printing process from OS
             0 MiB allocation reported by mallinfo(arena+hblkhd)
             0 MiB available memory on the node where the printing process lives
------------------
     ethr =  3.54E-05,  avg # of iterations = 10.1


     -----------------------------------------------
     Non-local corr. energy    =       0.20228910 Ry
     -----------------------------------------------


     total cpu time spent up to now is       16.9 secs

     total energy              =     -53.70330508 Ry
     estimated scf accuracy    <       0.00570607 Ry

     iteration #  5     ecut=   120.00 Ry     beta= 0.70
     Davidson diagonalization with overlap

---- Real-time Memory Report at c_bands before calling an iterative solver
             0 MiB given to the printing process from OS
             0 MiB allocation reported by mallinfo(arena+hblkhd)
             0 MiB available memory on the node where the printing process lives
------------------
     ethr =  3.54E-05,  avg # of iterations =  2.7


     -----------------------------------------------
     Non-local corr. energy    =       0.20227042 Ry
     -----------------------------------------------


     total cpu time spent up to now is       18.3 secs

     total energy              =     -53.70343035 Ry
     estimated scf accuracy    <       0.00109200 Ry

     iteration #  6     ecut=   120.00 Ry     beta= 0.70
     Davidson diagonalization with overlap

---- Real-time Memory Report at c_bands before calling an iterative solver
             0 MiB given to the printing process from OS
             0 MiB allocation reported by mallinfo(arena+hblkhd)
             0 MiB available memory on the node where the printing process lives
------------------
     ethr =  6.83E-06,  avg # of iterations =  4.1

     negative rho (up, down):  2.562E-07 0.000E+00


     -----------------------------------------------
     Non-local corr. energy    =       0.20228993 Ry
     -----------------------------------------------


     total cpu time spent up to now is       19.8 secs

     total energy              =     -53.70375039 Ry
     estimated scf accuracy    <       0.00001715 Ry

     iteration #  7     ecut=   120.00 Ry     beta= 0.70
     Davidson diagonalization with overlap

---- Real-time Memory Report at c_bands before calling an iterative solver
             0 MiB given to the printing process from OS
             0 MiB allocation reported by mallinfo(arena+hblkhd)
             0 MiB available memory on the node where the printing process lives
------------------
     c_bands:  1 eigenvalues not converged
     ethr =  1.07E-07,  avg # of iterations =  7.1


     -----------------------------------------------
     Non-local corr. energy    =       0.20230580 Ry
     -----------------------------------------------


     total cpu time spent up to now is       22.0 secs

     total energy              =     -53.70375265 Ry
     estimated scf accuracy    <       0.00002241 Ry

     iteration #  8     ecut=   120.00 Ry     beta= 0.70
     Davidson diagonalization with overlap

---- Real-time Memory Report at c_bands before calling an iterative solver
             0 MiB given to the printing process from OS
             0 MiB allocation reported by mallinfo(arena+hblkhd)
             0 MiB available memory on the node where the printing process lives
------------------
     ethr =  1.07E-07,  avg # of iterations =  1.9


     -----------------------------------------------
     Non-local corr. energy    =       0.20230737 Ry
     -----------------------------------------------


     total cpu time spent up to now is       23.1 secs

     total energy              =     -53.70375452 Ry
     estimated scf accuracy    <       0.00000113 Ry

     iteration #  9     ecut=   120.00 Ry     beta= 0.70
     Davidson diagonalization with overlap

---- Real-time Memory Report at c_bands before calling an iterative solver
             0 MiB given to the printing process from OS
             0 MiB allocation reported by mallinfo(arena+hblkhd)
             0 MiB available memory on the node where the printing process lives
------------------
     ethr =  7.06E-09,  avg # of iterations =  4.2


     -----------------------------------------------
     Non-local corr. energy    =       0.20231313 Ry
     -----------------------------------------------


     total cpu time spent up to now is       24.7 secs

     End of self-consistent calculation

          k = 0.0000 0.0000 0.0000 ( 16399 PWs)   bands (ev):

   -20.1342 -20.0105  -8.1782  -7.2255  -3.8487  -3.8486  -3.8343  -3.8343
     2.0151   2.5625   3.7036   4.7835

     occupation numbers 
     1.0000   1.0000   1.0000   1.0000   1.0000   1.0000   1.0000   1.0000
     0.0000   0.0000   0.0000   0.0000

          k = 0.0000 0.0962 0.0000 ( 16391 PWs)   bands (ev):

   -20.0004 -19.8787  -7.9953  -7.0512  -4.3989  -4.3876  -4.1052  -4.0892
     2.2472   2.7762   3.9260   4.9487

     occupation numbers 
     1.0000   1.0000   1.0000   1.0000   1.0000   1.0000   1.0000   1.0000
     0.0000   0.0000   0.0000   0.0000

          k = 0.0000 0.1925 0.0000 ( 16390 PWs)   bands (ev):

   -19.6064 -19.4907  -7.4551  -6.5409  -5.7903  -5.7791  -4.7306  -4.7112
     2.9068   3.3983   4.5799   5.4613

     occupation numbers 
     1.0000   1.0000   1.0000   1.0000   1.0000   1.0000   1.0000   1.0000
     0.0000   0.0000   0.0000   0.0000

          k = 0.0000 0.2887 0.0000 ( 16370 PWs)   bands (ev):

   -18.9791 -18.8741  -7.5732  -7.5530  -6.5730  -5.7098  -5.4567  -5.4344
     3.9490   4.3450   5.5139   5.8932

     occupation numbers 
     1.0000   1.0000   1.0000   1.0000   1.0000   1.0000   1.0000   1.0000
     0.0000   0.0000   0.0000   0.0000

          k = 0.0000 0.3849 0.0000 ( 16376 PWs)   bands (ev):

   -18.1865 -18.0987  -9.3399  -9.3086  -6.0811  -6.0568  -5.4435  -4.6679
     4.3886   4.7254   5.3250   6.3195

     occupation numbers 
     1.0000   1.0000   1.0000   1.0000   1.0000   1.0000   1.0000   1.0000
     0.0000   0.0000   0.0000   0.0000

          k = 0.0000 0.4811 0.0000 ( 16402 PWs)   bands (ev):

   -17.4025 -17.3430 -10.7520 -10.7189  -6.4910  -6.4656  -4.2507  -3.6353
     2.8073   3.3571   6.7041   7.3673

     occupation numbers 
     1.0000   1.0000   1.0000   1.0000   1.0000   1.0000   1.0000   1.0000
     0.0000   0.0000   0.0000   0.0000

          k = 0.0000-0.5774 0.0000 ( 16394 PWs)   bands (ev):

   -17.0255 -16.9961 -11.3329 -11.3058  -6.6329  -6.6071  -3.6159  -3.1609
     2.0365   2.6644   7.1989   7.4920

     occupation numbers 
     1.0000   1.0000   1.0000   1.0000   1.0000   1.0000   1.0000   1.0000
     0.0000   0.0000   0.0000   0.0000

          k = 0.0833 0.1443 0.0000 ( 16405 PWs)   bands (ev):

   -19.7364 -19.6186  -7.6334  -6.7079  -5.3016  -5.2968  -4.6114  -4.5948
     2.6937   3.1950   4.3653   5.3107

     occupation numbers 
     1.0000   1.0000   1.0000   1.0000   1.0000   1.0000   1.0000   1.0000
     0.0000   0.0000   0.0000   0.0000

          k = 0.0833 0.2406 0.0000 ( 16381 PWs)   bands (ev):

   -19.2244 -19.1150  -6.9522  -6.7865  -6.7402  -6.0283  -5.3974  -5.3768
     3.5515   3.9937   5.2130   5.8094

     occupation numbers 
     1.0000   1.0000   1.0000   1.0000   1.0000   1.0000   1.0000   1.0000
     0.0000   0.0000   0.0000   0.0000

          k = 0.0833 0.3368 0.0000 ( 16367 PWs)   bands (ev):

   -18.5082 -18.4124  -8.4915  -8.4675  -6.1439  -6.1204  -5.9069  -5.0912
     4.7687   4.8066   5.2684   6.2182

     occupation numbers 
     1.0000   1.0000   1.0000   1.0000   1.0000   1.0000   1.0000   1.0000
     0.0000   0.0000   0.0000   0.0000

          k = 0.0833 0.4330 0.0000 ( 16378 PWs)   bands (ev):

   -17.6966 -17.6227 -10.0710 -10.0388  -6.6934  -6.6671  -4.7154  -4.0200
     3.5777   3.9927   6.3024   7.1293

     occupation numbers 
     1.0000   1.0000   1.0000   1.0000   1.0000   1.0000   1.0000   1.0000
     0.0000   0.0000   0.0000   0.0000

          k = 0.0833 0.5292 0.0000 ( 16379 PWs)   bands (ev):

   -17.0617 -17.0221 -11.1051 -11.0748  -6.9820  -6.9546  -3.6911  -3.1957
     2.2863   2.8479   7.5418   8.0139

     occupation numbers 
     1.0000   1.0000   1.0000   1.0000   1.0000   1.0000   1.0000   1.0000
     0.0000   0.0000   0.0000   0.0000

          k = 0.1667 0.2887 0.0000 ( 16366 PWs)   bands (ev):

   -18.6195 -18.5211  -7.9820  -7.9804  -6.4107  -6.3862  -6.0654  -5.2370
     4.6076   4.7924   5.4946   6.3459

     occupation numbers 
     1.0000   1.0000   1.0000   1.0000   1.0000   1.0000   1.0000   1.0000
     0.0000   0.0000   0.0000   0.0000

          k = 0.1667 0.3849 0.0000 ( 16360 PWs)   bands (ev):

   -17.8629 -17.7819  -9.3324  -9.3138  -7.2704  -7.2449  -4.9720  -4.2387
     4.2149   4.4376   6.0549   6.8472

     occupation numbers 
     1.0000   1.0000   1.0000   1.0000   1.0000   1.0000   1.0000   1.0000
     0.0000   0.0000   0.0000   0.0000

          k = 0.1667 0.4811 0.0000 ( 16379 PWs)   bands (ev):

   -17.1282 -17.0749 -10.5177 -10.4869  -7.7904  -7.7615  -3.8266  -3.2679
     2.8419   3.2233   7.7442   8.4635

     occupation numbers 
     1.0000   1.0000   1.0000   1.0000   1.0000   1.0000   1.0000   1.0000
     0.0000   0.0000   0.0000   0.0000

          k = 0.1667 0.5774 0.0000 ( 16386 PWs)   bands (ev):

   -16.7825 -16.7572 -11.0205 -10.9878  -7.9618  -7.9316  -3.2170  -2.8390
     2.1853   2.6235   8.8714   9.4070

     occupation numbers 
     1.0000   1.0000   1.0000   1.0000   1.0000   1.0000   1.0000   1.0000
     0.0000   0.0000   0.0000   0.0000

          k = 0.2500 0.4330 0.0000 ( 16348 PWs)   bands (ev):

   -17.1594 -17.1010 -10.0548 -10.0387  -8.3445  -8.3232  -3.8885  -3.3043
     3.1716   3.4045   7.6743   8.3250

     occupation numbers 
     1.0000   1.0000   1.0000   1.0000   1.0000   1.0000   1.0000   1.0000
     0.0000   0.0000   0.0000   0.0000

          k = 0.2500 0.5292 0.0000 ( 16377 PWs)   bands (ev):

   -16.6408 -16.6136 -10.5778 -10.5387  -8.9497  -8.9258  -2.9777  -2.6460
     2.3645   2.5991   9.3265   9.4664

     occupation numbers 
     1.0000   1.0000   1.0000   1.0000   1.0000   1.0000   1.0000   1.0000
     0.0000   0.0000   0.0000   0.0000

          k = 0.3333 0.5774 0.0000 ( 16404 PWs)   bands (ev):

   -16.4357 -16.4355 -10.3820 -10.3153  -9.6106  -9.6104  -2.4983  -2.4980
     2.2705   2.2705   8.8695  10.7373

     occupation numbers 
     1.0000   1.0000   1.0000   1.0000   1.0000   1.0000   1.0000   1.0000
     0.0000   0.0000   0.0000   0.0000

     the Fermi energy is    -0.6695 ev

!    total energy              =     -53.70375515 Ry
     estimated scf accuracy    <       0.00000022 Ry
     smearing contrib. (-TS)   =       0.00000000 Ry
     internal energy E=F+TS    =     -53.70375515 Ry

     The total energy is F=E-TS. E is the sum of the following terms:
     one-electron contribution =    -523.64550393 Ry
     hartree contribution      =     265.99518818 Ry
     xc contribution           =     -17.38794442 Ry
     ewald contribution        =     221.33450503 Ry

     convergence has been achieved in   9 iterations


     -----------------------------------------------
     Non-local corr. energy    =       0.20231313 Ry
     -----------------------------------------------


     Forces acting on atoms (cartesian axes, Ry/au):

     atom    1 type  1   force =     0.00000000    0.00000000    0.00125696
     atom    2 type  2   force =     0.00000000    0.00000000   -0.00009140
     atom    3 type  2   force =     0.00000000    0.00000000    0.00008759
     atom    4 type  1   force =     0.00000000    0.00000000   -0.00125315
     The non-local contrib.  to forces
     atom    1 type  1   force =     0.00000000    0.00000000    0.00036182
     atom    2 type  2   force =     0.00000000    0.00000000   -0.00081242
     atom    3 type  2   force =     0.00000000    0.00000000    0.00079980
     atom    4 type  1   force =     0.00000000    0.00000000   -0.00036094
     The ionic contribution  to forces
     atom    1 type  1   force =     0.00000773   -0.00000446  -10.23216276
     atom    2 type  2   force =    -0.00000773    0.00000446  -17.05059038
     atom    3 type  2   force =     0.00000773   -0.00000446   17.05059038
     atom    4 type  1   force =    -0.00000773    0.00000446   10.23216276
     The local contribution  to forces
     atom    1 type  1   force =    -0.00000000    0.00000000   10.23313294
     atom    2 type  2   force =    -0.00003349    0.00001933   17.05133057
     atom    3 type  2   force =     0.00000000    0.00000000  -17.05139553
     atom    4 type  1   force =     0.00000419   -0.00000242  -10.23316540
     The core correction contribution to forces
     atom    1 type  1   force =     0.00000000   -0.00000000   -0.00005790
     atom    2 type  2   force =     0.00000139   -0.00000080    0.00001624
     atom    3 type  2   force =     0.00000000   -0.00000000   -0.00001627
     atom    4 type  1   force =     0.00000026   -0.00000015    0.00005764
     The Hubbard contrib.    to forces
     atom    1 type  1   force =     0.00000000    0.00000000    0.00000000
     atom    2 type  2   force =     0.00000000    0.00000000    0.00000000
     atom    3 type  2   force =     0.00000000    0.00000000    0.00000000
     atom    4 type  1   force =     0.00000000    0.00000000    0.00000000
     The SCF correction term to forces
     atom    1 type  1   force =    -0.00000000    0.00000000   -0.00000000
     atom    2 type  2   force =     0.00000000   -0.00000000   -0.00000000
     atom    3 type  2   force =    -0.00000000    0.00000000    0.00010583
     atom    4 type  1   force =    -0.00000000    0.00000000    0.00004940

     Total force =     0.001256     Total SCF correction =     0.000117


     Computing stress (Cartesian axis) and pressure



     -----------------------------------------------
     Non-local corr. energy    =       0.20231313 Ry
     -----------------------------------------------

          total   stress  (Ry/bohr**3)                   (kbar)     P=        3.90
   0.00004446  -0.00000000   0.00000000            6.54       -0.00        0.00
  -0.00000000   0.00004446  -0.00000000           -0.00        6.54       -0.00
   0.00000000  -0.00000000  -0.00000935            0.00       -0.00       -1.38

     kinetic stress (kbar)   4829.80      0.00      0.00
                                0.00   4829.80      0.00
                                0.00      0.00   5251.63

     local   stress (kbar)-107300.30      0.00     -0.00
                                0.00-107300.30      0.00
                               -0.00      0.00 107983.43

     nonloc. stress (kbar)   -797.26      0.00      0.00
                                0.00   -797.26      0.00
                                0.00      0.00   -769.45

     hartree stress (kbar)  52198.21     -0.00      0.00
                               -0.00  52198.21     -0.00
                                0.00     -0.00 -51363.47

     exc-cor stress (kbar)   -485.17     -0.00     -0.00
                               -0.00   -485.17      0.00
                               -0.00      0.00   -532.84

     corecor stress (kbar)   -541.73      0.00      0.00
                                0.00   -541.73     -0.00
                                0.00     -0.00   -529.86

     ewald   stress (kbar)  52098.64     -0.01      0.00
                               -0.01  52098.63     -0.00
                                0.00     -0.00 -60068.56

     hubbard stress (kbar)      0.00      0.00      0.00
                                0.00      0.00      0.00
                                0.00      0.00      0.00

     DFT-D   stress (kbar)      0.00      0.00      0.00
                                0.00      0.00      0.00
                                0.00      0.00      0.00

     XDM     stress (kbar)      0.00      0.00      0.00
                                0.00      0.00      0.00
                                0.00      0.00      0.00

     dft-nl  stress (kbar)      4.36      0.00      0.00
                                0.00      4.36     -0.00
                                0.00     -0.00     27.75

     TS-vdW  stress (kbar)      0.00      0.00      0.00
                                0.00      0.00      0.00
                                0.00      0.00      0.00

     MDB     stress (kbar)      0.00      0.00      0.00
                                0.00      0.00      0.00
                                0.00      0.00      0.00

     3D-RISM stress (kbar)      0.00      0.00      0.00
                                0.00      0.00      0.00
                                0.00      0.00      0.00


     BFGS Geometry Optimization
     Energy error            =      0.0E+00 Ry
     Gradient error          =      1.3E-03 Ry/Bohr
     Cell gradient error     =      1.4E+00 kbar

     number of scf cycles    =   1
     number of bfgs steps    =   0

     enthalpy           new  =     -53.7037551455 Ry

     new trust radius        =       0.0012702945 bohr
     new conv_thr            =       0.0000010000 Ry

     new unit-cell volume =    737.65634 a.u.^3 (   109.30939 Ang^3 )
     density =      0.72951 g/cm^3

CELL_PARAMETERS (alat=  4.74000000)
   1.000000000   0.000000000   0.000000000
  -0.500000000   0.866025404   0.000000000
   0.000000000   0.000000000   7.998129376

ATOMIC_POSITIONS (crystal)
B             0.0000000000        0.0000000000        0.0000000000    0   0   0
N             0.6666670000        0.3333330000        0.0000000000    0   0   0
N             0.0000000000        0.0000000000        0.1700023100
B             0.6666670000        0.3333330000        0.1699669529



     Writing config-only to output data dir ./tmp/BN2L_AA1_PBE_vdW.save/
     NEW-OLD atomic charge density approx. for the potential

     negative rho (up, down):  2.165E-08 0.000E+00


     -----------------------------------------------
     Non-local corr. energy    =       0.20226697 Ry
     -----------------------------------------------

     extrapolated charge   15.99626, renormalised to   16.00000

     total cpu time spent up to now is       30.5 secs

     Self-consistent Calculation

     iteration #  1     ecut=   120.00 Ry     beta= 0.70
     Davidson diagonalization with overlap

---- Real-time Memory Report at c_bands before calling an iterative solver
             0 MiB given to the printing process from OS
             0 MiB allocation reported by mallinfo(arena+hblkhd)
             0 MiB available memory on the node where the printing process lives
------------------
     ethr =  1.00E-06,  avg # of iterations =  3.4

     Threshold (ethr) on eigenvalues was too large:
     Diagonalizing with lowered threshold

     Davidson diagonalization with overlap

---- Real-time Memory Report at c_bands before calling an iterative solver
             0 MiB given to the printing process from OS
             0 MiB allocation reported by mallinfo(arena+hblkhd)
             0 MiB available memory on the node where the printing process lives
------------------
     ethr =  6.96E-08,  avg # of iterations =  1.2


     -----------------------------------------------
     Non-local corr. energy    =       0.20234093 Ry
     -----------------------------------------------


     total cpu time spent up to now is       33.1 secs

     total energy              =     -53.70374090 Ry
     estimated scf accuracy    <       0.00001198 Ry

     iteration #  2     ecut=   120.00 Ry     beta= 0.70
     Davidson diagonalization with overlap

---- Real-time Memory Report at c_bands before calling an iterative solver
             0 MiB given to the printing process from OS
             0 MiB allocation reported by mallinfo(arena+hblkhd)
             0 MiB available memory on the node where the printing process lives
------------------
     ethr =  7.49E-08,  avg # of iterations =  3.5


     -----------------------------------------------
     Non-local corr. energy    =       0.20232206 Ry
     -----------------------------------------------


     total cpu time spent up to now is       34.6 secs

     total energy              =     -53.70375594 Ry
     estimated scf accuracy    <       0.00005466 Ry

     iteration #  3     ecut=   120.00 Ry     beta= 0.70
     Davidson diagonalization with overlap

---- Real-time Memory Report at c_bands before calling an iterative solver
             0 MiB given to the printing process from OS
             0 MiB allocation reported by mallinfo(arena+hblkhd)
             0 MiB available memory on the node where the printing process lives
------------------
     ethr =  7.49E-08,  avg # of iterations =  2.0


     -----------------------------------------------
     Non-local corr. energy    =       0.20231521 Ry
     -----------------------------------------------


     total cpu time spent up to now is       35.8 secs

     total energy              =     -53.70375955 Ry
     estimated scf accuracy    <       0.00000740 Ry

     iteration #  4     ecut=   120.00 Ry     beta= 0.70
     Davidson diagonalization with overlap

---- Real-time Memory Report at c_bands before calling an iterative solver
             0 MiB given to the printing process from OS
             0 MiB allocation reported by mallinfo(arena+hblkhd)
             0 MiB available memory on the node where the printing process lives
------------------
     ethr =  4.63E-08,  avg # of iterations =  1.0


     -----------------------------------------------
     Non-local corr. energy    =       0.20230336 Ry
     -----------------------------------------------


     total cpu time spent up to now is       36.9 secs

     total energy              =     -53.70375820 Ry
     estimated scf accuracy    <       0.00000461 Ry

     iteration #  5     ecut=   120.00 Ry     beta= 0.70
     Davidson diagonalization with overlap

---- Real-time Memory Report at c_bands before calling an iterative solver
             0 MiB given to the printing process from OS
             0 MiB allocation reported by mallinfo(arena+hblkhd)
             0 MiB available memory on the node where the printing process lives
------------------
     ethr =  2.88E-08,  avg # of iterations =  1.3


     -----------------------------------------------
     Non-local corr. energy    =       0.20228496 Ry
     -----------------------------------------------


     total cpu time spent up to now is       37.9 secs

     End of self-consistent calculation

          k = 0.0000 0.0000 0.0000 ( 16399 PWs)   bands (ev):

   -20.1289 -20.0048  -8.1741  -7.2199  -3.8429  -3.8428  -3.8282  -3.8282
     2.0179   2.5648   3.7292   4.7983

     occupation numbers 
     1.0000   1.0000   1.0000   1.0000   1.0000   1.0000   1.0000   1.0000
     0.0000   0.0000   0.0000   0.0000

          k = 0.0000 0.0962 0.0000 ( 16391 PWs)   bands (ev):

   -19.9951 -19.8730  -7.9912  -7.0456  -4.3932  -4.3816  -4.0995  -4.0831
     2.2499   2.7786   3.9517   4.9632

     occupation numbers 
     1.0000   1.0000   1.0000   1.0000   1.0000   1.0000   1.0000   1.0000
     0.0000   0.0000   0.0000   0.0000

          k = 0.0000 0.1925 0.0000 ( 16390 PWs)   bands (ev):

   -19.6010 -19.4851  -7.4509  -6.5354  -5.7847  -5.7732  -4.7249  -4.7053
     2.9096   3.4008   4.6048   5.4754

     occupation numbers 
     1.0000   1.0000   1.0000   1.0000   1.0000   1.0000   1.0000   1.0000
     0.0000   0.0000   0.0000   0.0000

          k = 0.0000 0.2887 0.0000 ( 16370 PWs)   bands (ev):

   -18.9736 -18.8684  -7.5678  -7.5473  -6.5688  -5.7041  -5.4510  -5.4285
     3.9519   4.3477   5.5254   5.9162

     occupation numbers 
     1.0000   1.0000   1.0000   1.0000   1.0000   1.0000   1.0000   1.0000
     0.0000   0.0000   0.0000   0.0000

          k = 0.0000 0.3849 0.0000 ( 16376 PWs)   bands (ev):

   -18.1809 -18.0929  -9.3347  -9.3031  -6.0755  -6.0510  -5.4390  -4.6621
     4.3930   4.7300   5.3281   6.3219

     occupation numbers 
     1.0000   1.0000   1.0000   1.0000   1.0000   1.0000   1.0000   1.0000
     0.0000   0.0000   0.0000   0.0000

          k = 0.0000 0.4811 0.0000 ( 16402 PWs)   bands (ev):

   -17.3969 -17.3372 -10.7469 -10.7136  -6.4855  -6.4599  -4.2459  -3.6294
     2.8111   3.3616   6.7081   7.3713

     occupation numbers 
     1.0000   1.0000   1.0000   1.0000   1.0000   1.0000   1.0000   1.0000
     0.0000   0.0000   0.0000   0.0000

          k = 0.0000-0.5774 0.0000 ( 16394 PWs)   bands (ev):

   -17.0197 -16.9902 -11.3279 -11.3006  -6.6274  -6.6014  -3.6109  -3.1549
     2.0400   2.6687   7.2034   7.4965

     occupation numbers 
     1.0000   1.0000   1.0000   1.0000   1.0000   1.0000   1.0000   1.0000
     0.0000   0.0000   0.0000   0.0000

          k = 0.0833 0.1443 0.0000 ( 16405 PWs)   bands (ev):

   -19.7310 -19.6130  -7.6293  -6.7023  -5.2962  -5.2906  -4.6057  -4.5889
     2.6965   3.1974   4.3907   5.3249

     occupation numbers 
     1.0000   1.0000   1.0000   1.0000   1.0000   1.0000   1.0000   1.0000
     0.0000   0.0000   0.0000   0.0000

          k = 0.0833 0.2406 0.0000 ( 16381 PWs)   bands (ev):

   -19.2190 -19.1093  -6.9475  -6.7810  -6.7350  -6.0226  -5.3918  -5.3709
     3.5543   3.9963   5.2351   5.8240

     occupation numbers 
     1.0000   1.0000   1.0000   1.0000   1.0000   1.0000   1.0000   1.0000
     0.0000   0.0000   0.0000   0.0000

          k = 0.0833 0.3368 0.0000 ( 16367 PWs)   bands (ev):

   -18.5027 -18.4066  -8.4862  -8.4619  -6.1384  -6.1147  -5.9026  -5.0854
     4.7716   4.8107   5.2729   6.2216

     occupation numbers 
     1.0000   1.0000   1.0000   1.0000   1.0000   1.0000   1.0000   1.0000
     0.0000   0.0000   0.0000   0.0000

          k = 0.0833 0.4330 0.0000 ( 16378 PWs)   bands (ev):

   -17.6909 -17.6168 -10.0659 -10.0333  -6.6879  -6.6614  -4.7108  -4.0142
     3.5818   3.9973   6.3057   7.1316

     occupation numbers 
     1.0000   1.0000   1.0000   1.0000   1.0000   1.0000   1.0000   1.0000
     0.0000   0.0000   0.0000   0.0000

          k = 0.0833 0.5292 0.0000 ( 16379 PWs)   bands (ev):

   -17.0559 -17.0161 -11.1000 -11.0696  -6.9766  -6.9489  -3.6861  -3.1897
     2.2899   2.8523   7.5461   8.0182

     occupation numbers 
     1.0000   1.0000   1.0000   1.0000   1.0000   1.0000   1.0000   1.0000
     0.0000   0.0000   0.0000   0.0000

          k = 0.1667 0.2887 0.0000 ( 16366 PWs)   bands (ev):

   -18.6140 -18.5154  -7.9773  -7.9740  -6.4052  -6.3805  -6.0611  -5.2312
     4.6105   4.7959   5.4993   6.3503

     occupation numbers 
     1.0000   1.0000   1.0000   1.0000   1.0000   1.0000   1.0000   1.0000
     0.0000   0.0000   0.0000   0.0000

          k = 0.1667 0.3849 0.0000 ( 16360 PWs)   bands (ev):

   -17.8573 -17.7761  -9.3271  -9.3082  -7.2650  -7.2393  -4.9675  -4.2329
     4.2193   4.4423   6.0578   6.8490

     occupation numbers 
     1.0000   1.0000   1.0000   1.0000   1.0000   1.0000   1.0000   1.0000
     0.0000   0.0000   0.0000   0.0000

          k = 0.1667 0.4811 0.0000 ( 16379 PWs)   bands (ev):

   -17.1224 -17.0689 -10.5125 -10.4816  -7.7851  -7.7559  -3.8217  -3.2619
     2.8458   3.2277   7.7476   8.4657

     occupation numbers 
     1.0000   1.0000   1.0000   1.0000   1.0000   1.0000   1.0000   1.0000
     0.0000   0.0000   0.0000   0.0000

          k = 0.1667 0.5774 0.0000 ( 16386 PWs)   bands (ev):

   -16.7767 -16.7512 -11.0155 -10.9825  -7.9565  -7.9260  -3.2118  -2.8329
     2.1889   2.6277   8.8759   9.4114

     occupation numbers 
     1.0000   1.0000   1.0000   1.0000   1.0000   1.0000   1.0000   1.0000
     0.0000   0.0000   0.0000   0.0000

          k = 0.2500 0.4330 0.0000 ( 16348 PWs)   bands (ev):

   -17.1537 -17.0951 -10.0496 -10.0333  -8.3393  -8.3177  -3.8837  -3.2983
     3.1756   3.4090   7.6774   8.3269

     occupation numbers 
     1.0000   1.0000   1.0000   1.0000   1.0000   1.0000   1.0000   1.0000
     0.0000   0.0000   0.0000   0.0000

          k = 0.2500 0.5292 0.0000 ( 16377 PWs)   bands (ev):

   -16.6350 -16.6075 -10.5727 -10.5333  -8.9446  -8.9204  -2.9724  -2.6399
     2.3682   2.6032   9.3306   9.4696

     occupation numbers 
     1.0000   1.0000   1.0000   1.0000   1.0000   1.0000   1.0000   1.0000
     0.0000   0.0000   0.0000   0.0000

          k = 0.3333 0.5774 0.0000 ( 16404 PWs)   bands (ev):

   -16.4310 -16.4282 -10.3769 -10.3099  -9.6067  -9.6039  -2.4937  -2.4909
     2.2728   2.2756   8.8730  10.7431

     occupation numbers 
     1.0000   1.0000   1.0000   1.0000   1.0000   1.0000   1.0000   1.0000
     0.0000   0.0000   0.0000   0.0000

     the Fermi energy is    -0.6638 ev

!    total energy              =     -53.70375782 Ry
     estimated scf accuracy    <       0.00000084 Ry
     smearing contrib. (-TS)   =       0.00000000 Ry
     internal energy E=F+TS    =     -53.70375782 Ry

     The total energy is F=E-TS. E is the sum of the following terms:
     one-electron contribution =    -523.51614365 Ry
     hartree contribution      =     265.92416490 Ry
     xc contribution           =     -17.38715707 Ry
     ewald contribution        =     221.27537800 Ry

     convergence has been achieved in   5 iterations


     -----------------------------------------------
     Non-local corr. energy    =       0.20228496 Ry
     -----------------------------------------------


     Forces acting on atoms (cartesian axes, Ry/au):

     atom    1 type  1   force =     0.00000000    0.00000000    0.00126915
     atom    2 type  2   force =     0.00000000    0.00000000   -0.00038265
     atom    3 type  2   force =     0.00000000   -0.00000000   -0.00001194
     atom    4 type  1   force =     0.00000000    0.00000000   -0.00087456
     The non-local contrib.  to forces
     atom    1 type  1   force =     0.00000000    0.00000000    0.00049282
     atom    2 type  2   force =    -0.00000000   -0.00000000   -0.00130679
     atom    3 type  2   force =    -0.00000000   -0.00000000   -0.00077836
     atom    4 type  1   force =     0.00000000   -0.00000000   -0.00060287
     The ionic contribution  to forces
     atom    1 type  1   force =     0.00000773   -0.00000446  -10.23250492
     atom    2 type  2   force =    -0.00000773    0.00000446  -17.05116341
     atom    3 type  2   force =     0.00000773   -0.00000446   17.05852869
     atom    4 type  1   force =    -0.00000773    0.00000446   10.22513964
     The local contribution  to forces
     atom    1 type  1   force =     0.00000000    0.00000000   10.23217660
     atom    2 type  2   force =    -0.00003348    0.00001933   17.04974936
     atom    3 type  2   force =    -0.00000000    0.00000000  -17.05556623
     atom    4 type  1   force =     0.00000419   -0.00000242  -10.22439267
     The core correction contribution to forces
     atom    1 type  1   force =     0.00000000   -0.00000000   -0.00006935
     atom    2 type  2   force =     0.00000139   -0.00000080    0.00001960
     atom    3 type  2   force =     0.00000000   -0.00000000    0.00003380
     atom    4 type  1   force =     0.00000026   -0.00000015    0.00008709
     The Hubbard contrib.    to forces
     atom    1 type  1   force =     0.00000000    0.00000000    0.00000000
     atom    2 type  2   force =     0.00000000    0.00000000    0.00000000
     atom    3 type  2   force =     0.00000000    0.00000000    0.00000000
     atom    4 type  1   force =     0.00000000    0.00000000    0.00000000
     The SCF correction term to forces
     atom    1 type  1   force =     0.00000000   -0.00000000    0.00000000
     atom    2 type  2   force =    -0.00000000    0.00000000    0.00000000
     atom    3 type  2   force =    -0.00000000    0.00000000   -0.00224998
     atom    4 type  1   force =     0.00000000   -0.00000000   -0.00112590

     Total force =     0.000875     Total SCF correction =     0.002516
     SCF correction compared to forces is large: reduce conv_thr to get better values


     Computing stress (Cartesian axis) and pressure



     -----------------------------------------------
     Non-local corr. energy    =       0.20228496 Ry
     -----------------------------------------------

          total   stress  (Ry/bohr**3)                   (kbar)     P=        3.57
   0.00004281   0.00000000   0.00000000            6.30        0.00        0.00
   0.00000000   0.00004281   0.00000000            0.00        6.30        0.00
   0.00000000   0.00000000  -0.00001287            0.00        0.00       -1.89

     kinetic stress (kbar)   4830.43      0.00      0.00
                                0.00   4830.43     -0.00
                                0.00     -0.00   5252.18

     local   stress (kbar)-107299.79      0.00     -0.00
                                0.00-107299.79      0.00
                               -0.00      0.00 107983.19

     nonloc. stress (kbar)   -797.21      0.00      0.00
                                0.00   -797.21     -0.00
                                0.00     -0.00   -769.34

     hartree stress (kbar)  52196.59      0.00      0.00
                                0.00  52196.59     -0.00
                                0.00     -0.00 -51361.98

     exc-cor stress (kbar)   -485.24     -0.00     -0.00
                               -0.00   -485.24      0.00
                               -0.00      0.00   -532.92

     corecor stress (kbar)   -541.84      0.00      0.00
                                0.00   -541.84     -0.00
                                0.00     -0.00   -529.97

     ewald   stress (kbar)  52099.02     -0.01      0.00
                               -0.01  52099.01     -0.00
                                0.00     -0.00 -60070.80

     hubbard stress (kbar)      0.00      0.00      0.00
                                0.00      0.00      0.00
                                0.00      0.00      0.00

     DFT-D   stress (kbar)      0.00      0.00      0.00
                                0.00      0.00      0.00
                                0.00      0.00      0.00

     XDM     stress (kbar)      0.00      0.00      0.00
                                0.00      0.00      0.00
                                0.00      0.00      0.00

     dft-nl  stress (kbar)      4.36      0.00      0.00
                                0.00      4.36     -0.00
                                0.00     -0.00     27.76

     TS-vdW  stress (kbar)      0.00      0.00      0.00
                                0.00      0.00      0.00
                                0.00      0.00      0.00

     MDB     stress (kbar)      0.00      0.00      0.00
                                0.00      0.00      0.00
                                0.00      0.00      0.00

     3D-RISM stress (kbar)      0.00      0.00      0.00
                                0.00      0.00      0.00
                                0.00      0.00      0.00

     Energy error            =      2.7E-06 Ry
     Gradient error          =      8.7E-04 Ry/Bohr
     Cell gradient error     =      1.9E+00 kbar

     number of scf cycles    =   2
     number of bfgs steps    =   1

     enthalpy           old  =     -53.7037551455 Ry
     enthalpy           new  =     -53.7037578219 Ry

     CASE: enthalpy          _new < enthalpy          _old


     WARNING: bfgs curvature condition failed, Theta= 0.770
     new trust radius        =       0.0013974874 bohr
     new conv_thr            =       0.0000000100 Ry

     new unit-cell volume =    737.50325 a.u.^3 (   109.28671 Ang^3 )
     density =      0.72966 g/cm^3

CELL_PARAMETERS (alat=  4.74000000)
   1.000000000   0.000000000   0.000000000
  -0.500000000   0.866025404   0.000000000
   0.000000000   0.000000000   7.996469457

ATOMIC_POSITIONS (crystal)
B             0.0000000000        0.0000000000        0.0000000000    0   0   0
N             0.6666670000        0.3333330000        0.0000000000    0   0   0
N             0.0000000000        0.0000000000        0.1700055339
B             0.6666670000        0.3333330000        0.1699300907



     Writing config-only to output data dir ./tmp/BN2L_AA1_PBE_vdW.save/
     NEW-OLD atomic charge density approx. for the potential

     negative rho (up, down):  2.057E-08 0.000E+00


     -----------------------------------------------
     Non-local corr. energy    =       0.20224272 Ry
     -----------------------------------------------

     extrapolated charge   15.99668, renormalised to   16.00000

     total cpu time spent up to now is       44.1 secs

     Self-consistent Calculation

     iteration #  1     ecut=   120.00 Ry     beta= 0.70
     Davidson diagonalization with overlap

---- Real-time Memory Report at c_bands before calling an iterative solver
             0 MiB given to the printing process from OS
             0 MiB allocation reported by mallinfo(arena+hblkhd)
             0 MiB available memory on the node where the printing process lives
------------------
     ethr =  1.00E-06,  avg # of iterations =  2.6


     -----------------------------------------------
     Non-local corr. energy    =       0.20233114 Ry
     -----------------------------------------------


     total cpu time spent up to now is       45.8 secs

     total energy              =     -53.70373595 Ry
     estimated scf accuracy    <       0.00002427 Ry

     iteration #  2     ecut=   120.00 Ry     beta= 0.70
     Davidson diagonalization with overlap

---- Real-time Memory Report at c_bands before calling an iterative solver
             0 MiB given to the printing process from OS
             0 MiB allocation reported by mallinfo(arena+hblkhd)
             0 MiB available memory on the node where the printing process lives
------------------
     ethr =  1.52E-07,  avg # of iterations =  3.8


     -----------------------------------------------
     Non-local corr. energy    =       0.20230721 Ry
     -----------------------------------------------


     total cpu time spent up to now is       47.6 secs

     total energy              =     -53.70375435 Ry
     estimated scf accuracy    <       0.00006923 Ry

     iteration #  3     ecut=   120.00 Ry     beta= 0.70
     Davidson diagonalization with overlap

---- Real-time Memory Report at c_bands before calling an iterative solver
             0 MiB given to the printing process from OS
             0 MiB allocation reported by mallinfo(arena+hblkhd)
             0 MiB available memory on the node where the printing process lives
------------------
     ethr =  1.52E-07,  avg # of iterations =  2.0


     -----------------------------------------------
     Non-local corr. energy    =       0.20229759 Ry
     -----------------------------------------------


     total cpu time spent up to now is       49.0 secs

     total energy              =     -53.70376123 Ry
     estimated scf accuracy    <       0.00000494 Ry

     iteration #  4     ecut=   120.00 Ry     beta= 0.70
     Davidson diagonalization with overlap

---- Real-time Memory Report at c_bands before calling an iterative solver
             0 MiB given to the printing process from OS
             0 MiB allocation reported by mallinfo(arena+hblkhd)
             0 MiB available memory on the node where the printing process lives
------------------
     ethr =  3.09E-08,  avg # of iterations =  1.0


     -----------------------------------------------
     Non-local corr. energy    =       0.20228935 Ry
     -----------------------------------------------


     total cpu time spent up to now is       50.2 secs

     total energy              =     -53.70376074 Ry
     estimated scf accuracy    <       0.00000234 Ry

     iteration #  5     ecut=   120.00 Ry     beta= 0.70
     Davidson diagonalization with overlap

---- Real-time Memory Report at c_bands before calling an iterative solver
             0 MiB given to the printing process from OS
             0 MiB allocation reported by mallinfo(arena+hblkhd)
             0 MiB available memory on the node where the printing process lives
------------------
     ethr =  1.47E-08,  avg # of iterations =  1.2


     -----------------------------------------------
     Non-local corr. energy    =       0.20227972 Ry
     -----------------------------------------------


     total cpu time spent up to now is       51.2 secs

     total energy              =     -53.70376061 Ry
     estimated scf accuracy    <       0.00000057 Ry

     iteration #  6     ecut=   120.00 Ry     beta= 0.70
     Davidson diagonalization with overlap

---- Real-time Memory Report at c_bands before calling an iterative solver
             0 MiB given to the printing process from OS
             0 MiB allocation reported by mallinfo(arena+hblkhd)
             0 MiB available memory on the node where the printing process lives
------------------
     ethr =  3.59E-09,  avg # of iterations =  2.4


     -----------------------------------------------
     Non-local corr. energy    =       0.20228072 Ry
     -----------------------------------------------


     total cpu time spent up to now is       52.4 secs

     End of self-consistent calculation

          k = 0.0000 0.0000 0.0000 ( 16399 PWs)   bands (ev):

   -20.1352 -20.0107  -8.1805  -7.2244  -3.8498  -3.8497  -3.8342  -3.8341
     2.0179   2.5670   3.7306   4.8020

     occupation numbers 
     1.0000   1.0000   1.0000   1.0000   1.0000   1.0000   1.0000   1.0000
     0.0000   0.0000   0.0000   0.0000

          k = 0.0000 0.0962 0.0000 ( 16391 PWs)   bands (ev):

   -20.0014 -19.8789  -7.9976  -7.0501  -4.4001  -4.3873  -4.1063  -4.0890
     2.2500   2.7807   3.9530   4.9607

     occupation numbers 
     1.0000   1.0000   1.0000   1.0000   1.0000   1.0000   1.0000   1.0000
     0.0000   0.0000   0.0000   0.0000

          k = 0.0000 0.1925 0.0000 ( 16390 PWs)   bands (ev):

   -19.6073 -19.4909  -7.4573  -6.5400  -5.7915  -5.7788  -4.7316  -4.7112
     2.9096   3.4029   4.6058   5.4720

     occupation numbers 
     1.0000   1.0000   1.0000   1.0000   1.0000   1.0000   1.0000   1.0000
     0.0000   0.0000   0.0000   0.0000

          k = 0.0000 0.2887 0.0000 ( 16370 PWs)   bands (ev):

   -18.9800 -18.8743  -7.5744  -7.5531  -6.5752  -5.7087  -5.4577  -5.4345
     3.9518   4.3497   5.5209   5.9154

     occupation numbers 
     1.0000   1.0000   1.0000   1.0000   1.0000   1.0000   1.0000   1.0000
     0.0000   0.0000   0.0000   0.0000

          k = 0.0000 0.3849 0.0000 ( 16376 PWs)   bands (ev):

   -18.1873 -18.0989  -9.3411  -9.3089  -6.0821  -6.0570  -5.4455  -4.6669
     4.3889   4.7254   5.3265   6.3210

     occupation numbers 
     1.0000   1.0000   1.0000   1.0000   1.0000   1.0000   1.0000   1.0000
     0.0000   0.0000   0.0000   0.0000

          k = 0.0000 0.4811 0.0000 ( 16402 PWs)   bands (ev):

   -17.4033 -17.3432 -10.7532 -10.7194  -6.4921  -6.4658  -4.2524  -3.6346
     2.8056   3.3569   6.7048   7.3676

     occupation numbers 
     1.0000   1.0000   1.0000   1.0000   1.0000   1.0000   1.0000   1.0000
     0.0000   0.0000   0.0000   0.0000

          k = 0.0000-0.5774 0.0000 ( 16394 PWs)   bands (ev):

   -17.0263 -16.9962 -11.3342 -11.3063  -6.6339  -6.6073  -3.6173  -3.1604
     2.0344   2.6643   7.1983   7.4912

     occupation numbers 
     1.0000   1.0000   1.0000   1.0000   1.0000   1.0000   1.0000   1.0000
     0.0000   0.0000   0.0000   0.0000

          k = 0.0833 0.1443 0.0000 ( 16405 PWs)   bands (ev):

   -19.7373 -19.6189  -7.6357  -6.7069  -5.3035  -5.2958  -4.6125  -4.5948
     2.6966   3.1996   4.3918   5.3218

     occupation numbers 
     1.0000   1.0000   1.0000   1.0000   1.0000   1.0000   1.0000   1.0000
     0.0000   0.0000   0.0000   0.0000

          k = 0.0833 0.2406 0.0000 ( 16381 PWs)   bands (ev):

   -19.2253 -19.1152  -6.9540  -6.7874  -6.7411  -6.0272  -5.3985  -5.3768
     3.5543   3.9984   5.2350   5.8196

     occupation numbers 
     1.0000   1.0000   1.0000   1.0000   1.0000   1.0000   1.0000   1.0000
     0.0000   0.0000   0.0000   0.0000

          k = 0.0833 0.3368 0.0000 ( 16367 PWs)   bands (ev):

   -18.5091 -18.4126  -8.4927  -8.4677  -6.1450  -6.1206  -5.9090  -5.0901
     4.7712   4.8118   5.2650   6.2184

     occupation numbers 
     1.0000   1.0000   1.0000   1.0000   1.0000   1.0000   1.0000   1.0000
     0.0000   0.0000   0.0000   0.0000

          k = 0.0833 0.4330 0.0000 ( 16378 PWs)   bands (ev):

   -17.6974 -17.6228 -10.0722 -10.0391  -6.6945  -6.6673  -4.7172  -4.0192
     3.5766   3.9923   6.3040   7.1316

     occupation numbers 
     1.0000   1.0000   1.0000   1.0000   1.0000   1.0000   1.0000   1.0000
     0.0000   0.0000   0.0000   0.0000

          k = 0.0833 0.5292 0.0000 ( 16379 PWs)   bands (ev):

   -17.0624 -17.0222 -11.1063 -11.0753  -6.9831  -6.9549  -3.6926  -3.1951
     2.2843   2.8477   7.5417   8.0134

     occupation numbers 
     1.0000   1.0000   1.0000   1.0000   1.0000   1.0000   1.0000   1.0000
     0.0000   0.0000   0.0000   0.0000

          k = 0.1667 0.2887 0.0000 ( 16366 PWs)   bands (ev):

   -18.6204 -18.5213  -7.9850  -7.9787  -6.4117  -6.3864  -6.0676  -5.2359
     4.6108   4.7973   5.4913   6.3469

     occupation numbers 
     1.0000   1.0000   1.0000   1.0000   1.0000   1.0000   1.0000   1.0000
     0.0000   0.0000   0.0000   0.0000

          k = 0.1667 0.3849 0.0000 ( 16360 PWs)   bands (ev):

   -17.8637 -17.7821  -9.3336  -9.3140  -7.2715  -7.2452  -4.9739  -4.2378
     4.2148   4.4369   6.0568   6.8494

     occupation numbers 
     1.0000   1.0000   1.0000   1.0000   1.0000   1.0000   1.0000   1.0000
     0.0000   0.0000   0.0000   0.0000

          k = 0.1667 0.4811 0.0000 ( 16379 PWs)   bands (ev):

   -17.1289 -17.0750 -10.5188 -10.4874  -7.7916  -7.7618  -3.8281  -3.2672
     2.8404   3.2228   7.7457   8.4661

     occupation numbers 
     1.0000   1.0000   1.0000   1.0000   1.0000   1.0000   1.0000   1.0000
     0.0000   0.0000   0.0000   0.0000

          k = 0.1667 0.5774 0.0000 ( 16386 PWs)   bands (ev):

   -16.7833 -16.7572 -11.0217 -10.9883  -7.9629  -7.9319  -3.2182  -2.8385
     2.1835   2.6230   8.8714   9.4065

     occupation numbers 
     1.0000   1.0000   1.0000   1.0000   1.0000   1.0000   1.0000   1.0000
     0.0000   0.0000   0.0000   0.0000

          k = 0.2500 0.4330 0.0000 ( 16348 PWs)   bands (ev):

   -17.1602 -17.1011 -10.0561 -10.0389  -8.3458  -8.3235  -3.8901  -3.3036
     3.1705   3.4037   7.6762   8.3277

     occupation numbers 
     1.0000   1.0000   1.0000   1.0000   1.0000   1.0000   1.0000   1.0000
     0.0000   0.0000   0.0000   0.0000

          k = 0.2500 0.5292 0.0000 ( 16377 PWs)   bands (ev):

   -16.6416 -16.6135 -10.5789 -10.5391  -8.9510  -8.9262  -2.9788  -2.6456
     2.3629   2.5983   9.3234   9.4674

     occupation numbers 
     1.0000   1.0000   1.0000   1.0000   1.0000   1.0000   1.0000   1.0000
     0.0000   0.0000   0.0000   0.0000

          k = 0.3333 0.5774 0.0000 ( 16404 PWs)   bands (ev):

   -16.4389 -16.4329 -10.3831 -10.3158  -9.6143  -9.6084  -2.5015  -2.4954
     2.2662   2.2722   8.8659  10.7403

     occupation numbers 
     1.0000   1.0000   1.0000   1.0000   1.0000   1.0000   1.0000   1.0000
     0.0000   0.0000   0.0000   0.0000

     the Fermi energy is    -0.6679 ev

!    total energy              =     -53.70376076 Ry
     estimated scf accuracy    <          1.3E-09 Ry
     smearing contrib. (-TS)   =       0.00000000 Ry
     internal energy E=F+TS    =     -53.70376076 Ry

     The total energy is F=E-TS. E is the sum of the following terms:
     one-electron contribution =    -523.42450357 Ry
     hartree contribution      =     265.88336799 Ry
     xc contribution           =     -17.38768352 Ry
     ewald contribution        =     221.22505834 Ry

     convergence has been achieved in   6 iterations


     -----------------------------------------------
     Non-local corr. energy    =       0.20228072 Ry
     -----------------------------------------------


     Forces acting on atoms (cartesian axes, Ry/au):

     atom    1 type  1   force =     0.00000000    0.00000000    0.00124707
     atom    2 type  2   force =     0.00000000    0.00000000   -0.00014672
     atom    3 type  2   force =     0.00000000   -0.00000000   -0.00070137
     atom    4 type  1   force =     0.00000000    0.00000000   -0.00039898
     The non-local contrib.  to forces
     atom    1 type  1   force =     0.00000000   -0.00000000    0.00038120
     atom    2 type  2   force =    -0.00000000   -0.00000000   -0.00079325
     atom    3 type  2   force =     0.00000000    0.00000000   -0.00357175
     atom    4 type  1   force =     0.00000000   -0.00000000   -0.00048530
     The ionic contribution  to forces
     atom    1 type  1   force =     0.00000773   -0.00000446  -10.23287282
     atom    2 type  2   force =    -0.00000773    0.00000446  -17.05178155
     atom    3 type  2   force =     0.00000773   -0.00000446   17.06749331
     atom    4 type  1   force =    -0.00000773    0.00000446   10.21716105
     The local contribution  to forces
     atom    1 type  1   force =    -0.00000000    0.00000000   10.23382075
     atom    2 type  2   force =    -0.00003348    0.00001933   17.05245365
     atom    3 type  2   force =     0.00000000    0.00000000  -17.06478557
     atom    4 type  1   force =     0.00000419   -0.00000242  -10.21719369
     The core correction contribution to forces
     atom    1 type  1   force =     0.00000000   -0.00000000   -0.00005813
     atom    2 type  2   force =     0.00000139   -0.00000080    0.00001599
     atom    3 type  2   force =     0.00000000   -0.00000000    0.00009674
     atom    4 type  1   force =     0.00000026   -0.00000015    0.00009421
     The Hubbard contrib.    to forces
     atom    1 type  1   force =     0.00000000    0.00000000    0.00000000
     atom    2 type  2   force =     0.00000000    0.00000000    0.00000000
     atom    3 type  2   force =     0.00000000    0.00000000    0.00000000
     atom    4 type  1   force =     0.00000000    0.00000000    0.00000000
     The SCF correction term to forces
     atom    1 type  1   force =     0.00000000   -0.00000000   -0.00000000
     atom    2 type  2   force =     0.00000000   -0.00000000   -0.00000000
     atom    3 type  2   force =    -0.00000000    0.00000000    0.00007503
     atom    4 type  1   force =     0.00000000   -0.00000000    0.00003389

     Total force =     0.000807     Total SCF correction =     0.000082
     SCF correction compared to forces is large: reduce conv_thr to get better values


     Computing stress (Cartesian axis) and pressure



     -----------------------------------------------
     Non-local corr. energy    =       0.20228072 Ry
     -----------------------------------------------

          total   stress  (Ry/bohr**3)                   (kbar)     P=        3.77
   0.00004359  -0.00000000   0.00000000            6.41       -0.00        0.00
  -0.00000000   0.00004359  -0.00000000           -0.00        6.41       -0.00
   0.00000000   0.00000000  -0.00001020            0.00        0.00       -1.50

     kinetic stress (kbar)   4831.70      0.00      0.00
                                0.00   4831.70      0.00
                                0.00      0.00   5253.75

     local   stress (kbar)-107303.71      0.00     -0.00
                                0.00-107303.71      0.00
                               -0.00      0.00 107987.18

     nonloc. stress (kbar)   -797.50      0.00      0.00
                                0.00   -797.50     -0.00
                                0.00      0.00   -769.67

     hartree stress (kbar)  52199.10      0.00      0.00
                                0.00  52199.10     -0.00
                                0.00     -0.00 -51364.14

     exc-cor stress (kbar)   -485.37     -0.00      0.00
                               -0.00   -485.37     -0.00
                                0.00     -0.00   -533.06

     corecor stress (kbar)   -541.96      0.00     -0.00
                                0.00   -541.96      0.00
                               -0.00      0.00   -530.09

     ewald   stress (kbar)  52099.79     -0.01      0.00
                               -0.01  52099.78     -0.00
                                0.00     -0.00 -60073.22

     hubbard stress (kbar)      0.00      0.00      0.00
                                0.00      0.00      0.00
                                0.00      0.00      0.00

     DFT-D   stress (kbar)      0.00      0.00      0.00
                                0.00      0.00      0.00
                                0.00      0.00      0.00

     XDM     stress (kbar)      0.00      0.00      0.00
                                0.00      0.00      0.00
                                0.00      0.00      0.00

     dft-nl  stress (kbar)      4.36      0.00      0.00
                                0.00      4.36     -0.00
                                0.00     -0.00     27.76

     TS-vdW  stress (kbar)      0.00      0.00      0.00
                                0.00      0.00      0.00
                                0.00      0.00      0.00

     MDB     stress (kbar)      0.00      0.00      0.00
                                0.00      0.00      0.00
                                0.00      0.00      0.00

     3D-RISM stress (kbar)      0.00      0.00      0.00
                                0.00      0.00      0.00
                                0.00      0.00      0.00

     Energy error            =      2.9E-06 Ry
     Gradient error          =      7.0E-04 Ry/Bohr
     Cell gradient error     =      1.5E+00 kbar

     number of scf cycles    =   3
     number of bfgs steps    =   2

     enthalpy           old  =     -53.7037578219 Ry
     enthalpy           new  =     -53.7037607590 Ry

     CASE: enthalpy          _new < enthalpy          _old

     new trust radius        =       0.0020957960 bohr
     new conv_thr            =       0.0000000100 Ry

     new unit-cell volume =    737.27833 a.u.^3 (   109.25338 Ang^3 )
     density =      0.72989 g/cm^3

CELL_PARAMETERS (alat=  4.74000000)
   1.000000000   0.000000000   0.000000000
  -0.500000000   0.866025404   0.000000000
   0.000000000   0.000000000   7.994030686

ATOMIC_POSITIONS (crystal)
B             0.0000000000        0.0000000000        0.0000000000    0   0   0
N             0.6666670000        0.3333330000        0.0000000000    0   0   0
N             0.0000000000        0.0000000000        0.1699855907
B             0.6666670000        0.3333330000        0.1698747974



     Writing config-only to output data dir ./tmp/BN2L_AA1_PBE_vdW.save/
     NEW-OLD atomic charge density approx. for the potential

     negative rho (up, down):  3.611E-08 0.000E+00


     -----------------------------------------------
     Non-local corr. energy    =       0.20221563 Ry
     -----------------------------------------------

     extrapolated charge   15.99512, renormalised to   16.00000

     total cpu time spent up to now is       58.2 secs

     Self-consistent Calculation

     iteration #  1     ecut=   120.00 Ry     beta= 0.70
     Davidson diagonalization with overlap

---- Real-time Memory Report at c_bands before calling an iterative solver
             0 MiB given to the printing process from OS
             0 MiB allocation reported by mallinfo(arena+hblkhd)
             0 MiB available memory on the node where the printing process lives
------------------
     ethr =  1.00E-06,  avg # of iterations =  4.1


     -----------------------------------------------
     Non-local corr. energy    =       0.20232724 Ry
     -----------------------------------------------


     total cpu time spent up to now is       59.8 secs

     total energy              =     -53.70373182 Ry
     estimated scf accuracy    <       0.00002415 Ry

     iteration #  2     ecut=   120.00 Ry     beta= 0.70
     Davidson diagonalization with overlap

---- Real-time Memory Report at c_bands before calling an iterative solver
             0 MiB given to the printing process from OS
             0 MiB allocation reported by mallinfo(arena+hblkhd)
             0 MiB available memory on the node where the printing process lives
------------------
     ethr =  1.51E-07,  avg # of iterations =  5.2


     -----------------------------------------------
     Non-local corr. energy    =       0.20229816 Ry
     -----------------------------------------------


     total cpu time spent up to now is       61.4 secs

     total energy              =     -53.70375885 Ry
     estimated scf accuracy    <       0.00009663 Ry

     iteration #  3     ecut=   120.00 Ry     beta= 0.70
     Davidson diagonalization with overlap

---- Real-time Memory Report at c_bands before calling an iterative solver
             0 MiB given to the printing process from OS
             0 MiB allocation reported by mallinfo(arena+hblkhd)
             0 MiB available memory on the node where the printing process lives
------------------
     ethr =  1.51E-07,  avg # of iterations =  2.0


     -----------------------------------------------
     Non-local corr. energy    =       0.20228618 Ry
     -----------------------------------------------


     total cpu time spent up to now is       62.8 secs

     total energy              =     -53.70376571 Ry
     estimated scf accuracy    <       0.00001149 Ry

     iteration #  4     ecut=   120.00 Ry     beta= 0.70
     Davidson diagonalization with overlap

---- Real-time Memory Report at c_bands before calling an iterative solver
             0 MiB given to the printing process from OS
             0 MiB allocation reported by mallinfo(arena+hblkhd)
             0 MiB available memory on the node where the printing process lives
------------------
     ethr =  7.18E-08,  avg # of iterations =  1.0


     -----------------------------------------------
     Non-local corr. energy    =       0.20226983 Ry
     -----------------------------------------------


     total cpu time spent up to now is       63.9 secs

     total energy              =     -53.70376383 Ry
     estimated scf accuracy    <       0.00000621 Ry

     iteration #  5     ecut=   120.00 Ry     beta= 0.70
     Davidson diagonalization with overlap

---- Real-time Memory Report at c_bands before calling an iterative solver
             0 MiB given to the printing process from OS
             0 MiB allocation reported by mallinfo(arena+hblkhd)
             0 MiB available memory on the node where the printing process lives
------------------
     ethr =  3.88E-08,  avg # of iterations =  1.6


     -----------------------------------------------
     Non-local corr. energy    =       0.20225871 Ry
     -----------------------------------------------


     total cpu time spent up to now is       65.0 secs

     total energy              =     -53.70376400 Ry
     estimated scf accuracy    <       0.00000081 Ry

     iteration #  6     ecut=   120.00 Ry     beta= 0.70
     Davidson diagonalization with overlap

---- Real-time Memory Report at c_bands before calling an iterative solver
             0 MiB given to the printing process from OS
             0 MiB allocation reported by mallinfo(arena+hblkhd)
             0 MiB available memory on the node where the printing process lives
------------------
     ethr =  5.07E-09,  avg # of iterations =  2.3


     -----------------------------------------------
     Non-local corr. energy    =       0.20225985 Ry
     -----------------------------------------------


     total cpu time spent up to now is       66.2 secs

     End of self-consistent calculation

          k = 0.0000 0.0000 0.0000 ( 16399 PWs)   bands (ev):

   -20.1354 -20.0102  -8.1816  -7.2229  -3.8503  -3.8502  -3.8334  -3.8333
     2.0195   2.5690   3.7322   4.7645

     occupation numbers 
     1.0000   1.0000   1.0000   1.0000   1.0000   1.0000   1.0000   1.0000
     0.0000   0.0000   0.0000   0.0000

          k = 0.0000 0.0962 0.0000 ( 16391 PWs)   bands (ev):

   -20.0016 -19.8784  -7.9987  -7.0486  -4.4007  -4.3864  -4.1067  -4.0883
     2.2516   2.7828   3.9546   4.9631

     occupation numbers 
     1.0000   1.0000   1.0000   1.0000   1.0000   1.0000   1.0000   1.0000
     0.0000   0.0000   0.0000   0.0000

          k = 0.0000 0.1925 0.0000 ( 16390 PWs)   bands (ev):

   -19.6076 -19.4905  -7.4584  -6.5386  -5.7920  -5.7779  -4.7320  -4.7106
     2.9112   3.4050   4.6074   5.4739

     occupation numbers 
     1.0000   1.0000   1.0000   1.0000   1.0000   1.0000   1.0000   1.0000
     0.0000   0.0000   0.0000   0.0000

          k = 0.0000 0.2887 0.0000 ( 16370 PWs)   bands (ev):

   -18.9802 -18.8739  -7.5748  -7.5524  -6.5763  -5.7073  -5.4580  -5.4338
     3.9534   4.3520   5.5213   5.9169

     occupation numbers 
     1.0000   1.0000   1.0000   1.0000   1.0000   1.0000   1.0000   1.0000
     0.0000   0.0000   0.0000   0.0000

          k = 0.0000 0.3849 0.0000 ( 16376 PWs)   bands (ev):

   -18.1875 -18.0984  -9.3413  -9.3084  -6.0824  -6.0564  -5.4465  -4.6657
     4.3893   4.7261   5.3278   6.3219

     occupation numbers 
     1.0000   1.0000   1.0000   1.0000   1.0000   1.0000   1.0000   1.0000
     0.0000   0.0000   0.0000   0.0000

          k = 0.0000 0.4811 0.0000 ( 16402 PWs)   bands (ev):

   -17.4035 -17.3428 -10.7534 -10.7189  -6.4923  -6.4652  -4.2532  -3.6336
     2.8052   3.3578   6.7058   7.3686

     occupation numbers 
     1.0000   1.0000   1.0000   1.0000   1.0000   1.0000   1.0000   1.0000
     0.0000   0.0000   0.0000   0.0000

          k = 0.0000-0.5774 0.0000 ( 16394 PWs)   bands (ev):

   -17.0265 -16.9957 -11.3345 -11.3057  -6.6342  -6.6067  -3.6181  -3.1596
     2.0339   2.6653   7.1988   7.4915

[...]

     iteration #  4     ecut=   120.00 Ry     beta= 0.70
     Davidson diagonalization with overlap

---- Real-time Memory Report at c_bands before calling an iterative solver
             0 MiB given to the printing process from OS
             0 MiB allocation reported by mallinfo(arena+hblkhd)
             0 MiB available memory on the node where the printing process lives
------------------
     ethr =  3.04E-05,  avg # of iterations =  8.8


     -----------------------------------------------
     Non-local corr. energy    =       0.20076559 Ry
     -----------------------------------------------


     total cpu time spent up to now is      246.9 secs

     total energy              =     -53.70340095 Ry
     estimated scf accuracy    <       0.00565073 Ry

     iteration #  5     ecut=   120.00 Ry     beta= 0.70
     Davidson diagonalization with overlap

---- Real-time Memory Report at c_bands before calling an iterative solver
             0 MiB given to the printing process from OS
             0 MiB allocation reported by mallinfo(arena+hblkhd)
             0 MiB available memory on the node where the printing process lives
------------------
     ethr =  3.04E-05,  avg # of iterations =  2.8


     -----------------------------------------------
     Non-local corr. energy    =       0.20079769 Ry
     -----------------------------------------------


     total cpu time spent up to now is      248.1 secs

     total energy              =     -53.70357770 Ry
     estimated scf accuracy    <       0.00102163 Ry

     iteration #  6     ecut=   120.00 Ry     beta= 0.70
     Davidson diagonalization with overlap

---- Real-time Memory Report at c_bands before calling an iterative solver
             0 MiB given to the printing process from OS
             0 MiB allocation reported by mallinfo(arena+hblkhd)
             0 MiB available memory on the node where the printing process lives
------------------
     ethr =  6.39E-06,  avg # of iterations =  3.3


     -----------------------------------------------
     Non-local corr. energy    =       0.20083997 Ry
     -----------------------------------------------


     total cpu time spent up to now is      249.5 secs

     total energy              =     -53.70389005 Ry
     estimated scf accuracy    <       0.00004352 Ry

     iteration #  7     ecut=   120.00 Ry     beta= 0.70
     Davidson diagonalization with overlap

---- Real-time Memory Report at c_bands before calling an iterative solver
             0 MiB given to the printing process from OS
             0 MiB allocation reported by mallinfo(arena+hblkhd)
             0 MiB available memory on the node where the printing process lives
------------------
     ethr =  2.72E-07,  avg # of iterations =  3.7


     -----------------------------------------------
     Non-local corr. energy    =       0.20084838 Ry
     -----------------------------------------------


     total cpu time spent up to now is      250.8 secs

     total energy              =     -53.70389077 Ry
     estimated scf accuracy    <       0.00001505 Ry

     iteration #  8     ecut=   120.00 Ry     beta= 0.70
     Davidson diagonalization with overlap

---- Real-time Memory Report at c_bands before calling an iterative solver
             0 MiB given to the printing process from OS
             0 MiB allocation reported by mallinfo(arena+hblkhd)
             0 MiB available memory on the node where the printing process lives
------------------
     ethr =  9.40E-08,  avg # of iterations =  1.8


     -----------------------------------------------
     Non-local corr. energy    =       0.20085204 Ry
     -----------------------------------------------


     total cpu time spent up to now is      251.8 secs

     total energy              =     -53.70389156 Ry
     estimated scf accuracy    <       0.00000159 Ry

     iteration #  9     ecut=   120.00 Ry     beta= 0.70
     Davidson diagonalization with overlap

---- Real-time Memory Report at c_bands before calling an iterative solver
             0 MiB given to the printing process from OS
             0 MiB allocation reported by mallinfo(arena+hblkhd)
             0 MiB available memory on the node where the printing process lives
------------------
     ethr =  9.95E-09,  avg # of iterations =  2.9


     -----------------------------------------------
     Non-local corr. energy    =       0.20085321 Ry
     -----------------------------------------------


     total cpu time spent up to now is      253.1 secs

     End of self-consistent calculation

          k = 0.0000 0.0000 0.0000 ( 16071 PWs)   bands (ev):

   -20.0988 -19.9355  -8.2046  -7.0783  -3.7952  -3.7951  -3.7713  -3.7713
     2.1174   2.6491   3.8219   4.9244

     occupation numbers 
     1.0000   1.0000   1.0000   1.0000   1.0000   1.0000   1.0000   1.0000
     0.0000   0.0000   0.0000   0.0000

          k = 0.0000 0.0962 0.0000 ( 16121 PWs)   bands (ev):

   -19.9647 -19.8039  -8.0215  -6.9049  -4.3457  -4.3241  -4.0520  -4.0261
     2.3489   2.8621   4.0449   5.1405

     occupation numbers 
     1.0000   1.0000   1.0000   1.0000   1.0000   1.0000   1.0000   1.0000
     0.0000   0.0000   0.0000   0.0000

          k = 0.0000 0.1925 0.0000 ( 16092 PWs)   bands (ev):

   -19.5697 -19.4166  -7.4808  -6.4002  -5.7351  -5.7144  -4.6780  -4.6480
     3.0077   3.4822   4.7018   5.7219

     occupation numbers 
     1.0000   1.0000   1.0000   1.0000   1.0000   1.0000   1.0000   1.0000
     0.0000   0.0000   0.0000   0.0000

          k = 0.0000 0.2887 0.0000 ( 16058 PWs)   bands (ev):

   -18.9407 -18.8013  -7.5243  -7.4922  -6.5928  -5.5683  -5.4046  -5.3709
     4.0490   4.4217   5.6864   6.0335

     occupation numbers 
     1.0000   1.0000   1.0000   1.0000   1.0000   1.0000   1.0000   1.0000
     0.0000   0.0000   0.0000   0.0000

          k = 0.0000 0.3849 0.0000 ( 16072 PWs)   bands (ev):

   -18.1453 -18.0280  -9.2918  -9.2456  -6.0295  -5.9933  -5.4613  -4.5350
     4.4103   4.8412   5.4360   6.4061

     occupation numbers 
     1.0000   1.0000   1.0000   1.0000   1.0000   1.0000   1.0000   1.0000
     0.0000   0.0000   0.0000   0.0000

          k = 0.0000 0.4811 0.0000 ( 16080 PWs)   bands (ev):

   -17.3567 -17.2763 -10.7037 -10.6569  -6.4396  -6.4020  -4.2598  -3.5184
     2.8177   3.4723   6.7991   7.4373

     occupation numbers 
     1.0000   1.0000   1.0000   1.0000   1.0000   1.0000   1.0000   1.0000
     0.0000   0.0000   0.0000   0.0000

          k = 0.0000-0.5774 0.0000 ( 16106 PWs)   bands (ev):

   -16.9749 -16.9336 -11.2832 -11.2456  -6.5816  -6.5435  -3.6152  -3.0605
     2.0493   2.7809   7.2755   7.5435

     occupation numbers 
     1.0000   1.0000   1.0000   1.0000   1.0000   1.0000   1.0000   1.0000
     0.0000   0.0000   0.0000   0.0000

          k = 0.0833 0.1443 0.0000 ( 16121 PWs)   bands (ev):

   -19.7001 -19.5443  -7.6593  -6.5641  -5.2482  -5.2326  -4.5582  -4.5320
     2.7948   3.2795   4.4859   5.5720

     occupation numbers 
     1.0000   1.0000   1.0000   1.0000   1.0000   1.0000   1.0000   1.0000
     0.0000   0.0000   0.0000   0.0000

          k = 0.0833 0.2406 0.0000 ( 16065 PWs)   bands (ev):

   -19.1868 -19.0417  -6.9741  -6.7361  -6.6802  -5.8845  -5.3448  -5.3135
     3.6517   4.0745   5.3456   6.0391

     occupation numbers 
     1.0000   1.0000   1.0000   1.0000   1.0000   1.0000   1.0000   1.0000
     0.0000   0.0000   0.0000   0.0000

          k = 0.0833 0.3368 0.0000 ( 16079 PWs)   bands (ev):

   -18.4683 -18.3407  -8.4423  -8.4053  -6.0937  -6.0593  -5.9232  -4.9540
     4.8303   4.8861   5.4243   6.2818

     occupation numbers 
     1.0000   1.0000   1.0000   1.0000   1.0000   1.0000   1.0000   1.0000
     0.0000   0.0000   0.0000   0.0000

          k = 0.0833 0.4330 0.0000 ( 16074 PWs)   bands (ev):

   -17.6531 -17.5539 -10.0227  -9.9762  -6.6425  -6.6037  -4.7288  -3.8949
     3.5921   4.1046   6.4078   7.2185

     occupation numbers 
     1.0000   1.0000   1.0000   1.0000   1.0000   1.0000   1.0000   1.0000
     0.0000   0.0000   0.0000   0.0000

          k = 0.0833 0.5292 0.0000 ( 16079 PWs)   bands (ev):

   -17.0126 -16.9581 -11.0559 -11.0138  -6.9313  -6.8911  -3.6925  -3.0913
     2.2999   2.9616   7.6281   8.0721

     occupation numbers 
     1.0000   1.0000   1.0000   1.0000   1.0000   1.0000   1.0000   1.0000
     0.0000   0.0000   0.0000   0.0000

          k = 0.1667 0.2887 0.0000 ( 16078 PWs)   bands (ev):

   -18.5801 -18.4491  -7.9322  -7.9188  -6.3612  -6.3244  -6.0824  -5.0983
     4.7032   4.8540   5.6684   6.3954

     occupation numbers 
     1.0000   1.0000   1.0000   1.0000   1.0000   1.0000   1.0000   1.0000
     0.0000   0.0000   0.0000   0.0000

          k = 0.1667 0.3849 0.0000 ( 16038 PWs)   bands (ev):

   -17.8206 -17.7121  -9.2816  -9.2530  -7.2195  -7.1826  -4.9871  -4.1097
     4.2324   4.5501   6.1632   6.9321

     occupation numbers 
     1.0000   1.0000   1.0000   1.0000   1.0000   1.0000   1.0000   1.0000
     0.0000   0.0000   0.0000   0.0000

          k = 0.1667 0.4811 0.0000 ( 16065 PWs)   bands (ev):

   -17.0812 -17.0089 -10.4685 -10.4254  -7.7405  -7.6985  -3.8312  -3.1572
     2.8589   3.3303   7.8495   8.5499

     occupation numbers 
     1.0000   1.0000   1.0000   1.0000   1.0000   1.0000   1.0000   1.0000
     0.0000   0.0000   0.0000   0.0000

          k = 0.1667 0.5774 0.0000 ( 16088 PWs)   bands (ev):

   -16.7312 -16.6952 -10.9714 -10.9266  -7.9121  -7.8683  -3.2091  -2.7480
     2.2090   2.7284   8.9603   9.4666

     occupation numbers 
     1.0000   1.0000   1.0000   1.0000   1.0000   1.0000   1.0000   1.0000
     0.0000   0.0000   0.0000   0.0000

          k = 0.2500 0.4330 0.0000 ( 16072 PWs)   bands (ev):

   -17.1133 -17.0342 -10.0024  -9.9800  -8.2930  -8.2624  -3.8944  -3.1910
     3.1890   3.5098   7.7808   8.4095

     occupation numbers 
     1.0000   1.0000   1.0000   1.0000   1.0000   1.0000   1.0000   1.0000
     0.0000   0.0000   0.0000   0.0000

          k = 0.2500 0.5292 0.0000 ( 16075 PWs)   bands (ev):

   -16.5896 -16.5512 -10.5293 -10.4765  -8.8993  -8.8644  -2.9646  -2.5617
     2.3991   2.6927   9.3559   9.5642

     occupation numbers 
     1.0000   1.0000   1.0000   1.0000   1.0000   1.0000   1.0000   1.0000
     0.0000   0.0000   0.0000   0.0000

          k = 0.3333 0.5774 0.0000 ( 16104 PWs)   bands (ev):

   -16.3845 -16.3728 -10.3378 -10.2482  -9.5611  -9.5493  -2.4585  -2.4465
     2.3310   2.3427   8.8692  10.8282

     occupation numbers 
     1.0000   1.0000   1.0000   1.0000   1.0000   1.0000   1.0000   1.0000
     0.0000   0.0000   0.0000   0.0000

     the Fermi energy is    -0.5994 ev

!    total energy              =     -53.70389209 Ry
     estimated scf accuracy    <          8.1E-09 Ry
     smearing contrib. (-TS)   =       0.00000000 Ry
     internal energy E=F+TS    =     -53.70389209 Ry

     The total energy is F=E-TS. E is the sum of the following terms:
     one-electron contribution =    -518.50129855 Ry
     hartree contribution      =     263.45788062 Ry
     xc contribution           =     -17.39166751 Ry
     ewald contribution        =     218.73119335 Ry

     convergence has been achieved in   9 iterations


     -----------------------------------------------
     Non-local corr. energy    =       0.20085321 Ry
     -----------------------------------------------


     Forces acting on atoms (cartesian axes, Ry/au):

     atom    1 type  1   force =     0.00000000    0.00000000    0.00071652
     atom    2 type  2   force =     0.00000000    0.00000000   -0.00080288
     atom    3 type  2   force =     0.00000000    0.00000000   -0.00075875
     atom    4 type  1   force =     0.00000000    0.00000000    0.00084512
     The non-local contrib.  to forces
     atom    1 type  1   force =     0.00000000   -0.00000000    0.00015371
     atom    2 type  2   force =     0.00000000    0.00000000   -0.00169314
     atom    3 type  2   force =    -0.00000000   -0.00000000   -0.00645870
     atom    4 type  1   force =     0.00000000   -0.00000000   -0.00042411
     The ionic contribution  to forces
     atom    1 type  1   force =     0.00000773   -0.00000446  -10.32328224
     atom    2 type  2   force =    -0.00000773    0.00000447  -17.20126567
     atom    3 type  2   force =     0.00000773   -0.00000447   17.23063183
     atom    4 type  1   force =    -0.00000773    0.00000446   10.29391608
     The local contribution  to forces
     atom    1 type  1   force =    -0.00000000    0.00000000   10.32394614
     atom    2 type  2   force =    -0.00003349    0.00001934   17.20219367
     atom    3 type  2   force =     0.00000000    0.00000000  -17.22531867
     atom    4 type  1   force =     0.00000419   -0.00000242  -10.29288181
     The core correction contribution to forces
     atom    1 type  1   force =     0.00000000   -0.00000000   -0.00004865
     atom    2 type  2   force =     0.00000139   -0.00000080    0.00008052
     atom    3 type  2   force =     0.00000000   -0.00000000    0.00012750
     atom    4 type  1   force =     0.00000026   -0.00000015    0.00011750
     The Hubbard contrib.    to forces
     atom    1 type  1   force =     0.00000000    0.00000000    0.00000000
     atom    2 type  2   force =     0.00000000    0.00000000    0.00000000
     atom    3 type  2   force =     0.00000000    0.00000000    0.00000000
     atom    4 type  1   force =     0.00000000    0.00000000    0.00000000
     The SCF correction term to forces
     atom    1 type  1   force =     0.00000000   -0.00000000   -0.00000000
     atom    2 type  2   force =    -0.00000000    0.00000000   -0.00000000
     atom    3 type  2   force =     0.00000000   -0.00000000    0.00025848
     atom    4 type  1   force =    -0.00000000    0.00000000    0.00011664

     Total force =     0.001136     Total SCF correction =     0.000284
     SCF correction compared to forces is large: reduce conv_thr to get better values


     Computing stress (Cartesian axis) and pressure



     -----------------------------------------------
     Non-local corr. energy    =       0.20085321 Ry
     -----------------------------------------------

          total   stress  (Ry/bohr**3)                   (kbar)     P=        4.39
   0.00004446  -0.00000000   0.00000000            6.54       -0.00        0.00
  -0.00000000   0.00004446  -0.00000000           -0.00        6.54       -0.00
   0.00000000   0.00000000   0.00000054            0.00        0.00        0.08

     kinetic stress (kbar)   4920.88      0.00      0.00
                                0.00   4920.88      0.00
                                0.00      0.00   5352.61

     local   stress (kbar)-108277.48      0.00     -0.00
                                0.00-108277.47      0.00
                               -0.00      0.00 108972.35

     nonloc. stress (kbar)   -812.11      0.00      0.00
                                0.00   -812.11      0.00
                                0.00      0.00   -784.28

     hartree stress (kbar)  52666.32      0.00     -0.00
                                0.00  52666.32     -0.00
                               -0.00     -0.00 -51815.67

     exc-cor stress (kbar)   -494.55     -0.00      0.00
                               -0.00   -494.55     -0.00
                                0.00     -0.00   -542.64

     corecor stress (kbar)   -551.92      0.00     -0.00
                                0.00   -551.92      0.00
                               -0.00      0.00   -539.86

     ewald   stress (kbar)  52550.92     -0.01      0.00
                               -0.01  52550.91     -0.00
                                0.00     -0.00 -60670.31

     hubbard stress (kbar)      0.00      0.00      0.00
                                0.00      0.00      0.00
                                0.00      0.00      0.00

     DFT-D   stress (kbar)      0.00      0.00      0.00
                                0.00      0.00      0.00
                                0.00      0.00      0.00

     XDM     stress (kbar)      0.00      0.00      0.00
                                0.00      0.00      0.00
                                0.00      0.00      0.00

     dft-nl  stress (kbar)      4.48      0.00      0.00
                                0.00      4.48     -0.00
                                0.00     -0.00     27.90

     TS-vdW  stress (kbar)      0.00      0.00      0.00
                                0.00      0.00      0.00
                                0.00      0.00      0.00

     MDB     stress (kbar)      0.00      0.00      0.00
                                0.00      0.00      0.00
                                0.00      0.00      0.00

     3D-RISM stress (kbar)      0.00      0.00      0.00
                                0.00      0.00      0.00
                                0.00      0.00      0.00


     Writing all to output data dir ./tmp/BN2L_AA1_PBE_vdW.save/

     init_run     :     12.12s CPU     12.20s WALL (       2 calls)
     electrons    :    171.01s CPU    168.08s WALL (      14 calls)
     update_pot   :     19.63s CPU     19.99s WALL (      12 calls)
     forces       :     14.92s CPU     15.31s WALL (      14 calls)
     stress       :     38.08s CPU     41.21s WALL (      14 calls)

     Called by init_run:
     wfcinit      :      0.85s CPU      0.85s WALL (       2 calls)
     wfcinit:atom :      0.02s CPU      0.02s WALL (      38 calls)
     wfcinit:wfcr :      0.75s CPU      0.75s WALL (      38 calls)
     potinit      :      9.16s CPU      9.22s WALL (       2 calls)
     hinit0       :      1.65s CPU      1.66s WALL (       2 calls)

     Called by electrons:
     c_bands      :    135.40s CPU    129.62s WALL (     112 calls)
     sum_band     :     16.42s CPU     16.79s WALL (     112 calls)
     v_of_rho     :     28.70s CPU     31.05s WALL (     125 calls)
     v_h          :      0.24s CPU      0.24s WALL (     125 calls)
     v_xc         :     32.98s CPU     35.84s WALL (     153 calls)
     mix_rho      :      0.66s CPU      0.96s WALL (     112 calls)
     vdW_kernel   :      8.16s CPU      8.18s WALL (       1 calls)

     Called by c_bands:
     init_us_2    :      3.12s CPU      3.17s WALL (    4826 calls)
     init_us_2:cp :      3.11s CPU      3.15s WALL (    4826 calls)
     cegterg      :    130.85s CPU    124.93s WALL (    2128 calls)

     Called by sum_band:
     sum_band:wei :      0.00s CPU      0.00s WALL (     112 calls)
     sum_band:loo :     15.96s CPU     16.29s WALL (     112 calls)
     sum_band:buf :      0.54s CPU      0.55s WALL (    2128 calls)
     sum_band:ini :      1.47s CPU      1.49s WALL (    2128 calls)

     Called by *egterg:
     cdiaghg      :      2.06s CPU      2.10s WALL (   10580 calls)
     cegterg:over :      7.17s CPU      7.36s WALL (    8699 calls)
     cegterg:upda :      5.78s CPU      4.67s WALL (    8699 calls)
     cegterg:last :      7.98s CPU      5.25s WALL (    5353 calls)
     h_psi        :    104.43s CPU    101.72s WALL (   10865 calls)
     g_psi        :      0.68s CPU      0.81s WALL (    8699 calls)

     Called by h_psi:
     h_psi:calbec :      9.32s CPU      8.44s WALL (   10865 calls)
     vloc_psi     :     83.80s CPU     85.54s WALL (   10865 calls)
     add_vuspsi   :     10.36s CPU      6.71s WALL (   10865 calls)

     General routines
     calbec       :     10.98s CPU     10.11s WALL (   12195 calls)
     fft          :     10.58s CPU     10.81s WALL (    9865 calls)
     ffts         :      0.12s CPU      0.12s WALL (     112 calls)
     fftw         :     83.23s CPU     84.75s WALL (  181142 calls)

     Parallel routines

     PWSCF        :   4m15.98s CPU   4m17.09s WALL


   This run was terminated on:  12:56:54   8Apr2024            

=------------------------------------------------------------------------------=
   JOB DONE.
=------------------------------------------------------------------------------=
