
     Program PWSCF v.7.2 starts on  5Apr2024 at 19:46:34 

     This program is part of the open-source Quantum ESPRESSO suite
     for quantum simulation of materials; please cite
         "P. Giannozzi et al., J. Phys.:Condens. Matter 21 395502 (2009);
         "P. Giannozzi et al., J. Phys.:Condens. Matter 29 465901 (2017);
         "P. Giannozzi et al., J. Chem. Phys. 152 154105 (2020);
          URL http://www.quantum-espresso.org", 
     in publications or presentations arising from this work. More details at
     http://www.quantum-espresso.org/quote

     Parallel version (MPI & OpenMP), running on       1 processor cores
     Number of MPI processes:                 1
     Threads/MPI process:                     1

     MPI processes distributed on     1 nodes
     0 MiB available memory on the printing compute node when the environment starts

     Waiting for input...
     Reading input from standard input

     Current dimensions of program PWSCF are:
     Max number of different atomic species (ntypx) = 10
     Max number of k-points (npk) =  40000
     Max angular momentum in pseudopotentials (lmaxx) =  4

     Subspace diagonalization in iterative solution of the eigenvalue problem:
     a serial algorithm will be used


     G-vector sticks info
     --------------------
     sticks:   dense  smooth     PW     G-vecs:    dense   smooth      PW
     Sum         703     703    199                91471    91471   14295

     Using Slab Decomposition



     bravais-lattice index     =            4
     lattice parameter (alat)  =       4.6350  a.u.
     unit-cell volume          =     517.4056 (a.u.)^3
     number of atoms/cell      =            2
     number of atomic types    =            2
     number of electrons       =         8.00
     number of Kohn-Sham states=            8
     kinetic-energy cutoff     =     120.0000  Ry
     charge density cutoff     =     480.0000  Ry
     scf convergence threshold =      1.0E-06
     mixing beta               =       0.7000
     number of iterations used =            8  plain     mixing
     energy convergence thresh.=      1.0E-04
     force convergence thresh. =      1.0E-03
     press convergence thresh. =      5.0E-01
     Exchange-correlation= PBE
                           (   1   4   3   4   0   0   0)
     nstep                     =           50


     celldm(1)=   4.635000  celldm(2)=   0.000000  celldm(3)=   6.000000
     celldm(4)=   0.000000  celldm(5)=   0.000000  celldm(6)=   0.000000

     crystal axes: (cart. coord. in units of alat)
               a(1) = (   1.000000   0.000000   0.000000 )  
               a(2) = (  -0.500000   0.866025   0.000000 )  
               a(3) = (   0.000000   0.000000   6.000000 )  

     reciprocal axes: (cart. coord. in units 2 pi/alat)
               b(1) = (  1.000000  0.577350 -0.000000 )  
               b(2) = (  0.000000  1.154701  0.000000 )  
               b(3) = (  0.000000 -0.000000  0.166667 )  


     PseudoPot. # 1 for N  read from file:
     ../../../Pseudo/PBE/N.upf
     MD5 check sum: d34365f73bb0e2ee98afc20ec3e87676
     Pseudo is Norm-conserving + core correction, Zval =  5.0
     Generated using ONCVPSP code by D. R. Hamann
     Using radial grid of 1058 points,  4 beta functions with: 
                l(1) =   0
                l(2) =   0
                l(3) =   1
                l(4) =   1

     PseudoPot. # 2 for B  read from file:
     ../../../Pseudo/PBE/B.upf
     MD5 check sum: 72f82fc31bc892420d0cab7e25c88ab8
     Pseudo is Norm-conserving + core correction, Zval =  3.0
     Generated using ONCVPSP code by D. R. Hamann
     Using radial grid of 1534 points,  4 beta functions with: 
                l(1) =   0
                l(2) =   0
                l(3) =   1
                l(4) =   1

     atomic species   valence    mass     pseudopotential
        N              5.00    14.00670     N ( 1.00)
        B              3.00    10.80100     B ( 1.00)

     12 Sym. Ops. (no inversion) found


                                    s                        frac. trans.

      isym =  1     identity                                     

 cryst.   s( 1) = (     1          0          0      )
                  (     0          1          0      )
                  (     0          0          1      )

 cart.    s( 1) = (  1.0000000  0.0000000  0.0000000 )
                  (  0.0000000  1.0000000  0.0000000 )
                  (  0.0000000  0.0000000  1.0000000 )


      isym =  2     180 deg rotation - cart. axis [0,1,0]        

 cryst.   s( 2) = (    -1          0          0      )
                  (     1          1          0      )
                  (     0          0         -1      )

 cart.    s( 2) = ( -1.0000000  0.0000000  0.0000000 )
                  (  0.0000000  1.0000000  0.0000000 )
                  (  0.0000000  0.0000000 -1.0000000 )


      isym =  3     120 deg rotation - cryst. axis [0,0,1]       

 cryst.   s( 3) = (     0          1          0      )
                  (    -1         -1          0      )
                  (     0          0          1      )

 cart.    s( 3) = ( -0.5000000 -0.8660254  0.0000000 )
                  (  0.8660254 -0.5000000  0.0000000 )
                  (  0.0000000  0.0000000  1.0000000 )


      isym =  4     120 deg rotation - cryst. axis [0,0,-1]      

 cryst.   s( 4) = (    -1         -1          0      )
                  (     1          0          0      )
                  (     0          0          1      )

 cart.    s( 4) = ( -0.5000000  0.8660254  0.0000000 )
                  ( -0.8660254 -0.5000000  0.0000000 )
                  (  0.0000000  0.0000000  1.0000000 )


      isym =  5     180 deg rotation - cryst. axis [1,-1,0]      

 cryst.   s( 5) = (     0         -1          0      )
                  (    -1          0          0      )
                  (     0          0         -1      )

 cart.    s( 5) = (  0.5000000 -0.8660254  0.0000000 )
                  ( -0.8660254 -0.5000000  0.0000000 )
                  (  0.0000000  0.0000000 -1.0000000 )


      isym =  6     180 deg rotation - cryst. axis [2,1,0]       

 cryst.   s( 6) = (     1          1          0      )
                  (     0         -1          0      )
                  (     0          0         -1      )

 cart.    s( 6) = (  0.5000000  0.8660254  0.0000000 )
                  (  0.8660254 -0.5000000  0.0000000 )
                  (  0.0000000  0.0000000 -1.0000000 )


      isym =  7     inv. 180 deg rotation - cart. axis [0,0,1]   

 cryst.   s( 7) = (     1          0          0      )
                  (     0          1          0      )
                  (     0          0         -1      )

 cart.    s( 7) = (  1.0000000  0.0000000  0.0000000 )
                  (  0.0000000  1.0000000  0.0000000 )
                  (  0.0000000  0.0000000 -1.0000000 )


      isym =  8     inv. 180 deg rotation - cart. axis [1,0,0]   

 cryst.   s( 8) = (    -1          0          0      )
                  (     1          1          0      )
                  (     0          0          1      )

 cart.    s( 8) = ( -1.0000000  0.0000000  0.0000000 )
                  (  0.0000000  1.0000000  0.0000000 )
                  (  0.0000000  0.0000000  1.0000000 )


      isym =  9     inv.  60 deg rotation - cryst. axis [0,0,1]  

 cryst.   s( 9) = (    -1         -1          0      )
                  (     1          0          0      )
                  (     0          0         -1      )

 cart.    s( 9) = ( -0.5000000  0.8660254  0.0000000 )
                  ( -0.8660254 -0.5000000  0.0000000 )
                  (  0.0000000  0.0000000 -1.0000000 )


      isym = 10     inv.  60 deg rotation - cryst. axis [0,0,-1] 

 cryst.   s(10) = (     0          1          0      )
                  (    -1         -1          0      )
                  (     0          0         -1      )

 cart.    s(10) = ( -0.5000000 -0.8660254  0.0000000 )
                  (  0.8660254 -0.5000000  0.0000000 )
                  (  0.0000000  0.0000000 -1.0000000 )


      isym = 11     inv. 180 deg rotation - cryst. axis [0,1,0]  

 cryst.   s(11) = (     1          1          0      )
                  (     0         -1          0      )
                  (     0          0          1      )

 cart.    s(11) = (  0.5000000  0.8660254  0.0000000 )
                  (  0.8660254 -0.5000000  0.0000000 )
                  (  0.0000000  0.0000000  1.0000000 )


      isym = 12     inv. 180 deg rotation - cryst. axis [1,1,0]  

 cryst.   s(12) = (     0         -1          0      )
                  (    -1          0          0      )
                  (     0          0          1      )

 cart.    s(12) = (  0.5000000 -0.8660254  0.0000000 )
                  ( -0.8660254 -0.5000000  0.0000000 )
                  (  0.0000000  0.0000000  1.0000000 )


     point group D_3h (-62m)
     there are  6 classes
     the character table:

       E     2C3   3C2   s_h   2S3   3s_v 
A'_1   1.00  1.00  1.00  1.00  1.00  1.00
A'_2   1.00  1.00 -1.00  1.00  1.00 -1.00
E'     2.00 -1.00  0.00  2.00 -1.00  0.00
A''1   1.00  1.00  1.00 -1.00 -1.00 -1.00
A''2   1.00  1.00 -1.00 -1.00 -1.00  1.00
E''    2.00 -1.00  0.00 -2.00  1.00  0.00

     the symmetry operations in each class and the name of the first element:

     E        1
          identity                                               
     2C3      3    4
          120 deg rotation - cryst. axis [0,0,1]                 
     3C2      2    6    5
          180 deg rotation - cart. axis [0,1,0]                  
     s_h      7
          inv. 180 deg rotation - cart. axis [0,0,1]             
     2S3      9   10
          inv.  60 deg rotation - cryst. axis [0,0,1]            
     3s_v     8   11   12
          inv. 180 deg rotation - cart. axis [1,0,0]             

   Cartesian axes

     site n.     atom                  positions (alat units)
         1           B   tau(   1) = (   0.0000000   0.0000000   0.0000000  )
         2           N   tau(   2) = (  -0.0000000   0.5773503   0.0000000  )

   Crystallographic axes

     site n.     atom                  positions (cryst. coord.)
         1           B   tau(   1) = (  0.0000000  0.0000000  0.0000000  )
         2           N   tau(   2) = (  0.3333333  0.6666667  0.0000000  )

     number of k points=    30  Marzari-Vanderbilt smearing, width (Ry)=  0.0050
                       cart. coord. in units 2pi/alat
        k(    1) = (   0.0000000   0.0000000   0.0000000), wk =   0.0078125
        k(    2) = (   0.0000000   0.0721688   0.0000000), wk =   0.0468750
        k(    3) = (   0.0000000   0.1443376   0.0000000), wk =   0.0468750
        k(    4) = (   0.0000000   0.2165064   0.0000000), wk =   0.0468750
        k(    5) = (   0.0000000   0.2886751   0.0000000), wk =   0.0468750
        k(    6) = (   0.0000000   0.3608439   0.0000000), wk =   0.0468750
        k(    7) = (   0.0000000   0.4330127   0.0000000), wk =   0.0468750
        k(    8) = (   0.0000000   0.5051815   0.0000000), wk =   0.0468750
        k(    9) = (   0.0000000  -0.5773503   0.0000000), wk =   0.0234375
        k(   10) = (   0.0625000   0.1082532   0.0000000), wk =   0.0468750
        k(   11) = (   0.0625000   0.1804220   0.0000000), wk =   0.0937500
        k(   12) = (   0.0625000   0.2525907   0.0000000), wk =   0.0937500
        k(   13) = (   0.0625000   0.3247595   0.0000000), wk =   0.0937500
        k(   14) = (   0.0625000   0.3969283   0.0000000), wk =   0.0937500
        k(   15) = (   0.0625000   0.4690971   0.0000000), wk =   0.0937500
        k(   16) = (   0.0625000   0.5412659   0.0000000), wk =   0.0937500
        k(   17) = (   0.1250000   0.2165064   0.0000000), wk =   0.0468750
        k(   18) = (   0.1250000   0.2886751   0.0000000), wk =   0.0937500
        k(   19) = (   0.1250000   0.3608439   0.0000000), wk =   0.0937500
        k(   20) = (   0.1250000   0.4330127   0.0000000), wk =   0.0937500
        k(   21) = (   0.1250000   0.5051815   0.0000000), wk =   0.0937500
        k(   22) = (   0.1250000   0.5773503   0.0000000), wk =   0.0468750
        k(   23) = (   0.1875000   0.3247595   0.0000000), wk =   0.0468750
        k(   24) = (   0.1875000   0.3969283   0.0000000), wk =   0.0937500
        k(   25) = (   0.1875000   0.4690971   0.0000000), wk =   0.0937500
        k(   26) = (   0.1875000   0.5412659   0.0000000), wk =   0.0937500
        k(   27) = (   0.2500000   0.4330127   0.0000000), wk =   0.0468750
        k(   28) = (   0.2500000   0.5051815   0.0000000), wk =   0.0937500
        k(   29) = (   0.2500000   0.5773503   0.0000000), wk =   0.0468750
        k(   30) = (   0.3125000   0.5412659   0.0000000), wk =   0.0468750

                       cryst. coord.
        k(    1) = (   0.0000000   0.0000000   0.0000000), wk =   0.0078125
        k(    2) = (   0.0000000   0.0625000   0.0000000), wk =   0.0468750
        k(    3) = (   0.0000000   0.1250000   0.0000000), wk =   0.0468750
        k(    4) = (   0.0000000   0.1875000   0.0000000), wk =   0.0468750
        k(    5) = (   0.0000000   0.2500000   0.0000000), wk =   0.0468750
        k(    6) = (   0.0000000   0.3125000   0.0000000), wk =   0.0468750
        k(    7) = (   0.0000000   0.3750000   0.0000000), wk =   0.0468750
        k(    8) = (   0.0000000   0.4375000   0.0000000), wk =   0.0468750
        k(    9) = (   0.0000000  -0.5000000   0.0000000), wk =   0.0234375
        k(   10) = (   0.0625000   0.0625000   0.0000000), wk =   0.0468750
        k(   11) = (   0.0625000   0.1250000   0.0000000), wk =   0.0937500
        k(   12) = (   0.0625000   0.1875000   0.0000000), wk =   0.0937500
        k(   13) = (   0.0625000   0.2500000   0.0000000), wk =   0.0937500
        k(   14) = (   0.0625000   0.3125000   0.0000000), wk =   0.0937500
        k(   15) = (   0.0625000   0.3750000   0.0000000), wk =   0.0937500
        k(   16) = (   0.0625000   0.4375000   0.0000000), wk =   0.0937500
        k(   17) = (   0.1250000   0.1250000   0.0000000), wk =   0.0468750
        k(   18) = (   0.1250000   0.1875000   0.0000000), wk =   0.0937500
        k(   19) = (   0.1250000   0.2500000   0.0000000), wk =   0.0937500
        k(   20) = (   0.1250000   0.3125000   0.0000000), wk =   0.0937500
        k(   21) = (   0.1250000   0.3750000   0.0000000), wk =   0.0937500
        k(   22) = (   0.1250000   0.4375000   0.0000000), wk =   0.0468750
        k(   23) = (   0.1875000   0.1875000   0.0000000), wk =   0.0468750
        k(   24) = (   0.1875000   0.2500000   0.0000000), wk =   0.0937500
        k(   25) = (   0.1875000   0.3125000   0.0000000), wk =   0.0937500
        k(   26) = (   0.1875000   0.3750000   0.0000000), wk =   0.0937500
        k(   27) = (   0.2500000   0.2500000   0.0000000), wk =   0.0468750
        k(   28) = (   0.2500000   0.3125000   0.0000000), wk =   0.0937500
        k(   29) = (   0.2500000   0.3750000   0.0000000), wk =   0.0468750
        k(   30) = (   0.3125000   0.3125000   0.0000000), wk =   0.0468750

     Dense  grid:    91471 G-vectors     FFT dimensions: (  36,  36, 200)

     Dynamical RAM for                 wfc:       1.40 MB

     Dynamical RAM for     wfc (w. buffer):      43.47 MB

     Dynamical RAM for           str. fact:       2.79 MB

     Dynamical RAM for           local pot:       0.00 MB

     Dynamical RAM for          nlocal pot:       2.80 MB

     Dynamical RAM for                qrad:       2.01 MB

     Dynamical RAM for          rho,v,vnew:      10.12 MB

     Dynamical RAM for               rhoin:       3.37 MB

     Dynamical RAM for            rho*nmix:      22.33 MB

     Dynamical RAM for           G-vectors:       5.93 MB

     Dynamical RAM for          h,s,v(r/c):       0.01 MB

     Dynamical RAM for          <psi|beta>:       0.00 MB

     Dynamical RAM for                 psi:       2.80 MB

     Dynamical RAM for                hpsi:       2.80 MB

     Dynamical RAM for      wfcinit/wfcrot:       2.81 MB

     Estimated static dynamical RAM per process >      84.57 MB

     Estimated max dynamical RAM per process >     112.52 MB

     Initial potential from superposition of free atoms

     starting charge       7.9997, renormalised to       8.0000

     negative rho (up, down):  2.560E-06 0.000E+00
     Starting wfcs are    8 randomized atomic wfcs

     total cpu time spent up to now is        6.7 secs

     Self-consistent Calculation

     iteration #  1     ecut=   120.00 Ry     beta= 0.70
     Davidson diagonalization with overlap

---- Real-time Memory Report at c_bands before calling an iterative solver
             0 MiB given to the printing process from OS
             0 MiB allocation reported by mallinfo(arena+hblkhd)
             0 MiB available memory on the node where the printing process lives
------------------
     ethr =  1.00E-02,  avg # of iterations =  7.9

     total cpu time spent up to now is       11.2 secs

     total energy              =     -26.68149249 Ry
     estimated scf accuracy    <       0.42153033 Ry

     iteration #  2     ecut=   120.00 Ry     beta= 0.70
     Davidson diagonalization with overlap

---- Real-time Memory Report at c_bands before calling an iterative solver
             0 MiB given to the printing process from OS
             0 MiB allocation reported by mallinfo(arena+hblkhd)
             0 MiB available memory on the node where the printing process lives
------------------
     ethr =  5.27E-03,  avg # of iterations =  3.6

     total cpu time spent up to now is       14.4 secs

     total energy              =     -26.78051941 Ry
     estimated scf accuracy    <       0.15676065 Ry

     iteration #  3     ecut=   120.00 Ry     beta= 0.70
     Davidson diagonalization with overlap

---- Real-time Memory Report at c_bands before calling an iterative solver
             0 MiB given to the printing process from OS
             0 MiB allocation reported by mallinfo(arena+hblkhd)
             0 MiB available memory on the node where the printing process lives
------------------
     ethr =  1.96E-03,  avg # of iterations =  3.6

     total cpu time spent up to now is       17.0 secs

     total energy              =     -26.81031516 Ry
     estimated scf accuracy    <       0.00165430 Ry

     iteration #  4     ecut=   120.00 Ry     beta= 0.70
     Davidson diagonalization with overlap

---- Real-time Memory Report at c_bands before calling an iterative solver
             0 MiB given to the printing process from OS
             0 MiB allocation reported by mallinfo(arena+hblkhd)
             0 MiB available memory on the node where the printing process lives
------------------
     ethr =  2.07E-05,  avg # of iterations =  9.9

     total cpu time spent up to now is       21.7 secs

     total energy              =     -26.81153937 Ry
     estimated scf accuracy    <       0.00088583 Ry

     iteration #  5     ecut=   120.00 Ry     beta= 0.70
     Davidson diagonalization with overlap

---- Real-time Memory Report at c_bands before calling an iterative solver
             0 MiB given to the printing process from OS
             0 MiB allocation reported by mallinfo(arena+hblkhd)
             0 MiB available memory on the node where the printing process lives
------------------
     ethr =  1.11E-05,  avg # of iterations =  1.9

     negative rho (up, down):  1.520E-07 0.000E+00

     total cpu time spent up to now is       24.1 secs

     total energy              =     -26.81170582 Ry
     estimated scf accuracy    <       0.00000800 Ry

     iteration #  6     ecut=   120.00 Ry     beta= 0.70
     Davidson diagonalization with overlap

---- Real-time Memory Report at c_bands before calling an iterative solver
             0 MiB given to the printing process from OS
             0 MiB allocation reported by mallinfo(arena+hblkhd)
             0 MiB available memory on the node where the printing process lives
------------------
     ethr =  1.00E-07,  avg # of iterations =  5.0

     total cpu time spent up to now is       27.7 secs

     total energy              =     -26.81171125 Ry
     estimated scf accuracy    <       0.00001255 Ry

     iteration #  7     ecut=   120.00 Ry     beta= 0.70
     Davidson diagonalization with overlap

---- Real-time Memory Report at c_bands before calling an iterative solver
             0 MiB given to the printing process from OS
             0 MiB allocation reported by mallinfo(arena+hblkhd)
             0 MiB available memory on the node where the printing process lives
------------------
     ethr =  1.00E-07,  avg # of iterations =  1.9

     total cpu time spent up to now is       30.2 secs

     total energy              =     -26.81171170 Ry
     estimated scf accuracy    <       0.00000115 Ry

     iteration #  8     ecut=   120.00 Ry     beta= 0.70
     Davidson diagonalization with overlap

---- Real-time Memory Report at c_bands before calling an iterative solver
             0 MiB given to the printing process from OS
             0 MiB allocation reported by mallinfo(arena+hblkhd)
             0 MiB available memory on the node where the printing process lives
------------------
     ethr =  1.43E-08,  avg # of iterations =  3.1

     total cpu time spent up to now is       33.5 secs

     End of self-consistent calculation

          k = 0.0000 0.0000 0.0000 ( 11233 PWs)   bands (ev):

   -21.3020  -8.8504  -4.5536  -4.5536   1.3484   2.3466   2.9063   4.7942

     occupation numbers 
     1.0000   1.0000   1.0000   1.0000   0.0000   0.0000   0.0000   0.0000

          k = 0.0000 0.0722 0.0000 ( 11404 PWs)   bands (ev):

   -21.2232  -8.7437  -4.8823  -4.7130   1.4820   2.4705   3.0374   4.9114

     occupation numbers 
     1.0000   1.0000   1.0000   1.0000   0.0000   0.0000   0.0000   0.0000

          k = 0.0000 0.1443 0.0000 ( 11440 PWs)   bands (ev):

   -20.9892  -8.4261  -5.7726  -5.1348   1.8743   2.8393   3.4281   5.2540

     occupation numbers 
     1.0000   1.0000   1.0000   1.0000   0.0000   0.0000   0.0000   0.0000

          k = 0.0000 0.2165 0.0000 ( 11430 PWs)   bands (ev):

   -20.6071  -7.9062  -7.0208  -5.6959   2.5122   3.4391   4.0739   5.7654

     occupation numbers 
     1.0000   1.0000   1.0000   1.0000   0.0000   0.0000   0.0000   0.0000

          k = 0.0000 0.2887 0.0000 ( 11476 PWs)   bands (ev):

   -20.0922  -8.4299  -7.2017  -6.2776   3.3869   4.1935   4.9706   6.0680

     occupation numbers 
     1.0000   1.0000   1.0000   1.0000   0.0000   0.0000   0.0000   0.0000

          k = 0.0000 0.3608 0.0000 ( 11494 PWs)   bands (ev):

   -19.4754  -9.8415  -6.7949  -6.3484   4.3715   4.4838   6.0301   6.1070

     occupation numbers 
     1.0000   1.0000   1.0000   1.0000   0.0000   0.0000   0.0000   0.0000

          k = 0.0000 0.4330 0.0000 ( 11534 PWs)   bands (ev):

   -18.8202 -11.1106  -7.1944  -5.4232   3.2628   5.7479   7.1395   7.3885

     occupation numbers 
     1.0000   1.0000   1.0000   1.0000   0.0000   0.0000   0.0000   0.0000

          k = 0.0000 0.5052 0.0000 ( 11512 PWs)   bands (ev):

   -18.2607 -12.0553  -7.4449  -4.6033   2.1540   6.8592   8.2707   8.6873

     occupation numbers 
     1.0000   1.0000   1.0000   1.0000   0.0000   0.0000   0.0000   0.0000

          k = 0.0000-0.5774 0.0000 ( 11502 PWs)   bands (ev):

   -18.0248 -12.4221  -7.5300  -4.2427   1.6818   7.1793   9.4778   9.9440

     occupation numbers 
     1.0000   1.0000   1.0000   1.0000   0.0000   0.0000   0.0000   0.0000

          k = 0.0625 0.1083 0.0000 ( 11424 PWs)   bands (ev):

   -21.0668  -8.5315  -5.4663  -5.0291   1.7450   2.7170   3.2983   5.1417

     occupation numbers 
     1.0000   1.0000   1.0000   1.0000   0.0000   0.0000   0.0000   0.0000

          k = 0.0625 0.1804 0.0000 ( 11438 PWs)   bands (ev):

   -20.7585  -8.1125  -6.4849  -5.5712   2.2609   3.2024   3.8172   5.5750

     occupation numbers 
     1.0000   1.0000   1.0000   1.0000   0.0000   0.0000   0.0000   0.0000

          k = 0.0625 0.2526 0.0000 ( 11461 PWs)   bands (ev):

   -20.3092  -7.7722  -7.4994  -6.1842   3.0198   3.8931   4.5900   6.0447

     occupation numbers 
     1.0000   1.0000   1.0000   1.0000   0.0000   0.0000   0.0000   0.0000

          k = 0.0625 0.3248 0.0000 ( 11475 PWs)   bands (ev):

   -19.7406  -9.1576  -6.7599  -6.7173   4.0123   4.5153   5.6118   5.9477

     occupation numbers 
     1.0000   1.0000   1.0000   1.0000   0.0000   0.0000   0.0000   0.0000

          k = 0.0625 0.3969 0.0000 ( 11494 PWs)   bands (ev):

   -19.0969 -10.4891  -7.2330  -5.8184   3.8590   5.2162   6.5758   6.8622

     occupation numbers 
     1.0000   1.0000   1.0000   1.0000   0.0000   0.0000   0.0000   0.0000

          k = 0.0625 0.4691 0.0000 ( 11497 PWs)   bands (ev):

   -18.4709 -11.6055  -7.5654  -4.9186   2.6624   6.5292   7.9619   8.0820

     occupation numbers 
     1.0000   1.0000   1.0000   1.0000   0.0000   0.0000   0.0000   0.0000

          k = 0.0625 0.5413 0.0000 ( 11485 PWs)   bands (ev):

   -18.0457 -12.2847  -7.7362  -4.2796   1.8208   7.3986   9.0061   9.6013

     occupation numbers 
     1.0000   1.0000   1.0000   1.0000   0.0000   0.0000   0.0000   0.0000

          k = 0.1250 0.2165 0.0000 ( 11436 PWs)   bands (ev):

   -20.3824  -7.5997  -7.4521  -6.2559   2.8996   3.7847   4.4640   6.0012

     occupation numbers 
     1.0000   1.0000   1.0000   1.0000   0.0000   0.0000   0.0000   0.0000

          k = 0.1250 0.2887 0.0000 ( 11490 PWs)   bands (ev):

   -19.8767  -8.6148  -6.9650  -6.9060   3.7818   4.4534   5.3653   6.0484

     occupation numbers 
     1.0000   1.0000   1.0000   1.0000   0.0000   0.0000   0.0000   0.0000

          k = 0.1250 0.3608 0.0000 ( 11500 PWs)   bands (ev):

   -19.2729  -9.8601  -7.5627  -6.0679   4.2915   4.8961   6.2863   6.5152

     occupation numbers 
     1.0000   1.0000   1.0000   1.0000   0.0000   0.0000   0.0000   0.0000

          k = 0.1250 0.4330 0.0000 ( 11510 PWs)   bands (ev):

   -18.6350 -11.0243  -8.0040  -5.1627   3.1987   6.2149   7.4725   7.8888

     occupation numbers 
     1.0000   1.0000   1.0000   1.0000   0.0000   0.0000   0.0000   0.0000

          k = 0.1250 0.5052 0.0000 ( 11517 PWs)   bands (ev):

   -18.0947 -11.9053  -8.2735  -4.3649   2.1709   7.6010   8.9796   9.0814

     occupation numbers 
     1.0000   1.0000   1.0000   1.0000   0.0000   0.0000   0.0000   0.0000

          k = 0.1250 0.5774 0.0000 ( 11508 PWs)   bands (ev):

   -17.8687 -12.2487  -8.3640  -4.0158   1.7327   8.2849   9.8201  10.2583

     occupation numbers 
     1.0000   1.0000   1.0000   1.0000   0.0000   0.0000   0.0000   0.0000

          k = 0.1875 0.3248 0.0000 ( 11480 PWs)   bands (ev):

   -19.3331  -9.5337  -7.8018  -6.1530   4.4416   4.7880   6.2130   6.3959

     occupation numbers 
     1.0000   1.0000   1.0000   1.0000   0.0000   0.0000   0.0000   0.0000

          k = 0.1875 0.3969 0.0000 ( 11513 PWs)   bands (ev):

   -18.7241 -10.5084  -8.4812  -5.2945   3.5578   6.0238   7.2286   7.6749

     occupation numbers 
     1.0000   1.0000   1.0000   1.0000   0.0000   0.0000   0.0000   0.0000

          k = 0.1875 0.4691 0.0000 ( 11533 PWs)   bands (ev):

   -18.1416 -11.3996  -8.9268  -4.4454   2.5489   7.4546   8.5735   9.1755

     occupation numbers 
     1.0000   1.0000   1.0000   1.0000   0.0000   0.0000   0.0000   0.0000

          k = 0.1875 0.5413 0.0000 ( 11513 PWs)   bands (ev):

   -17.7544 -11.9626  -9.1439  -3.8514   1.8479   8.8992   9.8295  10.2294

     occupation numbers 
     1.0000   1.0000   1.0000   1.0000   0.0000   0.0000   0.0000   0.0000

          k = 0.2500 0.4330 0.0000 ( 11496 PWs)   bands (ev):

   -18.1605 -11.0999  -9.2849  -4.4774   2.7165   7.3715   8.4289   9.0802

     occupation numbers 
     1.0000   1.0000   1.0000   1.0000   0.0000   0.0000   0.0000   0.0000

          k = 0.2500 0.5052 0.0000 ( 11505 PWs)   bands (ev):

   -17.7022 -11.5814  -9.7988  -3.7801   1.9982   8.8790   9.4320  10.6743

     occupation numbers 
     1.0000   1.0000   1.0000   1.0000   0.0000   0.0000   0.0000   0.0000

          k = 0.2500 0.5774 0.0000 ( 11488 PWs)   bands (ev):

   -17.5177 -11.7809  -9.9687  -3.4846   1.6949   9.6431  10.0453  10.8891

     occupation numbers 
     1.0000   1.0000   1.0000   1.0000   0.0000   0.0000   0.0000   0.0000

          k = 0.3125 0.5413 0.0000 ( 11482 PWs)   bands (ev):

   -17.4333 -11.5880 -10.3901  -3.3516   1.6572   9.4136  10.2613  11.5454

     occupation numbers 
     1.0000   1.0000   1.0000   1.0000   0.0000   0.0000   0.0000   0.0000

     the Fermi energy is    -0.6023 ev

!    total energy              =     -26.81171214 Ry
     estimated scf accuracy    <       0.00000025 Ry
     smearing contrib. (-TS)   =       0.00000000 Ry
     internal energy E=F+TS    =     -26.81171214 Ry

     The total energy is F=E-TS. E is the sum of the following terms:
     one-electron contribution =    -158.40975535 Ry
     hartree contribution      =      81.05729140 Ry
     xc contribution           =      -8.74936165 Ry
     ewald contribution        =      59.29011347 Ry

     convergence has been achieved in   8 iterations

     Forces acting on atoms (cartesian axes, Ry/au):

     atom    1 type  2   force =     0.00000000    0.00000000    0.00000000
     atom    2 type  1   force =     0.00000000    0.00000000    0.00000000
     The non-local contrib.  to forces
     atom    1 type  2   force =     0.00000000   -0.00000000    0.00000000
     atom    2 type  1   force =     0.00000000    0.00000000    0.00000000
     The ionic contribution  to forces
     atom    1 type  2   force =    -0.00000001    0.00000000   -0.00000000
     atom    2 type  1   force =     0.00000001   -0.00000000   -0.00000000
     The local contribution  to forces
     atom    1 type  2   force =    -0.00000000   -0.00000000    0.00000000
     atom    2 type  1   force =     0.00000003   -0.00000002    0.00000000
     The core correction contribution to forces
     atom    1 type  2   force =    -0.00000000   -0.00000000   -0.00000000
     atom    2 type  1   force =    -0.00000000    0.00000000   -0.00000000
     The Hubbard contrib.    to forces
     atom    1 type  2   force =     0.00000000    0.00000000    0.00000000
     atom    2 type  1   force =     0.00000000    0.00000000    0.00000000
     The SCF correction term to forces
     atom    1 type  2   force =    -0.00000000    0.00000000    0.00000000
     atom    2 type  1   force =    -0.00000000    0.00000000    0.00000000

     Total force =     0.000000     Total SCF correction =     0.000000


     Computing stress (Cartesian axis) and pressure

          total   stress  (Ry/bohr**3)                   (kbar)     P=       41.75
   0.00042513   0.00000000   0.00000000           62.54        0.00        0.00
   0.00000000   0.00042513   0.00000000            0.00       62.54        0.00
   0.00000000   0.00000000   0.00000107            0.00        0.00        0.16

     kinetic stress (kbar)   3515.72      0.00      0.00
                                0.00   3515.72      0.00
                                0.00      0.00   3796.61

     local   stress (kbar) -47275.34      0.00     -0.00
                                0.00 -47275.34      0.00
                               -0.00      0.00  47903.70

     nonloc. stress (kbar)   -588.14      0.00      0.00
                                0.00   -588.14      0.00
                                0.00      0.00   -560.96

     hartree stress (kbar)  22474.92     -0.00      0.00
                               -0.00  22474.92      0.00
                                0.00      0.00 -21904.22

     exc-cor stress (kbar)   -348.73     -0.00      0.00
                               -0.00   -348.73      0.00
                                0.00      0.00   -375.09

     corecor stress (kbar)   -385.55      0.00      0.00
                                0.00   -385.55      0.00
                                0.00      0.00   -377.53

     ewald   stress (kbar)  22669.65     -0.00     -0.00
                               -0.00  22669.65     -0.00
                               -0.00     -0.00 -28482.36

     hubbard stress (kbar)      0.00      0.00      0.00
                                0.00      0.00      0.00
                                0.00      0.00      0.00

     DFT-D   stress (kbar)      0.00      0.00      0.00
                                0.00      0.00      0.00
                                0.00      0.00      0.00

     XDM     stress (kbar)      0.00      0.00      0.00
                                0.00      0.00      0.00
                                0.00      0.00      0.00

     dft-nl  stress (kbar)      0.00      0.00      0.00
                                0.00      0.00      0.00
                                0.00      0.00      0.00

     TS-vdW  stress (kbar)      0.00      0.00      0.00
                                0.00      0.00      0.00
                                0.00      0.00      0.00

     MDB     stress (kbar)      0.00      0.00      0.00
                                0.00      0.00      0.00
                                0.00      0.00      0.00

     3D-RISM stress (kbar)      0.00      0.00      0.00
                                0.00      0.00      0.00
                                0.00      0.00      0.00


     BFGS Geometry Optimization
     Energy error            =      0.0E+00 Ry
     Gradient error          =      2.8E-25 Ry/Bohr
     Cell gradient error     =      6.3E+01 kbar

     number of scf cycles    =   1
     number of bfgs steps    =   0

     enthalpy           new  =     -26.8117121402 Ry

     new trust radius        =       0.0483515496 bohr
     new conv_thr            =       0.0000010000 Ry

     new unit-cell volume =    528.47644 a.u.^3 (    78.31213 Ang^3 )
     density =      0.52603 g/cm^3

CELL_PARAMETERS (alat=  4.63500000)
   1.010628326   0.000000000   0.000000000
  -0.505314163   0.875229804   0.000000000
   0.000000000   0.000000000   6.000160251

ATOMIC_POSITIONS (crystal)
B             0.0000000000        0.0000000000        0.0000000000
N             0.3333333330        0.6666666670        0.0000000000



     Writing config-only to output data dir ./tmp/hBN_1l_PBE.save/
     NEW-OLD atomic charge density approx. for the potential

     negative rho (up, down):  8.334E-07 0.000E+00
     extrapolated charge    8.16758, renormalised to    8.00000

     total cpu time spent up to now is       53.9 secs

     Self-consistent Calculation

     iteration #  1     ecut=   120.00 Ry     beta= 0.70
     Davidson diagonalization with overlap

---- Real-time Memory Report at c_bands before calling an iterative solver
             0 MiB given to the printing process from OS
             0 MiB allocation reported by mallinfo(arena+hblkhd)
             0 MiB available memory on the node where the printing process lives
------------------
     c_bands:  1 eigenvalues not converged
     c_bands:  1 eigenvalues not converged
     c_bands:  1 eigenvalues not converged
     c_bands:  1 eigenvalues not converged
     c_bands:  1 eigenvalues not converged
     ethr =  1.00E-06,  avg # of iterations = 12.0

     total cpu time spent up to now is       61.4 secs

     total energy              =     -26.37247628 Ry
     estimated scf accuracy    <       0.37350825 Ry

     iteration #  2     ecut=   120.00 Ry     beta= 0.70
     Davidson diagonalization with overlap

---- Real-time Memory Report at c_bands before calling an iterative solver
             0 MiB given to the printing process from OS
             0 MiB allocation reported by mallinfo(arena+hblkhd)
             0 MiB available memory on the node where the printing process lives
------------------
     ethr =  4.67E-03,  avg # of iterations =  6.3

     total cpu time spent up to now is       65.6 secs

     total energy              =     -26.84599925 Ry
     estimated scf accuracy    <       0.37001054 Ry

     iteration #  3     ecut=   120.00 Ry     beta= 0.70
     Davidson diagonalization with overlap

---- Real-time Memory Report at c_bands before calling an iterative solver
             0 MiB given to the printing process from OS
             0 MiB allocation reported by mallinfo(arena+hblkhd)
             0 MiB available memory on the node where the printing process lives
------------------
     ethr =  4.63E-03,  avg # of iterations =  1.5

     total cpu time spent up to now is       67.9 secs

     total energy              =     -26.84308621 Ry
     estimated scf accuracy    <       0.07476495 Ry

     iteration #  4     ecut=   120.00 Ry     beta= 0.70
     Davidson diagonalization with overlap

---- Real-time Memory Report at c_bands before calling an iterative solver
             0 MiB given to the printing process from OS
             0 MiB allocation reported by mallinfo(arena+hblkhd)
             0 MiB available memory on the node where the printing process lives
------------------
     ethr =  9.35E-04,  avg # of iterations =  3.3

     total cpu time spent up to now is       70.4 secs

     total energy              =     -26.82662160 Ry
     estimated scf accuracy    <       0.04104560 Ry

     iteration #  5     ecut=   120.00 Ry     beta= 0.70
     Davidson diagonalization with overlap

---- Real-time Memory Report at c_bands before calling an iterative solver
             0 MiB given to the printing process from OS
             0 MiB allocation reported by mallinfo(arena+hblkhd)
             0 MiB available memory on the node where the printing process lives
------------------
     ethr =  5.13E-04,  avg # of iterations =  3.7

     total cpu time spent up to now is       73.1 secs

     total energy              =     -26.82599126 Ry
     estimated scf accuracy    <       0.01787118 Ry

     iteration #  6     ecut=   120.00 Ry     beta= 0.70
     Davidson diagonalization with overlap

---- Real-time Memory Report at c_bands before calling an iterative solver
             0 MiB given to the printing process from OS
             0 MiB allocation reported by mallinfo(arena+hblkhd)
             0 MiB available memory on the node where the printing process lives
------------------
     ethr =  2.23E-04,  avg # of iterations =  1.8

     total cpu time spent up to now is       75.4 secs

     total energy              =     -26.82781494 Ry
     estimated scf accuracy    <       0.01628805 Ry

     iteration #  7     ecut=   120.00 Ry     beta= 0.70
     Davidson diagonalization with overlap

---- Real-time Memory Report at c_bands before calling an iterative solver
             0 MiB given to the printing process from OS
             0 MiB allocation reported by mallinfo(arena+hblkhd)
             0 MiB available memory on the node where the printing process lives
------------------
     ethr =  2.04E-04,  avg # of iterations =  1.0

     total cpu time spent up to now is       77.6 secs

     total energy              =     -26.81517900 Ry
     estimated scf accuracy    <       0.01858125 Ry

     iteration #  8     ecut=   120.00 Ry     beta= 0.70
     Davidson diagonalization with overlap

---- Real-time Memory Report at c_bands before calling an iterative solver
             0 MiB given to the printing process from OS
             0 MiB allocation reported by mallinfo(arena+hblkhd)
             0 MiB available memory on the node where the printing process lives
------------------
     ethr =  2.04E-04,  avg # of iterations =  6.1

     total cpu time spent up to now is       80.9 secs

     total energy              =     -26.81633093 Ry
     estimated scf accuracy    <       0.00150864 Ry

     iteration #  9     ecut=   120.00 Ry     beta= 0.70
     Davidson diagonalization with overlap

---- Real-time Memory Report at c_bands before calling an iterative solver
             0 MiB given to the printing process from OS
             0 MiB allocation reported by mallinfo(arena+hblkhd)
             0 MiB available memory on the node where the printing process lives
------------------
     ethr =  1.89E-05,  avg # of iterations =  3.7

     total cpu time spent up to now is       83.6 secs

     total energy              =     -26.81548529 Ry
     estimated scf accuracy    <       0.00223058 Ry

     iteration # 10     ecut=   120.00 Ry     beta= 0.70
     Davidson diagonalization with overlap

---- Real-time Memory Report at c_bands before calling an iterative solver
             0 MiB given to the printing process from OS
             0 MiB allocation reported by mallinfo(arena+hblkhd)
             0 MiB available memory on the node where the printing process lives
------------------
     ethr =  1.89E-05,  avg # of iterations =  4.5

     total cpu time spent up to now is       86.7 secs

     total energy              =     -26.81520944 Ry
     estimated scf accuracy    <       0.00076964 Ry

     iteration # 11     ecut=   120.00 Ry     beta= 0.70
     Davidson diagonalization with overlap

---- Real-time Memory Report at c_bands before calling an iterative solver
             0 MiB given to the printing process from OS
             0 MiB allocation reported by mallinfo(arena+hblkhd)
             0 MiB available memory on the node where the printing process lives
------------------
     ethr =  9.62E-06,  avg # of iterations =  4.9

     total cpu time spent up to now is       90.2 secs

     total energy              =     -26.81526669 Ry
     estimated scf accuracy    <       0.00000637 Ry

     iteration # 12     ecut=   120.00 Ry     beta= 0.70
     Davidson diagonalization with overlap

---- Real-time Memory Report at c_bands before calling an iterative solver
             0 MiB given to the printing process from OS
             0 MiB allocation reported by mallinfo(arena+hblkhd)
             0 MiB available memory on the node where the printing process lives
------------------
     ethr =  7.97E-08,  avg # of iterations =  2.9

     total cpu time spent up to now is       93.0 secs

     total energy              =     -26.81526846 Ry
     estimated scf accuracy    <       0.00000201 Ry

     iteration # 13     ecut=   120.00 Ry     beta= 0.70
     Davidson diagonalization with overlap

---- Real-time Memory Report at c_bands before calling an iterative solver
             0 MiB given to the printing process from OS
             0 MiB allocation reported by mallinfo(arena+hblkhd)
             0 MiB available memory on the node where the printing process lives
------------------
     ethr =  2.51E-08,  avg # of iterations =  1.7

     total cpu time spent up to now is       95.4 secs

     End of self-consistent calculation

          k = 0.0000 0.0000 0.0000 ( 11233 PWs)   bands (ev):

   -21.1914  -8.7605  -4.6748  -4.6748   1.3055   2.3103   2.8488   4.7474

     occupation numbers 
     1.0000   1.0000   1.0000   1.0000   0.0000   0.0000   0.0000   0.0000

          k = 0.0000 0.0714 0.0000 ( 11404 PWs)   bands (ev):

   -21.1144  -8.6566  -4.9991  -4.8288   1.4371   2.4311   2.9775   4.8607

     occupation numbers 
     1.0000   1.0000   1.0000   1.0000   0.0000   0.0000   0.0000   0.0000

          k = 0.0000 0.1428 0.0000 ( 11440 PWs)   bands (ev):

   -20.8857  -8.3474  -5.8761  -5.2371   1.8226   2.7905   3.3604   5.1898

     occupation numbers 
     1.0000   1.0000   1.0000   1.0000   0.0000   0.0000   0.0000   0.0000

          k = 0.0000 0.2142 0.0000 ( 11430 PWs)   bands (ev):

   -20.5126  -7.8414  -7.1029  -5.7808   2.4478   3.3729   3.9927   5.6678

     occupation numbers 
     1.0000   1.0000   1.0000   1.0000   0.0000   0.0000   0.0000   0.0000

          k = 0.0000 0.2856 0.0000 ( 11476 PWs)   bands (ev):

   -20.0106  -8.4848  -7.1562  -6.3452   3.3024   4.0906   4.8693   5.8763

     occupation numbers 
     1.0000   1.0000   1.0000   1.0000   0.0000   0.0000   0.0000   0.0000

          k = 0.0000 0.3570 0.0000 ( 11494 PWs)   bands (ev):

   -19.4106  -9.8659  -6.8477  -6.3274   4.1624   4.3688   5.8901   5.9745

     occupation numbers 
     1.0000   1.0000   1.0000   1.0000   0.0000   0.0000   0.0000   0.0000

          k = 0.0000 0.4285 0.0000 ( 11534 PWs)   bands (ev):

   -18.7758 -11.1037  -7.2361  -5.4304   3.0629   5.5761   7.0010   7.1643

     occupation numbers 
     1.0000   1.0000   1.0000   1.0000   0.0000   0.0000   0.0000   0.0000

          k = 0.0000 0.4999 0.0000 ( 11512 PWs)   bands (ev):

   -18.2370 -12.0205  -7.4795  -4.6383   1.9923   6.5402   8.0088   8.5145

     occupation numbers 
     1.0000   1.0000   1.0000   1.0000   0.0000   0.0000   0.0000   0.0000

          k = 0.0000-0.5713 0.0000 ( 11502 PWs)   bands (ev):

   -18.0113 -12.3747  -7.5623  -4.2912   1.5383   6.7792   9.2647   9.9743

     occupation numbers 
     1.0000   1.0000   1.0000   1.0000   0.0000   0.0000   0.0000   0.0000

          k = 0.0618 0.1071 0.0000 ( 11424 PWs)   bands (ev):

   -20.9615  -8.4500  -5.5749  -5.1349   1.6958   2.6714   3.2333   5.0824

     occupation numbers 
     1.0000   1.0000   1.0000   1.0000   0.0000   0.0000   0.0000   0.0000

          k = 0.0618 0.1785 0.0000 ( 11438 PWs)   bands (ev):

   -20.6604  -8.0422  -6.5771  -5.6607   2.2020   3.1436   3.7415   5.4934

     occupation numbers 
     1.0000   1.0000   1.0000   1.0000   0.0000   0.0000   0.0000   0.0000

          k = 0.0618 0.2499 0.0000 ( 11461 PWs)   bands (ev):

   -20.2221  -7.8403  -7.4457  -6.2563   2.9449   3.8096   4.4979   5.8968

     occupation numbers 
     1.0000   1.0000   1.0000   1.0000   0.0000   0.0000   0.0000   0.0000

          k = 0.0618 0.3213 0.0000 ( 11475 PWs)   bands (ev):

   -19.6684  -9.1968  -6.8164  -6.6855   3.9135   4.3540   5.4957   5.7628

     occupation numbers 
     1.0000   1.0000   1.0000   1.0000   0.0000   0.0000   0.0000   0.0000

          k = 0.0618 0.3928 0.0000 ( 11494 PWs)   bands (ev):

   -19.0435 -10.4971  -7.2770  -5.8131   3.6416   5.0804   6.4453   6.7065

     occupation numbers 
     1.0000   1.0000   1.0000   1.0000   0.0000   0.0000   0.0000   0.0000

          k = 0.0618 0.4642 0.0000 ( 11497 PWs)   bands (ev):

   -18.4389 -11.5830  -7.6008  -4.9423   2.4807   6.3131   7.7856   7.8056

     occupation numbers 
     1.0000   1.0000   1.0000   1.0000   0.0000   0.0000   0.0000   0.0000

          k = 0.0618 0.5356 0.0000 ( 11485 PWs)   bands (ev):

   -18.0311 -12.2399  -7.7672  -4.3263   1.6704   7.0236   8.7721   9.4042

     occupation numbers 
     1.0000   1.0000   1.0000   1.0000   0.0000   0.0000   0.0000   0.0000

          k = 0.1237 0.2142 0.0000 ( 11436 PWs)   bands (ev):

   -20.2935  -7.5432  -7.5274  -6.3272   2.8280   3.7062   4.3751   5.8693

     occupation numbers 
     1.0000   1.0000   1.0000   1.0000   0.0000   0.0000   0.0000   0.0000

          k = 0.1237 0.2856 0.0000 ( 11490 PWs)   bands (ev):

   -19.8008  -8.6658  -7.0196  -6.8687   3.6911   4.3230   5.2570   5.8427

     occupation numbers 
     1.0000   1.0000   1.0000   1.0000   0.0000   0.0000   0.0000   0.0000

          k = 0.1237 0.3570 0.0000 ( 11500 PWs)   bands (ev):

   -19.2140  -9.8814  -7.6044  -6.0550   4.0659   4.7786   6.1522   6.3801

     occupation numbers 
     1.0000   1.0000   1.0000   1.0000   0.0000   0.0000   0.0000   0.0000

          k = 0.1237 0.4285 0.0000 ( 11510 PWs)   bands (ev):

   -18.5968 -11.0141  -8.0365  -5.1778   2.9941   6.0566   7.3261   7.7098

     occupation numbers 
     1.0000   1.0000   1.0000   1.0000   0.0000   0.0000   0.0000   0.0000

          k = 0.1237 0.4999 0.0000 ( 11517 PWs)   bands (ev):

   -18.0775 -11.8671  -8.3005  -4.4073   2.0026   7.3498   8.7559   8.7973

     occupation numbers 
     1.0000   1.0000   1.0000   1.0000   0.0000   0.0000   0.0000   0.0000

          k = 0.1237 0.5713 0.0000 ( 11508 PWs)   bands (ev):

   -17.8618 -12.1979  -8.3892  -4.0714   1.5815   7.8995   9.5960  10.0310

     occupation numbers 
     1.0000   1.0000   1.0000   1.0000   0.0000   0.0000   0.0000   0.0000

          k = 0.1855 0.3213 0.0000 ( 11480 PWs)   bands (ev):

   -19.2724  -9.5620  -7.8403  -6.1375   4.2163   4.6757   6.0731   6.2657

     occupation numbers 
     1.0000   1.0000   1.0000   1.0000   0.0000   0.0000   0.0000   0.0000

          k = 0.1855 0.3928 0.0000 ( 11513 PWs)   bands (ev):

   -18.6827 -10.5075  -8.5094  -5.3050   3.3365   5.8821   7.0863   7.5158

     occupation numbers 
     1.0000   1.0000   1.0000   1.0000   0.0000   0.0000   0.0000   0.0000

          k = 0.1855 0.4642 0.0000 ( 11533 PWs)   bands (ev):

   -18.1221 -11.3681  -8.9492  -4.4838   2.3601   7.2698   8.4000   8.9695

     occupation numbers 
     1.0000   1.0000   1.0000   1.0000   0.0000   0.0000   0.0000   0.0000

          k = 0.1855 0.5356 0.0000 ( 11513 PWs)   bands (ev):

   -17.7522 -11.9089  -9.1636  -3.9117   1.6856   8.6156   9.6174   9.9017

     occupation numbers 
     1.0000   1.0000   1.0000   1.0000   0.0000   0.0000   0.0000   0.0000

          k = 0.2474 0.4285 0.0000 ( 11496 PWs)   bands (ev):

   -18.1400 -11.0706  -9.3059  -4.5144   2.5180   7.1976   8.2587   8.8895

     occupation numbers 
     1.0000   1.0000   1.0000   1.0000   0.0000   0.0000   0.0000   0.0000

          k = 0.2474 0.4999 0.0000 ( 11505 PWs)   bands (ev):

   -17.7020 -11.5229  -9.8193  -3.8419   1.8239   8.6562   9.2348  10.4227

     occupation numbers 
     1.0000   1.0000   1.0000   1.0000   0.0000   0.0000   0.0000   0.0000

          k = 0.2474 0.5713 0.0000 ( 11488 PWs)   bands (ev):

   -17.5268 -11.7093  -9.9897  -3.5580   1.5321   9.4447   9.7244  10.6376

     occupation numbers 
     1.0000   1.0000   1.0000   1.0000   0.0000   0.0000   0.0000   0.0000

          k = 0.3092 0.5356 0.0000 ( 11482 PWs)   bands (ev):

   -17.4466 -11.4959 -10.4255  -3.4297   1.4929   9.2277   9.9627  11.2365

     occupation numbers 
     1.0000   1.0000   1.0000   1.0000   0.0000   0.0000   0.0000   0.0000

     the Fermi energy is    -0.7538 ev

!    total energy              =     -26.81526806 Ry
     estimated scf accuracy    <       0.00000069 Ry
     smearing contrib. (-TS)   =       0.00000000 Ry
     internal energy E=F+TS    =     -26.81526806 Ry

     The total energy is F=E-TS. E is the sum of the following terms:
     one-electron contribution =    -155.12197184 Ry
     hartree contribution      =      79.38657194 Ry
     xc contribution           =      -8.70660894 Ry
     ewald contribution        =      57.62674078 Ry

     convergence has been achieved in  13 iterations

     Forces acting on atoms (cartesian axes, Ry/au):

     atom    1 type  2   force =    -0.00000000   -0.00000000    0.00000000
     atom    2 type  1   force =     0.00000000    0.00000000    0.00000000
     The non-local contrib.  to forces
     atom    1 type  2   force =     0.00000000    0.00000000    0.00000000
     atom    2 type  1   force =     0.00000000    0.00000000    0.00000000
     The ionic contribution  to forces
     atom    1 type  2   force =    -0.00000001    0.00000000   -0.00000000
     atom    2 type  1   force =     0.00000001   -0.00000000   -0.00000000
     The local contribution  to forces
     atom    1 type  2   force =     0.00000000   -0.00000000    0.00000000
     atom    2 type  1   force =     0.00000003   -0.00000002    0.00000000
     The core correction contribution to forces
     atom    1 type  2   force =    -0.00000000   -0.00000000   -0.00000000
     atom    2 type  1   force =    -0.00000000    0.00000000   -0.00000000
     The Hubbard contrib.    to forces
     atom    1 type  2   force =     0.00000000    0.00000000    0.00000000
     atom    2 type  1   force =     0.00000000    0.00000000    0.00000000
     The SCF correction term to forces
     atom    1 type  2   force =    -0.00000000    0.00000000    0.00000000
     atom    2 type  1   force =    -0.00000000    0.00000000    0.00000000

     Total force =     0.000000     Total SCF correction =     0.000000


     Computing stress (Cartesian axis) and pressure

          total   stress  (Ry/bohr**3)                   (kbar)     P=       22.16
   0.00022442  -0.00000000  -0.00000000           33.01       -0.00       -0.00
  -0.00000000   0.00022442   0.00000000           -0.00       33.01        0.00
  -0.00000000   0.00000000   0.00000315           -0.00        0.00        0.46

     kinetic stress (kbar)   3405.69     -0.00      0.00
                               -0.00   3405.69      0.00
                                0.00      0.00   3697.50

     local   stress (kbar) -45292.64      0.00      0.00
                                0.00 -45292.64      0.00
                                0.00      0.00  45842.29

     nonloc. stress (kbar)   -565.70      0.00      0.00
                                0.00   -565.70     -0.00
                                0.00     -0.00   -544.09

     hartree stress (kbar)  21528.57     -0.00     -0.00
                               -0.00  21528.57     -0.00
                               -0.00     -0.00 -20959.33

     exc-cor stress (kbar)   -338.24     -0.00     -0.00
                               -0.00   -338.24      0.00
                               -0.00      0.00   -363.74

     corecor stress (kbar)   -376.56      0.00      0.00
                                0.00   -376.56     -0.00
                                0.00     -0.00   -369.17

     ewald   stress (kbar)  21671.90     -0.00     -0.00
                               -0.00  21671.90     -0.00
                               -0.00     -0.00 -27302.99

     hubbard stress (kbar)      0.00      0.00      0.00
                                0.00      0.00      0.00
                                0.00      0.00      0.00

     DFT-D   stress (kbar)      0.00      0.00      0.00
                                0.00      0.00      0.00
                                0.00      0.00      0.00

     XDM     stress (kbar)      0.00      0.00      0.00
                                0.00      0.00      0.00
                                0.00      0.00      0.00

     dft-nl  stress (kbar)      0.00      0.00      0.00
                                0.00      0.00      0.00
                                0.00      0.00      0.00

     TS-vdW  stress (kbar)      0.00      0.00      0.00
                                0.00      0.00      0.00
                                0.00      0.00      0.00

     MDB     stress (kbar)      0.00      0.00      0.00
                                0.00      0.00      0.00
                                0.00      0.00      0.00

     3D-RISM stress (kbar)      0.00      0.00      0.00
                                0.00      0.00      0.00
                                0.00      0.00      0.00

     Energy error            =      3.6E-03 Ry
     Gradient error          =      2.7E-25 Ry/Bohr
     Cell gradient error     =      3.3E+01 kbar

     number of scf cycles    =   2
     number of bfgs steps    =   1

     enthalpy           old  =     -26.8117121402 Ry
     enthalpy           new  =     -26.8152680606 Ry

     CASE: enthalpy          _new < enthalpy          _old

     new trust radius        =       0.0531874149 bohr
     new conv_thr            =       0.0000000100 Ry

     new unit-cell volume =    540.86400 a.u.^3 (    80.14778 Ang^3 )
     density =      0.51398 g/cm^3

CELL_PARAMETERS (alat=  4.63500000)
   1.022319484  -0.000000000  -0.000000000
  -0.511159742   0.885354644   0.000000000
  -0.000000000   0.000000000   6.001156464

ATOMIC_POSITIONS (crystal)
B            -0.0000000000       -0.0000000000       -0.0000000000
N             0.3333333330        0.6666666670        0.0000000000



     Writing config-only to output data dir ./tmp/hBN_1l_PBE.save/
     NEW-OLD atomic charge density approx. for the potential

     negative rho (up, down):  9.773E-07 0.000E+00
     extrapolated charge    8.18322, renormalised to    8.00000

     total cpu time spent up to now is      115.3 secs

     Self-consistent Calculation

     iteration #  1     ecut=   120.00 Ry     beta= 0.70
     Davidson diagonalization with overlap

---- Real-time Memory Report at c_bands before calling an iterative solver
             0 MiB given to the printing process from OS
             0 MiB allocation reported by mallinfo(arena+hblkhd)
             0 MiB available memory on the node where the printing process lives
------------------
     c_bands:  1 eigenvalues not converged
     c_bands:  1 eigenvalues not converged
     c_bands:  1 eigenvalues not converged
     c_bands:  1 eigenvalues not converged
     ethr =  1.00E-06,  avg # of iterations = 12.3

     total cpu time spent up to now is      123.7 secs

     total energy              =     -25.95571231 Ry
     estimated scf accuracy    <       0.77368147 Ry

     iteration #  2     ecut=   120.00 Ry     beta= 0.70
     Davidson diagonalization with overlap

---- Real-time Memory Report at c_bands before calling an iterative solver
             0 MiB given to the printing process from OS
             0 MiB allocation reported by mallinfo(arena+hblkhd)
             0 MiB available memory on the node where the printing process lives
------------------
     ethr =  9.67E-03,  avg # of iterations =  5.4

     total cpu time spent up to now is      128.0 secs

     total energy              =     -26.89145767 Ry
     estimated scf accuracy    <       0.70013481 Ry

     iteration #  3     ecut=   120.00 Ry     beta= 0.70
     Davidson diagonalization with overlap

---- Real-time Memory Report at c_bands before calling an iterative solver
             0 MiB given to the printing process from OS
             0 MiB allocation reported by mallinfo(arena+hblkhd)
             0 MiB available memory on the node where the printing process lives
------------------
     ethr =  8.75E-03,  avg # of iterations =  1.1

     total cpu time spent up to now is      130.3 secs

     total energy              =     -26.87871221 Ry
     estimated scf accuracy    <       0.15158965 Ry

     iteration #  4     ecut=   120.00 Ry     beta= 0.70
     Davidson diagonalization with overlap

---- Real-time Memory Report at c_bands before calling an iterative solver
             0 MiB given to the printing process from OS
             0 MiB allocation reported by mallinfo(arena+hblkhd)
             0 MiB available memory on the node where the printing process lives
------------------
     ethr =  1.89E-03,  avg # of iterations =  2.9

     total cpu time spent up to now is      132.9 secs

     total energy              =     -26.84183270 Ry
     estimated scf accuracy    <       0.08486316 Ry

     iteration #  5     ecut=   120.00 Ry     beta= 0.70
     Davidson diagonalization with overlap

---- Real-time Memory Report at c_bands before calling an iterative solver
             0 MiB given to the printing process from OS
             0 MiB allocation reported by mallinfo(arena+hblkhd)
             0 MiB available memory on the node where the printing process lives
------------------
     ethr =  1.06E-03,  avg # of iterations =  3.6

     total cpu time spent up to now is      135.8 secs

     total energy              =     -26.83709725 Ry
     estimated scf accuracy    <       0.03642422 Ry

     iteration #  6     ecut=   120.00 Ry     beta= 0.70
     Davidson diagonalization with overlap

---- Real-time Memory Report at c_bands before calling an iterative solver
             0 MiB given to the printing process from OS
             0 MiB allocation reported by mallinfo(arena+hblkhd)
             0 MiB available memory on the node where the printing process lives
------------------
     ethr =  4.55E-04,  avg # of iterations =  1.8

     total cpu time spent up to now is      138.2 secs

     total energy              =     -26.81882747 Ry
     estimated scf accuracy    <       0.02901301 Ry

     iteration #  7     ecut=   120.00 Ry     beta= 0.70
     Davidson diagonalization with overlap

---- Real-time Memory Report at c_bands before calling an iterative solver
             0 MiB given to the printing process from OS
             0 MiB allocation reported by mallinfo(arena+hblkhd)
             0 MiB available memory on the node where the printing process lives
------------------
     ethr =  3.63E-04,  avg # of iterations =  6.1

     total cpu time spent up to now is      141.5 secs

     total energy              =     -26.82061815 Ry
     estimated scf accuracy    <       0.00498127 Ry

     iteration #  8     ecut=   120.00 Ry     beta= 0.70
     Davidson diagonalization with overlap

---- Real-time Memory Report at c_bands before calling an iterative solver
             0 MiB given to the printing process from OS
             0 MiB allocation reported by mallinfo(arena+hblkhd)
             0 MiB available memory on the node where the printing process lives
------------------
     ethr =  6.23E-05,  avg # of iterations =  2.0

     total cpu time spent up to now is      144.0 secs

     total energy              =     -26.81756296 Ry
     estimated scf accuracy    <       0.00645504 Ry

     iteration #  9     ecut=   120.00 Ry     beta= 0.70
     Davidson diagonalization with overlap

---- Real-time Memory Report at c_bands before calling an iterative solver
             0 MiB given to the printing process from OS
             0 MiB allocation reported by mallinfo(arena+hblkhd)
             0 MiB available memory on the node where the printing process lives
------------------
     ethr =  6.23E-05,  avg # of iterations =  5.2

     total cpu time spent up to now is      147.1 secs

     total energy              =     -26.81664246 Ry
     estimated scf accuracy    <       0.00195245 Ry

     iteration # 10     ecut=   120.00 Ry     beta= 0.70
     Davidson diagonalization with overlap

---- Real-time Memory Report at c_bands before calling an iterative solver
             0 MiB given to the printing process from OS
             0 MiB allocation reported by mallinfo(arena+hblkhd)
             0 MiB available memory on the node where the printing process lives
------------------
     ethr =  2.44E-05,  avg # of iterations =  5.6

     total cpu time spent up to now is      150.2 secs

     total energy              =     -26.81673976 Ry
     estimated scf accuracy    <       0.00011225 Ry

     iteration # 11     ecut=   120.00 Ry     beta= 0.70
     Davidson diagonalization with overlap

---- Real-time Memory Report at c_bands before calling an iterative solver
             0 MiB given to the printing process from OS
             0 MiB allocation reported by mallinfo(arena+hblkhd)
             0 MiB available memory on the node where the printing process lives
------------------
     ethr =  1.40E-06,  avg # of iterations =  7.6

     total cpu time spent up to now is      154.2 secs

     total energy              =     -26.81675269 Ry
     estimated scf accuracy    <       0.00000015 Ry

     iteration # 12     ecut=   120.00 Ry     beta= 0.70
     Davidson diagonalization with overlap

---- Real-time Memory Report at c_bands before calling an iterative solver
             0 MiB given to the printing process from OS
             0 MiB allocation reported by mallinfo(arena+hblkhd)
             0 MiB available memory on the node where the printing process lives
------------------
     ethr =  1.88E-09,  avg # of iterations =  4.4

     total cpu time spent up to now is      157.7 secs

     total energy              =     -26.81675336 Ry
     estimated scf accuracy    <       0.00000017 Ry

     iteration # 13     ecut=   120.00 Ry     beta= 0.70
     Davidson diagonalization with overlap

---- Real-time Memory Report at c_bands before calling an iterative solver
             0 MiB given to the printing process from OS
             0 MiB allocation reported by mallinfo(arena+hblkhd)
             0 MiB available memory on the node where the printing process lives
------------------
     ethr =  1.88E-09,  avg # of iterations =  1.1

     total cpu time spent up to now is      160.1 secs

     total energy              =     -26.81675330 Ry
     estimated scf accuracy    <       0.00000024 Ry

     iteration # 14     ecut=   120.00 Ry     beta= 0.70
     Davidson diagonalization with overlap

---- Real-time Memory Report at c_bands before calling an iterative solver
             0 MiB given to the printing process from OS
             0 MiB allocation reported by mallinfo(arena+hblkhd)
             0 MiB available memory on the node where the printing process lives
------------------
     ethr =  1.88E-09,  avg # of iterations =  1.0

     total cpu time spent up to now is      162.5 secs

     total energy              =     -26.81675333 Ry
     estimated scf accuracy    <       0.00000013 Ry

     iteration # 15     ecut=   120.00 Ry     beta= 0.70
     Davidson diagonalization with overlap

---- Real-time Memory Report at c_bands before calling an iterative solver
             0 MiB given to the printing process from OS
             0 MiB allocation reported by mallinfo(arena+hblkhd)
             0 MiB available memory on the node where the printing process lives
------------------
     ethr =  1.67E-09,  avg # of iterations =  1.0

     total cpu time spent up to now is      164.7 secs

     total energy              =     -26.81675328 Ry
     estimated scf accuracy    <       0.00000015 Ry

     iteration # 16     ecut=   120.00 Ry     beta= 0.70
     Davidson diagonalization with overlap

---- Real-time Memory Report at c_bands before calling an iterative solver
             0 MiB given to the printing process from OS
             0 MiB allocation reported by mallinfo(arena+hblkhd)
             0 MiB available memory on the node where the printing process lives
------------------
     ethr =  1.67E-09,  avg # of iterations =  1.1

     total cpu time spent up to now is      166.9 secs

     total energy              =     -26.81675328 Ry
     estimated scf accuracy    <       0.00000002 Ry

     iteration # 17     ecut=   120.00 Ry     beta= 0.70
     Davidson diagonalization with overlap

---- Real-time Memory Report at c_bands before calling an iterative solver
             0 MiB given to the printing process from OS
             0 MiB allocation reported by mallinfo(arena+hblkhd)
             0 MiB available memory on the node where the printing process lives
------------------
     ethr =  2.58E-10,  avg # of iterations =  2.7

     total cpu time spent up to now is      169.6 secs

     End of self-consistent calculation

          k = 0.0000 0.0000 0.0000 ( 11233 PWs)   bands (ev):

   -21.0675  -8.6629  -4.7959  -4.7959   1.2585   2.2725   2.8261   4.7082

     occupation numbers 
     1.0000   1.0000   1.0000   1.0000   0.0000   0.0000   0.0000   0.0000

          k = 0.0000 0.0706 0.0000 ( 11404 PWs)   bands (ev):

   -20.9925  -8.5619  -5.1158  -4.9445   1.3882   2.3901   2.9521   4.8169

     occupation numbers 
     1.0000   1.0000   1.0000   1.0000   0.0000   0.0000   0.0000   0.0000

          k = 0.0000 0.1412 0.0000 ( 11440 PWs)   bands (ev):

   -20.7696  -8.2616  -5.9792  -5.3384   1.7669   2.7393   3.3269   5.1302

     occupation numbers 
     1.0000   1.0000   1.0000   1.0000   0.0000   0.0000   0.0000   0.0000

          k = 0.0000 0.2118 0.0000 ( 11430 PWs)   bands (ev):

   -20.4062  -7.7703  -7.1836  -5.8640   2.3784   3.3025   3.9446   5.5656

     occupation numbers 
     1.0000   1.0000   1.0000   1.0000   0.0000   0.0000   0.0000   0.0000

          k = 0.0000 0.2824 0.0000 ( 11476 PWs)   bands (ev):

   -19.9181  -8.5368  -7.1056  -6.4103   3.2109   3.9766   4.7983   5.6685

     occupation numbers 
     1.0000   1.0000   1.0000   1.0000   0.0000   0.0000   0.0000   0.0000

          k = 0.0000 0.3530 0.0000 ( 11494 PWs)   bands (ev):

   -19.3361  -9.8855  -6.8972  -6.3025   3.9352   4.2425   5.7476   5.8654

     occupation numbers 
     1.0000   1.0000   1.0000   1.0000   0.0000   0.0000   0.0000   0.0000

          k = 0.0000 0.4236 0.0000 ( 11534 PWs)   bands (ev):

   -18.7231 -11.0899  -7.2737  -5.4353   2.8501   5.3786   6.8552   6.9123

     occupation numbers 
     1.0000   1.0000   1.0000   1.0000   0.0000   0.0000   0.0000   0.0000

          k = 0.0000 0.4942 0.0000 ( 11512 PWs)   bands (ev):

   -18.2064 -11.9773  -7.5099  -4.6721   1.8196   6.1771   7.7536   8.3316

     occupation numbers 
     1.0000   1.0000   1.0000   1.0000   0.0000   0.0000   0.0000   0.0000

          k =-0.0000-0.5647-0.0000 ( 11502 PWs)   bands (ev):

   -17.9913 -12.3183  -7.5902  -4.3390   1.3844   6.3491   9.0360   9.7421

     occupation numbers 
     1.0000   1.0000   1.0000   1.0000   0.0000   0.0000   0.0000   0.0000

          k = 0.0611 0.1059 0.0000 ( 11424 PWs)   bands (ev):

   -20.8435  -8.3613  -5.6833  -5.2400   1.6425   2.6236   3.2026   5.0285

     occupation numbers 
     1.0000   1.0000   1.0000   1.0000   0.0000   0.0000   0.0000   0.0000

          k = 0.0611 0.1765 0.0000 ( 11438 PWs)   bands (ev):

   -20.5502  -7.9652  -6.6685  -5.7486   2.1387   3.0813   3.6997   5.4122

     occupation numbers 
     1.0000   1.0000   1.0000   1.0000   0.0000   0.0000   0.0000   0.0000

          k = 0.0611 0.2471 0.0000 ( 11461 PWs)   bands (ev):

   -20.1236  -7.9065  -7.3863  -6.3260   2.8642   3.7191   4.4379   5.7319

     occupation numbers 
     1.0000   1.0000   1.0000   1.0000   0.0000   0.0000   0.0000   0.0000

          k = 0.0611 0.3177 0.0000 ( 11475 PWs)   bands (ev):

   -19.5859  -9.2324  -6.8696  -6.6493   3.8063   4.1716   5.4087   5.5769

     occupation numbers 
     1.0000   1.0000   1.0000   1.0000   0.0000   0.0000   0.0000   0.0000

          k = 0.0611 0.3883 0.0000 ( 11494 PWs)   bands (ev):

   -18.9812 -10.4994  -7.3170  -5.8049   3.4097   4.9300   6.3088   6.5658

     occupation numbers 
     1.0000   1.0000   1.0000   1.0000   0.0000   0.0000   0.0000   0.0000

          k = 0.0611 0.4589 0.0000 ( 11497 PWs)   bands (ev):

   -18.3994 -11.5529  -7.6317  -4.9642   2.2871   6.0605   7.4748   7.6405

     occupation numbers 
     1.0000   1.0000   1.0000   1.0000   0.0000   0.0000   0.0000   0.0000

          k = 0.0611 0.5294 0.0000 ( 11485 PWs)   bands (ev):

   -18.0099 -12.1865  -7.7935  -4.3721   1.5093   6.6126   8.5346   9.1949

     occupation numbers 
     1.0000   1.0000   1.0000   1.0000   0.0000   0.0000   0.0000   0.0000

          k = 0.1223 0.2118 0.0000 ( 11436 PWs)   bands (ev):

   -20.1930  -7.6012  -7.4809  -6.3958   2.7511   3.6216   4.3190   5.7235

     occupation numbers 
     1.0000   1.0000   1.0000   1.0000   0.0000   0.0000   0.0000   0.0000

          k = 0.1223 0.2824 0.0000 ( 11490 PWs)   bands (ev):

   -19.7144  -8.7141  -7.0704  -6.8268   3.5938   4.1754   5.1800   5.6296

     occupation numbers 
     1.0000   1.0000   1.0000   1.0000   0.0000   0.0000   0.0000   0.0000

          k = 0.1223 0.3530 0.0000 ( 11500 PWs)   bands (ev):

   -19.1459  -9.8983  -7.6416  -6.0386   3.8238   4.6516   6.0138   6.2730

     occupation numbers 
     1.0000   1.0000   1.0000   1.0000   0.0000   0.0000   0.0000   0.0000

          k = 0.1223 0.4236 0.0000 ( 11510 PWs)   bands (ev):

   -18.5508 -10.9977  -8.0640  -5.1908   2.7764   5.8820   7.5395   8.4051

     occupation numbers 
     1.0000   1.0000   1.0000   1.0000   0.0000   0.0000   0.0000   0.0000

          k = 0.1223 0.4942 0.0000 ( 11517 PWs)   bands (ev):

   -18.0536 -11.8211  -8.3220  -4.4488   1.8229   7.0579   8.4231   8.6040

     occupation numbers 
     1.0000   1.0000   1.0000   1.0000   0.0000   0.0000   0.0000   0.0000

          k = 0.1223 0.5647 0.0000 ( 11508 PWs)   bands (ev):

   -17.8485 -12.1387  -8.4087  -4.1266   1.4196   7.4788   9.3547   9.7897

     occupation numbers 
     1.0000   1.0000   1.0000   1.0000   0.0000   0.0000   0.0000   0.0000

          k = 0.1834 0.3177 0.0000 ( 11480 PWs)   bands (ev):

   -19.2023  -9.5867  -7.8736  -6.1184   3.9731   4.5551   5.9302   6.1651

     occupation numbers 
     1.0000   1.0000   1.0000   1.0000   0.0000   0.0000   0.0000   0.0000

          k = 0.1834 0.3883 0.0000 ( 11513 PWs)   bands (ev):

   -18.6332 -10.5018  -8.5312  -5.3132   3.1016   5.7293   6.9365   7.3829

     occupation numbers 
     1.0000   1.0000   1.0000   1.0000   0.0000   0.0000   0.0000   0.0000

          k = 0.1834 0.4589 0.0000 ( 11533 PWs)   bands (ev):

   -18.0956 -11.3303  -8.9647  -4.5213   2.1592   7.0672   8.2163   8.7727

     occupation numbers 
     1.0000   1.0000   1.0000   1.0000   0.0000   0.0000   0.0000   0.0000

          k = 0.1834 0.5294 0.0000 ( 11513 PWs)   bands (ev):

   -17.7437 -11.8480  -9.1762  -3.9718   1.5121   8.2912   9.3920   9.5653

     occupation numbers 
     1.0000   1.0000   1.0000   1.0000   0.0000   0.0000   0.0000   0.0000

          k = 0.2445 0.4236 0.0000 ( 11496 PWs)   bands (ev):

   -18.1125 -11.0361  -9.3190  -4.5503   2.3072   7.0097   8.0784   8.7218

     occupation numbers 
     1.0000   1.0000   1.0000   1.0000   0.0000   0.0000   0.0000   0.0000

          k = 0.2445 0.4942 0.0000 ( 11505 PWs)   bands (ev):

   -17.6955 -11.4587  -9.8310  -3.9036   1.6382   8.4118   9.0251  10.1602

     occupation numbers 
     1.0000   1.0000   1.0000   1.0000   0.0000   0.0000   0.0000   0.0000

          k = 0.2445 0.5647 0.0000 ( 11488 PWs)   bands (ev):

   -17.5299 -11.6316 -10.0019  -3.6314   1.3582   9.2338   9.3683  10.3667

     occupation numbers 
     1.0000   1.0000   1.0000   1.0000   0.0000   0.0000   0.0000   0.0000

          k = 0.3057 0.5294 0.0000 ( 11482 PWs)   bands (ev):

   -17.4539 -11.3963 -10.4534  -3.5080   1.3175   9.0298   9.6317  10.9113

     occupation numbers 
     1.0000   1.0000   1.0000   1.0000   0.0000   0.0000   0.0000   0.0000

     the Fermi energy is    -0.9107 ev

!    total energy              =     -26.81675329 Ry
     estimated scf accuracy    <          1.6E-09 Ry
     smearing contrib. (-TS)   =       0.00000000 Ry
     internal energy E=F+TS    =     -26.81675329 Ry

     The total energy is F=E-TS. E is the sum of the following terms:
     one-electron contribution =    -151.65239735 Ry
     hartree contribution      =      77.62092737 Ry
     xc contribution           =      -8.66004638 Ry
     ewald contribution        =      55.87476306 Ry

     convergence has been achieved in  17 iterations

     Forces acting on atoms (cartesian axes, Ry/au):

     atom    1 type  2   force =     0.00000000    0.00000000    0.00000000
     atom    2 type  1   force =     0.00000000    0.00000000    0.00000000
     The non-local contrib.  to forces
     atom    1 type  2   force =    -0.00000000   -0.00000000   -0.00000000
     atom    2 type  1   force =     0.00000000    0.00000000    0.00000000
     The ionic contribution  to forces
     atom    1 type  2   force =    -0.00000001    0.00000000    0.00000000
     atom    2 type  1   force =     0.00000001   -0.00000000   -0.00000000
     The local contribution  to forces
     atom    1 type  2   force =     0.00000000   -0.00000000   -0.00000000
     atom    2 type  1   force =     0.00000003   -0.00000002   -0.00000000
     The core correction contribution to forces
     atom    1 type  2   force =    -0.00000000   -0.00000000    0.00000000
     atom    2 type  1   force =    -0.00000000    0.00000000    0.00000000
     The Hubbard contrib.    to forces
     atom    1 type  2   force =     0.00000000    0.00000000    0.00000000
     atom    2 type  1   force =     0.00000000    0.00000000    0.00000000
     The SCF correction term to forces
     atom    1 type  2   force =    -0.00000000    0.00000000    0.00000000
     atom    2 type  1   force =    -0.00000000    0.00000000    0.00000000

     Total force =     0.000000     Total SCF correction =     0.000000


     Computing stress (Cartesian axis) and pressure

          total   stress  (Ry/bohr**3)                   (kbar)     P=        2.25
   0.00002290  -0.00000000  -0.00000000            3.37       -0.00       -0.00
  -0.00000000   0.00002290  -0.00000000           -0.00        3.37       -0.00
   0.00000000   0.00000000   0.00000005            0.00        0.00        0.01

     kinetic stress (kbar)   3289.33      0.00      0.00
                                0.00   3289.33     -0.00
                                0.00     -0.00   3591.65

     local   stress (kbar) -43230.74      0.00      0.00
                                0.00 -43230.74     -0.00
                                0.00     -0.00  43699.00

     nonloc. stress (kbar)   -541.76     -0.00     -0.00
                               -0.00   -541.76     -0.00
                               -0.00     -0.00   -525.89

     hartree stress (kbar)  20544.49     -0.00      0.00
                               -0.00  20544.49      0.00
                                0.00      0.00 -19977.51

     exc-cor stress (kbar)   -327.10     -0.00     -0.00
                               -0.00   -327.10      0.00
                               -0.00      0.00   -351.69

     corecor stress (kbar)   -366.97      0.00      0.00
                                0.00   -366.97     -0.00
                                0.00     -0.00   -360.24

     ewald   stress (kbar)  20636.11     -0.00     -0.00
                               -0.00  20636.11     -0.00
                               -0.00     -0.00 -26075.31

     hubbard stress (kbar)      0.00      0.00      0.00
                                0.00      0.00      0.00
                                0.00      0.00      0.00

     DFT-D   stress (kbar)      0.00      0.00      0.00
                                0.00      0.00      0.00
                                0.00      0.00      0.00

     XDM     stress (kbar)      0.00      0.00      0.00
                                0.00      0.00      0.00
                                0.00      0.00      0.00

     dft-nl  stress (kbar)      0.00      0.00      0.00
                                0.00      0.00      0.00
                                0.00      0.00      0.00

     TS-vdW  stress (kbar)      0.00      0.00      0.00
                                0.00      0.00      0.00
                                0.00      0.00      0.00

     MDB     stress (kbar)      0.00      0.00      0.00
                                0.00      0.00      0.00
                                0.00      0.00      0.00

     3D-RISM stress (kbar)      0.00      0.00      0.00
                                0.00      0.00      0.00
                                0.00      0.00      0.00

     Energy error            =      1.5E-03 Ry
     Gradient error          =      2.7E-25 Ry/Bohr
     Cell gradient error     =      3.4E+00 kbar

     number of scf cycles    =   3
     number of bfgs steps    =   2

     enthalpy           old  =     -26.8152680606 Ry
     enthalpy           new  =     -26.8167532912 Ry

     CASE: enthalpy          _new < enthalpy          _old

     new trust radius        =       0.0061228653 bohr
     new conv_thr            =       0.0000000100 Ry

     new unit-cell volume =    542.29498 a.u.^3 (    80.35982 Ang^3 )
     density =      0.51262 g/cm^3

CELL_PARAMETERS (alat=  4.63500000)
   1.023665243  -0.000000000  -0.000000000
  -0.511832621   0.886520105   0.000000000
  -0.000000000  -0.000000000   6.001223756

ATOMIC_POSITIONS (crystal)
B            -0.0000000000       -0.0000000000       -0.0000000000
N             0.3333333330        0.6666666670        0.0000000000



     Writing config-only to output data dir ./tmp/hBN_1l_PBE.save/
     NEW-OLD atomic charge density approx. for the potential

     negative rho (up, down):  7.406E-08 0.000E+00
     extrapolated charge    8.02111, renormalised to    8.00000

     total cpu time spent up to now is      189.0 secs

     Self-consistent Calculation

     iteration #  1     ecut=   120.00 Ry     beta= 0.70
     Davidson diagonalization with overlap

---- Real-time Memory Report at c_bands before calling an iterative solver
             0 MiB given to the printing process from OS
[...]
     estimated scf accuracy    <       0.39349724 Ry

     iteration #  2     ecut=   120.00 Ry     beta= 0.70
     Davidson diagonalization with overlap

---- Real-time Memory Report at c_bands before calling an iterative solver
             0 MiB given to the printing process from OS
             0 MiB allocation reported by mallinfo(arena+hblkhd)
             0 MiB available memory on the node where the printing process lives
------------------
     ethr =  4.92E-03,  avg # of iterations =  2.5

     negative rho (up, down):  4.786E-08 0.000E+00

     total cpu time spent up to now is      260.7 secs

     total energy              =     -26.78385960 Ry
     estimated scf accuracy    <       0.16950294 Ry

     iteration #  3     ecut=   120.00 Ry     beta= 0.70
     Davidson diagonalization with overlap

---- Real-time Memory Report at c_bands before calling an iterative solver
             0 MiB given to the printing process from OS
             0 MiB allocation reported by mallinfo(arena+hblkhd)
             0 MiB available memory on the node where the printing process lives
------------------
     ethr =  2.12E-03,  avg # of iterations =  2.3

     total cpu time spent up to now is      263.6 secs

     total energy              =     -26.81533926 Ry
     estimated scf accuracy    <       0.00164068 Ry

     iteration #  4     ecut=   120.00 Ry     beta= 0.70
     Davidson diagonalization with overlap

---- Real-time Memory Report at c_bands before calling an iterative solver
             0 MiB given to the printing process from OS
             0 MiB allocation reported by mallinfo(arena+hblkhd)
             0 MiB available memory on the node where the printing process lives
------------------
     ethr =  2.05E-05,  avg # of iterations =  9.1

     total cpu time spent up to now is      269.1 secs

     total energy              =     -26.81659834 Ry
     estimated scf accuracy    <       0.00086211 Ry

     iteration #  5     ecut=   120.00 Ry     beta= 0.70
     Davidson diagonalization with overlap

---- Real-time Memory Report at c_bands before calling an iterative solver
             0 MiB given to the printing process from OS
             0 MiB allocation reported by mallinfo(arena+hblkhd)
             0 MiB available memory on the node where the printing process lives
------------------
     ethr =  1.08E-05,  avg # of iterations =  1.9

     total cpu time spent up to now is      271.6 secs

     total energy              =     -26.81676586 Ry
     estimated scf accuracy    <       0.00000816 Ry

     iteration #  6     ecut=   120.00 Ry     beta= 0.70
     Davidson diagonalization with overlap

---- Real-time Memory Report at c_bands before calling an iterative solver
             0 MiB given to the printing process from OS
             0 MiB allocation reported by mallinfo(arena+hblkhd)
             0 MiB available memory on the node where the printing process lives
------------------
     ethr =  1.02E-07,  avg # of iterations =  4.7

     total cpu time spent up to now is      275.5 secs

     total energy              =     -26.81677016 Ry
     estimated scf accuracy    <       0.00001296 Ry

     iteration #  7     ecut=   120.00 Ry     beta= 0.70
     Davidson diagonalization with overlap

---- Real-time Memory Report at c_bands before calling an iterative solver
             0 MiB given to the printing process from OS
             0 MiB allocation reported by mallinfo(arena+hblkhd)
             0 MiB available memory on the node where the printing process lives
------------------
     ethr =  1.02E-07,  avg # of iterations =  2.0

     total cpu time spent up to now is      278.3 secs

     total energy              =     -26.81677112 Ry
     estimated scf accuracy    <       0.00000077 Ry

     iteration #  8     ecut=   120.00 Ry     beta= 0.70
     Davidson diagonalization with overlap

---- Real-time Memory Report at c_bands before calling an iterative solver
             0 MiB given to the printing process from OS
             0 MiB allocation reported by mallinfo(arena+hblkhd)
             0 MiB available memory on the node where the printing process lives
------------------
     ethr =  9.63E-09,  avg # of iterations =  3.4

     total cpu time spent up to now is      281.8 secs

     total energy              =     -26.81677148 Ry
     estimated scf accuracy    <       0.00000020 Ry

     iteration #  9     ecut=   120.00 Ry     beta= 0.70
     Davidson diagonalization with overlap

---- Real-time Memory Report at c_bands before calling an iterative solver
             0 MiB given to the printing process from OS
             0 MiB allocation reported by mallinfo(arena+hblkhd)
             0 MiB available memory on the node where the printing process lives
------------------
     ethr =  2.54E-09,  avg # of iterations =  1.6

     total cpu time spent up to now is      284.4 secs

     End of self-consistent calculation

          k = 0.0000 0.0000 0.0000 ( 12067 PWs)   bands (ev):

   -21.0536  -8.6520  -4.8097  -4.8097   1.2532   2.2683   2.8316   4.7049

     occupation numbers 
     1.0000   1.0000   1.0000   1.0000   0.0000   0.0000   0.0000   0.0000

          k = 0.0000 0.0705 0.0000 ( 12061 PWs)   bands (ev):

   -20.9788  -8.5514  -5.1291  -4.9576   1.3827   2.3855   2.9574   4.8132

     occupation numbers 
     1.0000   1.0000   1.0000   1.0000   0.0000   0.0000   0.0000   0.0000

          k = 0.0000 0.1410 0.0000 ( 12065 PWs)   bands (ev):

   -20.7565  -8.2521  -5.9910  -5.3500   1.7607   2.7335   3.3313   5.1244

     occupation numbers 
     1.0000   1.0000   1.0000   1.0000   0.0000   0.0000   0.0000   0.0000

          k = 0.0000 0.2115 0.0000 ( 12056 PWs)   bands (ev):

   -20.3943  -7.7624  -7.1929  -5.8735   2.3706   3.2945   3.9472   5.5543

     occupation numbers 
     1.0000   1.0000   1.0000   1.0000   0.0000   0.0000   0.0000   0.0000

          k = 0.0000 0.2820 0.0000 ( 12024 PWs)   bands (ev):

   -19.9078  -8.5428  -7.1000  -6.4178   3.2006   3.9633   4.7982   5.6448

     occupation numbers 
     1.0000   1.0000   1.0000   1.0000   0.0000   0.0000   0.0000   0.0000

          k = 0.0000 0.3525 0.0000 ( 12026 PWs)   bands (ev):

   -19.3279  -9.8878  -6.9029  -6.2998   3.9091   4.2279   5.7319   5.8599

     occupation numbers 
     1.0000   1.0000   1.0000   1.0000   0.0000   0.0000   0.0000   0.0000

          k = 0.0000 0.4230 0.0000 ( 12032 PWs)   bands (ev):

   -18.7173 -11.0884  -7.2781  -5.4360   2.8259   5.3551   6.8388   6.8838

     occupation numbers 
     1.0000   1.0000   1.0000   1.0000   0.0000   0.0000   0.0000   0.0000

          k = 0.0000 0.4935 0.0000 ( 12058 PWs)   bands (ev):

   -18.2031 -11.9725  -7.5134  -4.6761   1.8000   6.1346   7.7264   8.3110

     occupation numbers 
     1.0000   1.0000   1.0000   1.0000   0.0000   0.0000   0.0000   0.0000

          k =-0.0000-0.5640-0.0000 ( 12042 PWs)   bands (ev):

   -17.9893 -12.3120  -7.5935  -4.3445   1.3669   6.3001   9.0102   9.4563

     occupation numbers 
     1.0000   1.0000   1.0000   1.0000   0.0000   0.0000   0.0000   0.0000

          k = 0.0611 0.1058 0.0000 ( 12067 PWs)   bands (ev):

   -20.8302  -8.3514  -5.6956  -5.2519   1.6366   2.6182   3.2073   5.0235

     occupation numbers 
     1.0000   1.0000   1.0000   1.0000   0.0000   0.0000   0.0000   0.0000

          k = 0.0611 0.1763 0.0000 ( 12051 PWs)   bands (ev):

   -20.5378  -7.9567  -6.6789  -5.7586   2.1316   3.0742   3.7031   5.4036

     occupation numbers 
     1.0000   1.0000   1.0000   1.0000   0.0000   0.0000   0.0000   0.0000

          k = 0.0611 0.2468 0.0000 ( 12032 PWs)   bands (ev):

   -20.1126  -7.9141  -7.3797  -6.3339   2.8551   3.7087   4.4393   5.7127

     occupation numbers 
     1.0000   1.0000   1.0000   1.0000   0.0000   0.0000   0.0000   0.0000

          k = 0.0611 0.3173 0.0000 ( 12015 PWs)   bands (ev):

   -19.5767  -9.2365  -6.8757  -6.6454   3.7941   4.1502   5.4067   5.5566

     occupation numbers 
     1.0000   1.0000   1.0000   1.0000   0.0000   0.0000   0.0000   0.0000

          k = 0.0611 0.3878 0.0000 ( 12028 PWs)   bands (ev):

   -18.9743 -10.4997  -7.3216  -5.8041   3.3834   4.9126   6.2936   6.5554

     occupation numbers 
     1.0000   1.0000   1.0000   1.0000   0.0000   0.0000   0.0000   0.0000

          k = 0.0611 0.4583 0.0000 ( 12034 PWs)   bands (ev):

   -18.3951 -11.5495  -7.6352  -4.9669   2.2651   6.0302   7.4410   7.6219

     occupation numbers 
     1.0000   1.0000   1.0000   1.0000   0.0000   0.0000   0.0000   0.0000

          k = 0.0611 0.5288 0.0000 ( 12058 PWs)   bands (ev):

   -18.0077 -12.1805  -7.7965  -4.3774   1.4910   6.5653   8.5085   9.1714

     occupation numbers 
     1.0000   1.0000   1.0000   1.0000   0.0000   0.0000   0.0000   0.0000

          k = 0.1221 0.2115 0.0000 ( 12059 PWs)   bands (ev):

   -20.1818  -7.6096  -7.4741  -6.4036   2.7425   3.6119   4.3208   5.7066

     occupation numbers 
     1.0000   1.0000   1.0000   1.0000   0.0000   0.0000   0.0000   0.0000

          k = 0.1221 0.2820 0.0000 ( 12042 PWs)   bands (ev):

   -19.7047  -8.7197  -7.0762  -6.8222   3.5828   4.1579   5.1793   5.6059

     occupation numbers 
     1.0000   1.0000   1.0000   1.0000   0.0000   0.0000   0.0000   0.0000

          k = 0.1221 0.3525 0.0000 ( 12019 PWs)   bands (ev):

   -19.1383  -9.9003  -7.6458  -6.0369   3.7961   4.6372   5.9984   6.2686

     occupation numbers 
     1.0000   1.0000   1.0000   1.0000   0.0000   0.0000   0.0000   0.0000

          k = 0.1221 0.4230 0.0000 ( 12029 PWs)   bands (ev):

   -18.5457 -10.9959  -8.0671  -5.1924   2.7517   5.8619   7.1543   7.5254

     occupation numbers 
     1.0000   1.0000   1.0000   1.0000   0.0000   0.0000   0.0000   0.0000

          k = 0.1221 0.4935 0.0000 ( 12035 PWs)   bands (ev):

   -18.0510 -11.8160  -8.3244  -4.4536   1.8025   7.0230   8.3871   8.5822

     occupation numbers 
     1.0000   1.0000   1.0000   1.0000   0.0000   0.0000   0.0000   0.0000

          k = 0.1221 0.5640 0.0000 ( 12028 PWs)   bands (ev):

   -17.8471 -12.1321  -8.4109  -4.1329   1.4012   7.4305   9.3276   9.7624

     occupation numbers 
     1.0000   1.0000   1.0000   1.0000   0.0000   0.0000   0.0000   0.0000

          k = 0.1832 0.3173 0.0000 ( 12018 PWs)   bands (ev):

   -19.1945  -9.5897  -7.8773  -6.1164   3.9452   4.5415   5.9144   6.1617

     occupation numbers 
     1.0000   1.0000   1.0000   1.0000   0.0000   0.0000   0.0000   0.0000

          k = 0.1832 0.3878 0.0000 ( 12017 PWs)   bands (ev):

   -18.6278 -10.5014  -8.5336  -5.3143   3.0750   5.7120   6.9196   7.3757

     occupation numbers 
     1.0000   1.0000   1.0000   1.0000   0.0000   0.0000   0.0000   0.0000

          k = 0.1832 0.4583 0.0000 ( 12022 PWs)   bands (ev):

   -18.0928 -11.3262  -8.9664  -4.5257   2.1364   7.0438   8.1955   8.7550

     occupation numbers 
     1.0000   1.0000   1.0000   1.0000   0.0000   0.0000   0.0000   0.0000

          k = 0.1832 0.5288 0.0000 ( 12038 PWs)   bands (ev):

   -17.7429 -11.8413  -9.1775  -3.9787   1.4924   8.2528   9.3665   9.5283

     occupation numbers 
     1.0000   1.0000   1.0000   1.0000   0.0000   0.0000   0.0000   0.0000

          k = 0.2442 0.4230 0.0000 ( 12028 PWs)   bands (ev):

   -18.1096 -11.0324  -9.3203  -4.5545   2.2834   6.9883   8.0581   8.7102

     occupation numbers 
     1.0000   1.0000   1.0000   1.0000   0.0000   0.0000   0.0000   0.0000

          k = 0.2442 0.4935 0.0000 ( 12036 PWs)   bands (ev):

   -17.6949 -11.4517  -9.8321  -3.9107   1.6171   8.3837   9.0014  10.1327

     occupation numbers 
     1.0000   1.0000   1.0000   1.0000   0.0000   0.0000   0.0000   0.0000

          k = 0.2442 0.5640 0.0000 ( 12062 PWs)   bands (ev):

   -17.5303 -11.6232 -10.0030  -3.6399   1.3385   9.2100   9.3270  10.3359

     occupation numbers 
     1.0000   1.0000   1.0000   1.0000   0.0000   0.0000   0.0000   0.0000

          k = 0.3053 0.5288 0.0000 ( 12054 PWs)   bands (ev):

   -17.4549 -11.3854 -10.4562  -3.5170   1.2977   9.0075   9.5933  10.8747

     occupation numbers 
     1.0000   1.0000   1.0000   1.0000   0.0000   0.0000   0.0000   0.0000

     the Fermi energy is    -0.9283 ev

!    total energy              =     -26.81677150 Ry
     estimated scf accuracy    <          5.7E-09 Ry
     smearing contrib. (-TS)   =       0.00000000 Ry
     internal energy E=F+TS    =     -26.81677150 Ry

     The total energy is F=E-TS. E is the sum of the following terms:
     one-electron contribution =    -151.25989307 Ry
     hartree contribution      =      77.42147126 Ry
     xc contribution           =      -8.65485768 Ry
     ewald contribution        =      55.67650799 Ry

     convergence has been achieved in   9 iterations

     Forces acting on atoms (cartesian axes, Ry/au):

     atom    1 type  2   force =     0.00000000    0.00000000    0.00000000
     atom    2 type  1   force =     0.00000000    0.00000000    0.00000000
     The non-local contrib.  to forces
     atom    1 type  2   force =    -0.00000000   -0.00000000   -0.00000000
     atom    2 type  1   force =     0.00000000    0.00000000    0.00000000
     The ionic contribution  to forces
     atom    1 type  2   force =    -0.00000001    0.00000000    0.00000000
     atom    2 type  1   force =     0.00000001   -0.00000000   -0.00000000
     The local contribution  to forces
     atom    1 type  2   force =     0.00000000   -0.00000000    0.00000000
     atom    2 type  1   force =     0.00000003   -0.00000002    0.00000000
     The core correction contribution to forces
     atom    1 type  2   force =    -0.00000000   -0.00000000   -0.00000000
     atom    2 type  1   force =    -0.00000000    0.00000000   -0.00000000
     The Hubbard contrib.    to forces
     atom    1 type  2   force =     0.00000000    0.00000000    0.00000000
     atom    2 type  1   force =     0.00000000    0.00000000    0.00000000
     The SCF correction term to forces
     atom    1 type  2   force =    -0.00000000    0.00000000   -0.00000000
     atom    2 type  1   force =    -0.00000000    0.00000000   -0.00000000

     Total force =     0.000000     Total SCF correction =     0.000000


     Computing stress (Cartesian axis) and pressure

          total   stress  (Ry/bohr**3)                   (kbar)     P=        0.15
   0.00000143   0.00000000   0.00000000            0.21        0.00        0.00
  -0.00000000   0.00000143   0.00000000           -0.00        0.21        0.00
   0.00000000   0.00000000   0.00000015            0.00        0.00        0.02

     kinetic stress (kbar)   3276.44     -0.00      0.00
                               -0.00   3276.44     -0.00
                               -0.00     -0.00   3579.88

     local   stress (kbar) -43000.97      0.00      0.00
                                0.00 -43000.97     -0.00
                                0.00     -0.00  43460.19

     nonloc. stress (kbar)   -539.13     -0.00     -0.00
                               -0.00   -539.13     -0.00
                               -0.00      0.00   -523.89

     hartree stress (kbar)  20434.88     -0.00     -0.00
                               -0.00  20434.88      0.00
                               -0.00      0.00 -19868.11

     exc-cor stress (kbar)   -325.86     -0.00     -0.00
                               -0.00   -325.86     -0.00
                               -0.00     -0.00   -350.35

     corecor stress (kbar)   -365.90      0.00     -0.00
                                0.00   -365.90      0.00
                               -0.00      0.00   -359.24

     ewald   stress (kbar)  20520.75     -0.00     -0.00
                               -0.00  20520.75     -0.00
                               -0.00     -0.00 -25938.46

     hubbard stress (kbar)      0.00      0.00      0.00
                                0.00      0.00      0.00
                                0.00      0.00      0.00

     DFT-D   stress (kbar)      0.00      0.00      0.00
                                0.00      0.00      0.00
                                0.00      0.00      0.00

     XDM     stress (kbar)      0.00      0.00      0.00
                                0.00      0.00      0.00
                                0.00      0.00      0.00

     dft-nl  stress (kbar)      0.00      0.00      0.00
                                0.00      0.00      0.00
                                0.00      0.00      0.00

     TS-vdW  stress (kbar)      0.00      0.00      0.00
                                0.00      0.00      0.00
                                0.00      0.00      0.00

     MDB     stress (kbar)      0.00      0.00      0.00
                                0.00      0.00      0.00
                                0.00      0.00      0.00

     3D-RISM stress (kbar)      0.00      0.00      0.00
                                0.00      0.00      0.00
                                0.00      0.00      0.00


     Writing all to output data dir ./tmp/hBN_1l_PBE.save/

     init_run     :     13.12s CPU     13.14s WALL (       2 calls)
     electrons    :    216.26s CPU    198.22s WALL (       5 calls)
     update_pot   :     19.69s CPU     19.78s WALL (       3 calls)
     forces       :     19.97s CPU     20.21s WALL (       5 calls)
     stress       :     44.24s CPU     46.92s WALL (       5 calls)

     Called by init_run:
     wfcinit      :      2.54s CPU      2.47s WALL (       2 calls)
     wfcinit:atom :      0.09s CPU      0.09s WALL (      60 calls)
     wfcinit:wfcr :      2.18s CPU      2.10s WALL (      60 calls)
     potinit      :      3.54s CPU      3.58s WALL (       2 calls)
     hinit0       :      6.92s CPU      6.96s WALL (       2 calls)

     Called by electrons:
     c_bands      :    186.39s CPU    167.16s WALL (      59 calls)
     sum_band     :     24.66s CPU     24.80s WALL (      59 calls)
     v_of_rho     :      4.55s CPU      5.21s WALL (      64 calls)
     v_h          :      0.23s CPU      0.25s WALL (      64 calls)
     v_xc         :      4.96s CPU      5.68s WALL (      74 calls)
     mix_rho      :      0.88s CPU      1.29s WALL (      59 calls)

     Called by c_bands:
     init_us_2    :      5.94s CPU      5.96s WALL (    3900 calls)
     init_us_2:cp :      5.93s CPU      5.95s WALL (    3900 calls)
     cegterg      :    179.64s CPU    160.33s WALL (    1770 calls)

     Called by sum_band:
     sum_band:wei :      0.00s CPU      0.00s WALL (      59 calls)
     sum_band:loo :     24.13s CPU     24.25s WALL (      59 calls)
     sum_band:buf :      0.27s CPU      0.27s WALL (    1770 calls)
     sum_band:ini :      2.68s CPU      2.69s WALL (    1770 calls)

     Called by *egterg:
     cdiaghg      :      0.65s CPU      0.66s WALL (    8828 calls)
     cegterg:over :      7.69s CPU      7.73s WALL (    7148 calls)
     cegterg:upda :      8.64s CPU      3.12s WALL (    7148 calls)
     cegterg:last :     10.13s CPU      2.81s WALL (    4539 calls)
     h_psi        :    150.62s CPU    143.93s WALL (    8978 calls)
     g_psi        :      1.42s CPU      1.43s WALL (    7148 calls)

     Called by h_psi:
     h_psi:calbec :      6.01s CPU      6.05s WALL (    8978 calls)
     vloc_psi     :    134.04s CPU    134.70s WALL (    8978 calls)
     add_vuspsi   :      9.85s CPU      2.40s WALL (    8978 calls)

     General routines
     calbec       :      6.70s CPU      6.74s WALL (    9728 calls)
     fft          :      1.99s CPU      2.02s WALL (     763 calls)
     ffts         :      0.14s CPU      0.14s WALL (      59 calls)
     fftw         :    131.12s CPU    131.57s WALL (  102400 calls)

     Parallel routines

     PWSCF        :   5m13.39s CPU   4m58.49s WALL


   This run was terminated on:  19:51:33   5Apr2024            

=------------------------------------------------------------------------------=
   JOB DONE.
=------------------------------------------------------------------------------=
