
     Program PWSCF v.7.2 starts on 16Apr2024 at 11: 1:30 

     This program is part of the open-source Quantum ESPRESSO suite
     for quantum simulation of materials; please cite
         "P. Giannozzi et al., J. Phys.:Condens. Matter 21 395502 (2009);
         "P. Giannozzi et al., J. Phys.:Condens. Matter 29 465901 (2017);
         "P. Giannozzi et al., J. Chem. Phys. 152 154105 (2020);
          URL http://www.quantum-espresso.org", 
     in publications or presentations arising from this work. More details at
     http://www.quantum-espresso.org/quote

     Parallel version (MPI & OpenMP), running on       1 processor cores
     Number of MPI processes:                 1
     Threads/MPI process:                     1

     MPI processes distributed on     1 nodes
     0 MiB available memory on the printing compute node when the environment starts

     Waiting for input...
     Reading input from standard input

     Current dimensions of program PWSCF are:
     Max number of different atomic species (ntypx) = 10
     Max number of k-points (npk) =  40000
     Max angular momentum in pseudopotentials (lmaxx) =  4

     Subspace diagonalization in iterative solution of the eigenvalue problem:
     a serial algorithm will be used


     G-vector sticks info
     --------------------
     sticks:   dense  smooth     PW     G-vecs:    dense   smooth      PW
     Sum         121     121     37                 6307     6307    1283

     Using Slab Decomposition



     bravais-lattice index     =            4
     lattice parameter (alat)  =       4.6350  a.u.
     unit-cell volume          =     517.4056 (a.u.)^3
     number of atoms/cell      =            2
     number of atomic types    =            2
     number of electrons       =         8.00
     number of Kohn-Sham states=            8
     kinetic-energy cutoff     =      20.0000  Ry
     charge density cutoff     =      80.0000  Ry
     scf convergence threshold =      1.0E-06
     mixing beta               =       0.7000
     number of iterations used =            8  plain     mixing
     Exchange-correlation= PBE
                           (   1   4   3   4   0   0   0)

     celldm(1)=   4.635000  celldm(2)=   0.000000  celldm(3)=   6.000000
     celldm(4)=   0.000000  celldm(5)=   0.000000  celldm(6)=   0.000000

     crystal axes: (cart. coord. in units of alat)
               a(1) = (   1.000000   0.000000   0.000000 )  
               a(2) = (  -0.500000   0.866025   0.000000 )  
               a(3) = (   0.000000   0.000000   6.000000 )  

     reciprocal axes: (cart. coord. in units 2 pi/alat)
               b(1) = (  1.000000  0.577350 -0.000000 )  
               b(2) = (  0.000000  1.154701  0.000000 )  
               b(3) = (  0.000000 -0.000000  0.166667 )  


     PseudoPot. # 1 for N  read from file:
     ../../../../Pseudo/PBE/N.upf
     MD5 check sum: d34365f73bb0e2ee98afc20ec3e87676
     Pseudo is Norm-conserving + core correction, Zval =  5.0
     Generated using ONCVPSP code by D. R. Hamann
     Using radial grid of 1058 points,  4 beta functions with: 
                l(1) =   0
                l(2) =   0
                l(3) =   1
                l(4) =   1

     PseudoPot. # 2 for B  read from file:
     ../../../../Pseudo/PBE/B.upf
     MD5 check sum: 72f82fc31bc892420d0cab7e25c88ab8
     Pseudo is Norm-conserving + core correction, Zval =  3.0
     Generated using ONCVPSP code by D. R. Hamann
     Using radial grid of 1534 points,  4 beta functions with: 
                l(1) =   0
                l(2) =   0
                l(3) =   1
                l(4) =   1

     atomic species   valence    mass     pseudopotential
        N              5.00    14.00670     N ( 1.00)
        B              3.00    10.80100     B ( 1.00)

     12 Sym. Ops. (no inversion) found


                                    s                        frac. trans.

      isym =  1     identity                                     

 cryst.   s( 1) = (     1          0          0      )
                  (     0          1          0      )
                  (     0          0          1      )

 cart.    s( 1) = (  1.0000000  0.0000000  0.0000000 )
                  (  0.0000000  1.0000000  0.0000000 )
                  (  0.0000000  0.0000000  1.0000000 )


      isym =  2     180 deg rotation - cart. axis [0,1,0]        

 cryst.   s( 2) = (    -1          0          0      )
                  (     1          1          0      )
                  (     0          0         -1      )

 cart.    s( 2) = ( -1.0000000  0.0000000  0.0000000 )
                  (  0.0000000  1.0000000  0.0000000 )
                  (  0.0000000  0.0000000 -1.0000000 )


      isym =  3     120 deg rotation - cryst. axis [0,0,1]       

 cryst.   s( 3) = (     0          1          0      )
                  (    -1         -1          0      )
                  (     0          0          1      )

 cart.    s( 3) = ( -0.5000000 -0.8660254  0.0000000 )
                  (  0.8660254 -0.5000000  0.0000000 )
                  (  0.0000000  0.0000000  1.0000000 )


      isym =  4     120 deg rotation - cryst. axis [0,0,-1]      

 cryst.   s( 4) = (    -1         -1          0      )
                  (     1          0          0      )
                  (     0          0          1      )

 cart.    s( 4) = ( -0.5000000  0.8660254  0.0000000 )
                  ( -0.8660254 -0.5000000  0.0000000 )
                  (  0.0000000  0.0000000  1.0000000 )


      isym =  5     180 deg rotation - cryst. axis [1,-1,0]      

 cryst.   s( 5) = (     0         -1          0      )
                  (    -1          0          0      )
                  (     0          0         -1      )

 cart.    s( 5) = (  0.5000000 -0.8660254  0.0000000 )
                  ( -0.8660254 -0.5000000  0.0000000 )
                  (  0.0000000  0.0000000 -1.0000000 )


      isym =  6     180 deg rotation - cryst. axis [2,1,0]       

 cryst.   s( 6) = (     1          1          0      )
                  (     0         -1          0      )
                  (     0          0         -1      )

 cart.    s( 6) = (  0.5000000  0.8660254  0.0000000 )
                  (  0.8660254 -0.5000000  0.0000000 )
                  (  0.0000000  0.0000000 -1.0000000 )


      isym =  7     inv. 180 deg rotation - cart. axis [0,0,1]   

 cryst.   s( 7) = (     1          0          0      )
                  (     0          1          0      )
                  (     0          0         -1      )

 cart.    s( 7) = (  1.0000000  0.0000000  0.0000000 )
                  (  0.0000000  1.0000000  0.0000000 )
                  (  0.0000000  0.0000000 -1.0000000 )


      isym =  8     inv. 180 deg rotation - cart. axis [1,0,0]   

 cryst.   s( 8) = (    -1          0          0      )
                  (     1          1          0      )
                  (     0          0          1      )

 cart.    s( 8) = ( -1.0000000  0.0000000  0.0000000 )
                  (  0.0000000  1.0000000  0.0000000 )
                  (  0.0000000  0.0000000  1.0000000 )


      isym =  9     inv.  60 deg rotation - cryst. axis [0,0,1]  

 cryst.   s( 9) = (    -1         -1          0      )
                  (     1          0          0      )
                  (     0          0         -1      )

 cart.    s( 9) = ( -0.5000000  0.8660254  0.0000000 )
                  ( -0.8660254 -0.5000000  0.0000000 )
                  (  0.0000000  0.0000000 -1.0000000 )


      isym = 10     inv.  60 deg rotation - cryst. axis [0,0,-1] 

 cryst.   s(10) = (     0          1          0      )
                  (    -1         -1          0      )
                  (     0          0         -1      )

 cart.    s(10) = ( -0.5000000 -0.8660254  0.0000000 )
                  (  0.8660254 -0.5000000  0.0000000 )
                  (  0.0000000  0.0000000 -1.0000000 )


      isym = 11     inv. 180 deg rotation - cryst. axis [0,1,0]  

 cryst.   s(11) = (     1          1          0      )
                  (     0         -1          0      )
                  (     0          0          1      )

 cart.    s(11) = (  0.5000000  0.8660254  0.0000000 )
                  (  0.8660254 -0.5000000  0.0000000 )
                  (  0.0000000  0.0000000  1.0000000 )


      isym = 12     inv. 180 deg rotation - cryst. axis [1,1,0]  

 cryst.   s(12) = (     0         -1          0      )
                  (    -1          0          0      )
                  (     0          0          1      )

 cart.    s(12) = (  0.5000000 -0.8660254  0.0000000 )
                  ( -0.8660254 -0.5000000  0.0000000 )
                  (  0.0000000  0.0000000  1.0000000 )


     point group D_3h (-62m)
     there are  6 classes
     the character table:

       E     2C3   3C2   s_h   2S3   3s_v 
A'_1   1.00  1.00  1.00  1.00  1.00  1.00
A'_2   1.00  1.00 -1.00  1.00  1.00 -1.00
E'     2.00 -1.00  0.00  2.00 -1.00  0.00
A''1   1.00  1.00  1.00 -1.00 -1.00 -1.00
A''2   1.00  1.00 -1.00 -1.00 -1.00  1.00
E''    2.00 -1.00  0.00 -2.00  1.00  0.00

     the symmetry operations in each class and the name of the first element:

     E        1
          identity                                               
     2C3      3    4
          120 deg rotation - cryst. axis [0,0,1]                 
     3C2      2    6    5
          180 deg rotation - cart. axis [0,1,0]                  
     s_h      7
          inv. 180 deg rotation - cart. axis [0,0,1]             
     2S3      9   10
          inv.  60 deg rotation - cryst. axis [0,0,1]            
     3s_v     8   11   12
          inv. 180 deg rotation - cart. axis [1,0,0]             

   Cartesian axes

     site n.     atom                  positions (alat units)
         1           B   tau(   1) = (   0.0000000   0.0000000   0.0000000  )
         2           N   tau(   2) = (  -0.0000000   0.5773503   0.0000000  )

   Crystallographic axes

     site n.     atom                  positions (cryst. coord.)
         1           B   tau(   1) = (  0.0000000  0.0000000  0.0000000  )
         2           N   tau(   2) = (  0.3333333  0.6666667  0.0000000  )

     number of k points=    30
                       cart. coord. in units 2pi/alat
        k(    1) = (   0.0000000   0.0000000   0.0000000), wk =   0.0078125
        k(    2) = (   0.0000000   0.0721688   0.0000000), wk =   0.0468750
        k(    3) = (   0.0000000   0.1443376   0.0000000), wk =   0.0468750
        k(    4) = (   0.0000000   0.2165064   0.0000000), wk =   0.0468750
        k(    5) = (   0.0000000   0.2886751   0.0000000), wk =   0.0468750
        k(    6) = (   0.0000000   0.3608439   0.0000000), wk =   0.0468750
        k(    7) = (   0.0000000   0.4330127   0.0000000), wk =   0.0468750
        k(    8) = (   0.0000000   0.5051815   0.0000000), wk =   0.0468750
        k(    9) = (   0.0000000  -0.5773503   0.0000000), wk =   0.0234375
        k(   10) = (   0.0625000   0.1082532   0.0000000), wk =   0.0468750
        k(   11) = (   0.0625000   0.1804220   0.0000000), wk =   0.0937500
        k(   12) = (   0.0625000   0.2525907   0.0000000), wk =   0.0937500
        k(   13) = (   0.0625000   0.3247595   0.0000000), wk =   0.0937500
        k(   14) = (   0.0625000   0.3969283   0.0000000), wk =   0.0937500
        k(   15) = (   0.0625000   0.4690971   0.0000000), wk =   0.0937500
        k(   16) = (   0.0625000   0.5412659   0.0000000), wk =   0.0937500
        k(   17) = (   0.1250000   0.2165064   0.0000000), wk =   0.0468750
        k(   18) = (   0.1250000   0.2886751   0.0000000), wk =   0.0937500
        k(   19) = (   0.1250000   0.3608439   0.0000000), wk =   0.0937500
        k(   20) = (   0.1250000   0.4330127   0.0000000), wk =   0.0937500
        k(   21) = (   0.1250000   0.5051815   0.0000000), wk =   0.0937500
        k(   22) = (   0.1250000   0.5773503   0.0000000), wk =   0.0468750
        k(   23) = (   0.1875000   0.3247595   0.0000000), wk =   0.0468750
        k(   24) = (   0.1875000   0.3969283   0.0000000), wk =   0.0937500
        k(   25) = (   0.1875000   0.4690971   0.0000000), wk =   0.0937500
        k(   26) = (   0.1875000   0.5412659   0.0000000), wk =   0.0937500
        k(   27) = (   0.2500000   0.4330127   0.0000000), wk =   0.0468750
        k(   28) = (   0.2500000   0.5051815   0.0000000), wk =   0.0937500
        k(   29) = (   0.2500000   0.5773503   0.0000000), wk =   0.0468750
        k(   30) = (   0.3125000   0.5412659   0.0000000), wk =   0.0468750

                       cryst. coord.
        k(    1) = (   0.0000000   0.0000000   0.0000000), wk =   0.0078125
        k(    2) = (   0.0000000   0.0625000   0.0000000), wk =   0.0468750
        k(    3) = (   0.0000000   0.1250000   0.0000000), wk =   0.0468750
        k(    4) = (   0.0000000   0.1875000   0.0000000), wk =   0.0468750
        k(    5) = (   0.0000000   0.2500000   0.0000000), wk =   0.0468750
        k(    6) = (   0.0000000   0.3125000   0.0000000), wk =   0.0468750
        k(    7) = (   0.0000000   0.3750000   0.0000000), wk =   0.0468750
        k(    8) = (   0.0000000   0.4375000   0.0000000), wk =   0.0468750
        k(    9) = (   0.0000000  -0.5000000   0.0000000), wk =   0.0234375
        k(   10) = (   0.0625000   0.0625000   0.0000000), wk =   0.0468750
        k(   11) = (   0.0625000   0.1250000   0.0000000), wk =   0.0937500
        k(   12) = (   0.0625000   0.1875000   0.0000000), wk =   0.0937500
        k(   13) = (   0.0625000   0.2500000   0.0000000), wk =   0.0937500
        k(   14) = (   0.0625000   0.3125000   0.0000000), wk =   0.0937500
        k(   15) = (   0.0625000   0.3750000   0.0000000), wk =   0.0937500
        k(   16) = (   0.0625000   0.4375000   0.0000000), wk =   0.0937500
        k(   17) = (   0.1250000   0.1250000   0.0000000), wk =   0.0468750
        k(   18) = (   0.1250000   0.1875000   0.0000000), wk =   0.0937500
        k(   19) = (   0.1250000   0.2500000   0.0000000), wk =   0.0937500
        k(   20) = (   0.1250000   0.3125000   0.0000000), wk =   0.0937500
        k(   21) = (   0.1250000   0.3750000   0.0000000), wk =   0.0937500
        k(   22) = (   0.1250000   0.4375000   0.0000000), wk =   0.0468750
        k(   23) = (   0.1875000   0.1875000   0.0000000), wk =   0.0468750
        k(   24) = (   0.1875000   0.2500000   0.0000000), wk =   0.0937500
        k(   25) = (   0.1875000   0.3125000   0.0000000), wk =   0.0937500
        k(   26) = (   0.1875000   0.3750000   0.0000000), wk =   0.0937500
        k(   27) = (   0.2500000   0.2500000   0.0000000), wk =   0.0468750
        k(   28) = (   0.2500000   0.3125000   0.0000000), wk =   0.0937500
        k(   29) = (   0.2500000   0.3750000   0.0000000), wk =   0.0468750
        k(   30) = (   0.3125000   0.3125000   0.0000000), wk =   0.0468750

     Dense  grid:     6307 G-vectors     FFT dimensions: (  15,  15,  80)

     Dynamical RAM for                 wfc:       0.10 MB

     Dynamical RAM for     wfc (w. buffer):       2.96 MB

     Dynamical RAM for           str. fact:       0.19 MB

     Dynamical RAM for           local pot:       0.00 MB

     Dynamical RAM for          nlocal pot:       0.19 MB

     Dynamical RAM for                qrad:       0.41 MB

     Dynamical RAM for          rho,v,vnew:       0.70 MB

     Dynamical RAM for               rhoin:       0.23 MB

     Dynamical RAM for            rho*nmix:       1.54 MB

     Dynamical RAM for           G-vectors:       0.41 MB

     Dynamical RAM for          h,s,v(r/c):       0.01 MB

     Dynamical RAM for          <psi|beta>:       0.00 MB

     Dynamical RAM for                 psi:       0.19 MB

     Dynamical RAM for                hpsi:       0.19 MB

     Dynamical RAM for      wfcinit/wfcrot:       0.19 MB

     Estimated static dynamical RAM per process >       6.07 MB

     Estimated max dynamical RAM per process >       8.00 MB

     Check: negative core charge=   -0.000497

     Initial potential from superposition of free atoms

     starting charge       7.9997, renormalised to       8.0000

     negative rho (up, down):  2.216E-02 0.000E+00
     Starting wfcs are    8 randomized atomic wfcs

     total cpu time spent up to now is        0.5 secs

     Self-consistent Calculation

     iteration #  1     ecut=    20.00 Ry     beta= 0.70
     Davidson diagonalization with overlap

---- Real-time Memory Report at c_bands before calling an iterative solver
             0 MiB given to the printing process from OS
             0 MiB allocation reported by mallinfo(arena+hblkhd)
             0 MiB available memory on the node where the printing process lives
------------------
     ethr =  1.00E-02,  avg # of iterations =  8.9

     negative rho (up, down):  6.109E-03 0.000E+00

     total cpu time spent up to now is        0.8 secs

     total energy              =     -25.92268611 Ry
     estimated scf accuracy    <       0.15648486 Ry

     iteration #  2     ecut=    20.00 Ry     beta= 0.70
     Davidson diagonalization with overlap

---- Real-time Memory Report at c_bands before calling an iterative solver
             0 MiB given to the printing process from OS
             0 MiB allocation reported by mallinfo(arena+hblkhd)
             0 MiB available memory on the node where the printing process lives
------------------
     ethr =  1.96E-03,  avg # of iterations =  3.7

     negative rho (up, down):  7.970E-04 0.000E+00

     total cpu time spent up to now is        1.0 secs

     total energy              =     -25.93230263 Ry
     estimated scf accuracy    <       0.00753996 Ry

     iteration #  3     ecut=    20.00 Ry     beta= 0.70
     Davidson diagonalization with overlap

---- Real-time Memory Report at c_bands before calling an iterative solver
             0 MiB given to the printing process from OS
             0 MiB allocation reported by mallinfo(arena+hblkhd)
             0 MiB available memory on the node where the printing process lives
------------------
     ethr =  9.42E-05,  avg # of iterations =  6.1

     negative rho (up, down):  7.422E-05 0.000E+00

     total cpu time spent up to now is        1.2 secs

     total energy              =     -25.93293370 Ry
     estimated scf accuracy    <       0.00095156 Ry

     iteration #  4     ecut=    20.00 Ry     beta= 0.70
     Davidson diagonalization with overlap

---- Real-time Memory Report at c_bands before calling an iterative solver
             0 MiB given to the printing process from OS
             0 MiB allocation reported by mallinfo(arena+hblkhd)
             0 MiB available memory on the node where the printing process lives
------------------
     ethr =  1.19E-05,  avg # of iterations =  3.5

     total cpu time spent up to now is        1.4 secs

     total energy              =     -25.93303681 Ry
     estimated scf accuracy    <       0.00002640 Ry

     iteration #  5     ecut=    20.00 Ry     beta= 0.70
     Davidson diagonalization with overlap

---- Real-time Memory Report at c_bands before calling an iterative solver
             0 MiB given to the printing process from OS
             0 MiB allocation reported by mallinfo(arena+hblkhd)
             0 MiB available memory on the node where the printing process lives
------------------
     ethr =  3.30E-07,  avg # of iterations =  3.2

     total cpu time spent up to now is        1.5 secs

     total energy              =     -25.93304449 Ry
     estimated scf accuracy    <       0.00000474 Ry

     iteration #  6     ecut=    20.00 Ry     beta= 0.70
     Davidson diagonalization with overlap

---- Real-time Memory Report at c_bands before calling an iterative solver
             0 MiB given to the printing process from OS
             0 MiB allocation reported by mallinfo(arena+hblkhd)
             0 MiB available memory on the node where the printing process lives
------------------
     ethr =  5.93E-08,  avg # of iterations =  1.4

     total cpu time spent up to now is        1.6 secs

     End of self-consistent calculation

          k = 0.0000 0.0000 0.0000 (   801 PWs)   bands (ev):

   -22.6616  -9.1252  -4.5276  -4.5276  -0.6568   0.0380   0.4456   2.5923

     occupation numbers 
     1.0000   1.0000   1.0000   1.0000   0.0000   0.0000   0.0000   0.0000

          k = 0.0000 0.0722 0.0000 (   799 PWs)   bands (ev):

   -22.5822  -9.0277  -4.8787  -4.6779  -0.5230   0.1657   0.5807   2.7152

     occupation numbers 
     1.0000   1.0000   1.0000   1.0000   0.0000   0.0000   0.0000   0.0000

          k = 0.0000 0.1443 0.0000 (   795 PWs)   bands (ev):

   -22.3344  -8.6987  -5.8657  -5.1056  -0.1273   0.5506   0.9794   3.0865

     occupation numbers 
     1.0000   1.0000   1.0000   1.0000   0.0000   0.0000   0.0000   0.0000

          k = 0.0000 0.2165 0.0000 (   786 PWs)   bands (ev):

   -21.9473  -8.1349  -7.1740  -5.6667   0.5229   1.1912   1.6286   3.6974

     occupation numbers 
     1.0000   1.0000   1.0000   1.0000   0.0000   0.0000   0.0000   0.0000

          k = 0.0000 0.2887 0.0000 (   780 PWs)   bands (ev):

   -21.4325  -8.6157  -7.4096  -6.3412   1.4270   2.0765   2.5253   4.4811

     occupation numbers 
     1.0000   1.0000   1.0000   1.0000   0.0000   0.0000   0.0000   0.0000

          k = 0.0000 0.3608 0.0000 (   776 PWs)   bands (ev):

   -20.8129 -10.1031  -6.8615  -6.5158   2.5838   3.1566   3.6660   4.8233

     occupation numbers 
     1.0000   1.0000   1.0000   1.0000   0.0000   0.0000   0.0000   0.0000

          k = 0.0000 0.4330 0.0000 (   784 PWs)   bands (ev):

   -20.1917 -11.4879  -7.3280  -5.5267   3.2441   3.9837   4.8673   5.0258

     occupation numbers 
     1.0000   1.0000   1.0000   1.0000   0.0000   0.0000   0.0000   0.0000

          k = 0.0000 0.5052 0.0000 (   792 PWs)   bands (ev):

   -19.6614 -12.5014  -7.6198  -4.6409   2.0477   5.5646   6.4173   6.4307

     occupation numbers 
     1.0000   1.0000   1.0000   1.0000   0.0000   0.0000   0.0000   0.0000

          k = 0.0000-0.5774 0.0000 (   782 PWs)   bands (ev):

   -19.4313 -12.8579  -7.6793  -4.1920   1.5304   6.4418   7.6517   7.8826

     occupation numbers 
     1.0000   1.0000   1.0000   1.0000   0.0000   0.0000   0.0000   0.0000

          k = 0.0625 0.1083 0.0000 (   803 PWs)   bands (ev):

   -22.4241  -8.8249  -5.5378  -5.0455  -0.2587   0.4213   0.8472   2.9604

     occupation numbers 
     1.0000   1.0000   1.0000   1.0000   0.0000   0.0000   0.0000   0.0000

          k = 0.0625 0.1804 0.0000 (   784 PWs)   bands (ev):

   -22.0928  -8.3597  -6.5451  -5.5415   0.2646   0.9354   1.3722   3.4554

     occupation numbers 
     1.0000   1.0000   1.0000   1.0000   0.0000   0.0000   0.0000   0.0000

          k = 0.0625 0.2526 0.0000 (   784 PWs)   bands (ev):

   -21.6563  -7.9031  -7.7185  -6.2375   1.0414   1.6990   2.1451   4.1614

     occupation numbers 
     1.0000   1.0000   1.0000   1.0000   0.0000   0.0000   0.0000   0.0000

          k = 0.0625 0.3248 0.0000 (   776 PWs)   bands (ev):

   -21.0934  -9.3723  -6.8899  -6.8227   2.0730   2.6973   3.1670   4.8970

     occupation numbers 
     1.0000   1.0000   1.0000   1.0000   0.0000   0.0000   0.0000   0.0000

          k = 0.0625 0.3969 0.0000 (   781 PWs)   bands (ev):

   -20.4635 -10.8219  -7.3405  -5.9531   3.3555   3.6131   4.4284   4.5620

     occupation numbers 
     1.0000   1.0000   1.0000   1.0000   0.0000   0.0000   0.0000   0.0000

          k = 0.0625 0.4691 0.0000 (   775 PWs)   bands (ev):

   -19.8439 -12.0052  -7.6590  -4.9665   2.6502   4.8749   5.6834   5.8898

     occupation numbers 
     1.0000   1.0000   1.0000   1.0000   0.0000   0.0000   0.0000   0.0000

          k = 0.0625 0.5413 0.0000 (   786 PWs)   bands (ev):

   -19.4532 -12.7216  -7.9280  -4.2582   1.6858   6.4560   7.1727   7.4316

     occupation numbers 
     1.0000   1.0000   1.0000   1.0000   0.0000   0.0000   0.0000   0.0000

          k = 0.1250 0.2165 0.0000 (   785 PWs)   bands (ev):

   -21.7392  -7.8328  -7.5110  -6.3335   0.9136   1.5723   2.0197   4.0498

     occupation numbers 
     1.0000   1.0000   1.0000   1.0000   0.0000   0.0000   0.0000   0.0000

          k = 0.1250 0.2887 0.0000 (   791 PWs)   bands (ev):

   -21.2490  -8.8319  -7.1289  -7.1176   1.8193   2.4504   2.9207   4.7726

     occupation numbers 
     1.0000   1.0000   1.0000   1.0000   0.0000   0.0000   0.0000   0.0000

          k = 0.1250 0.3608 0.0000 (   780 PWs)   bands (ev):

   -20.6403 -10.1568  -7.7152  -6.2200   2.9803   3.4928   4.0720   4.8265

     occupation numbers 
     1.0000   1.0000   1.0000   1.0000   0.0000   0.0000   0.0000   0.0000

          k = 0.1250 0.4330 0.0000 (   777 PWs)   bands (ev):

   -20.0067 -11.3744  -8.1728  -5.2471   3.2233   4.3917   5.2044   5.4626

     occupation numbers 
     1.0000   1.0000   1.0000   1.0000   0.0000   0.0000   0.0000   0.0000

          k = 0.1250 0.5052 0.0000 (   776 PWs)   bands (ev):

   -19.4882 -12.3133  -8.4593  -4.3642   2.1030   6.0366   6.7880   7.0466

     occupation numbers 
     1.0000   1.0000   1.0000   1.0000   0.0000   0.0000   0.0000   0.0000

          k = 0.1250 0.5774 0.0000 (   776 PWs)   bands (ev):

   -19.2679 -12.6721  -8.5623  -3.9599   1.5941   7.5461   8.0319   8.4759

     occupation numbers 
     1.0000   1.0000   1.0000   1.0000   0.0000   0.0000   0.0000   0.0000

          k = 0.1875 0.3248 0.0000 (   771 PWs)   bands (ev):

   -20.6898  -9.7866  -7.9336  -6.3021   2.8555   3.4058   3.9529   4.9785

     occupation numbers 
     1.0000   1.0000   1.0000   1.0000   0.0000   0.0000   0.0000   0.0000

          k = 0.1875 0.3969 0.0000 (   783 PWs)   bands (ev):

   -20.1079 -10.8883  -8.6959  -5.4082   3.6176   4.1447   4.9980   5.2325

     occupation numbers 
     1.0000   1.0000   1.0000   1.0000   0.0000   0.0000   0.0000   0.0000

          k = 0.1875 0.4691 0.0000 (   782 PWs)   bands (ev):

   -19.5439 -11.7899  -9.1931  -4.4769   2.5426   5.6840   6.3952   6.7527

     occupation numbers 
     1.0000   1.0000   1.0000   1.0000   0.0000   0.0000   0.0000   0.0000

          k = 0.1875 0.5413 0.0000 (   780 PWs)   bands (ev):

   -19.1680 -12.3641  -9.4276  -3.8062   1.7553   7.4559   8.0766   8.4652

     occupation numbers 
     1.0000   1.0000   1.0000   1.0000   0.0000   0.0000   0.0000   0.0000

          k = 0.2500 0.4330 0.0000 (   781 PWs)   bands (ev):

   -19.5574 -11.4952  -9.5650  -4.5104   2.7697   5.5632   6.2616   6.6421

     occupation numbers 
     1.0000   1.0000   1.0000   1.0000   0.0000   0.0000   0.0000   0.0000

          k = 0.2500 0.5052 0.0000 (   776 PWs)   bands (ev):

   -19.1134 -11.9646 -10.0881  -3.7256   1.9591   7.2275   7.7649   8.2876

     occupation numbers 
     1.0000   1.0000   1.0000   1.0000   0.0000   0.0000   0.0000   0.0000

          k = 0.2500 0.5774 0.0000 (   776 PWs)   bands (ev):

   -18.9383 -12.1529 -10.3015  -3.3573   1.6056   8.6302   9.0396   9.1830

     occupation numbers 
     1.0000   1.0000   1.0000   1.0000   0.0000   0.0000   0.0000   0.0000

          k = 0.3125 0.5413 0.0000 (   765 PWs)   bands (ev):

   -18.8384 -11.9064 -10.6823  -3.1976   1.5751   8.4315   8.9996  10.0204

     occupation numbers 
     1.0000   1.0000   1.0000   1.0000   0.0000   0.0000   0.0000   0.0000

     highest occupied, lowest unoccupied level (ev):    -3.1976   -0.6568

!    total energy              =     -25.93304464 Ry
     estimated scf accuracy    <       0.00000019 Ry

     The total energy is the sum of the following terms:
     one-electron contribution =    -156.50712531 Ry
     hartree contribution      =      79.82809979 Ry
     xc contribution           =      -8.54413259 Ry
     ewald contribution        =      59.29011347 Ry

     convergence has been achieved in   6 iterations

     Forces acting on atoms (cartesian axes, Ry/au):

     atom    1 type  2   force =     0.00000000    0.00000000    0.00000000
     atom    2 type  1   force =    -0.00000000   -0.00000000    0.00000000
     The non-local contrib.  to forces
     atom    1 type  2   force =     0.00000000    0.00000000    0.00000000
     atom    2 type  1   force =    -0.00000000    0.00000000    0.00000000
     The ionic contribution  to forces
     atom    1 type  2   force =    -0.00000001    0.00000000   -0.00000000
     atom    2 type  1   force =     0.00000001   -0.00000000   -0.00000000
     The local contribution  to forces
     atom    1 type  2   force =    -0.00000000   -0.00000000   -0.00000000
     atom    2 type  1   force =     0.00000002   -0.00000001   -0.00000000
     The core correction contribution to forces
     atom    1 type  2   force =     0.00000000   -0.00000000   -0.00000000
     atom    2 type  1   force =    -0.00000000    0.00000000   -0.00000000
     The Hubbard contrib.    to forces
     atom    1 type  2   force =     0.00000000    0.00000000    0.00000000
     atom    2 type  1   force =     0.00000000    0.00000000    0.00000000
     The SCF correction term to forces
     atom    1 type  2   force =     0.00000000   -0.00000000    0.00000000
     atom    2 type  1   force =     0.00000000   -0.00000000    0.00000000

     Total force =     0.000000     Total SCF correction =     0.000000


     Computing stress (Cartesian axis) and pressure

          total   stress  (Ry/bohr**3)                   (kbar)     P=     -204.04
  -0.00100530  -0.00000000   0.00000000         -147.89       -0.00        0.00
  -0.00000000  -0.00100530   0.00000000           -0.00     -147.89        0.00
   0.00000000   0.00000000  -0.00215040            0.00        0.00     -316.34

     kinetic stress (kbar)   3051.94      0.00      0.00
                                0.00   3051.94      0.00
                                0.00      0.00   3277.74

     local   stress (kbar) -47131.18      0.00     -0.00
                                0.00 -47131.18      0.00
                               -0.00      0.00  47604.48

     nonloc. stress (kbar)   -284.64     -0.00      0.00
                               -0.00   -284.64      0.00
                                0.00      0.00   -251.70

     hartree stress (kbar)  22232.72     -0.00     -0.00
                               -0.00  22232.72      0.00
                               -0.00      0.00 -21769.28

     exc-cor stress (kbar)   -333.86     -0.00     -0.00
                               -0.00   -333.86      0.00
                               -0.00      0.00   -356.54

     corecor stress (kbar)   -352.51      0.00      0.00
                                0.00   -352.51     -0.00
                                0.00     -0.00   -338.67

     ewald   stress (kbar)  22669.65     -0.00     -0.00
                               -0.00  22669.65     -0.00
                               -0.00     -0.00 -28482.36

     hubbard stress (kbar)      0.00      0.00      0.00
                                0.00      0.00      0.00
                                0.00      0.00      0.00

     DFT-D   stress (kbar)      0.00      0.00      0.00
                                0.00      0.00      0.00
                                0.00      0.00      0.00

     XDM     stress (kbar)      0.00      0.00      0.00
                                0.00      0.00      0.00
                                0.00      0.00      0.00

     dft-nl  stress (kbar)      0.00      0.00      0.00
                                0.00      0.00      0.00
                                0.00      0.00      0.00

     TS-vdW  stress (kbar)      0.00      0.00      0.00
                                0.00      0.00      0.00
                                0.00      0.00      0.00

     MDB     stress (kbar)      0.00      0.00      0.00
                                0.00      0.00      0.00
                                0.00      0.00      0.00

     3D-RISM stress (kbar)      0.00      0.00      0.00
                                0.00      0.00      0.00
                                0.00      0.00      0.00


     Writing all to output data dir ./tmp/hBN_PBE.save/

     init_run     :      0.45s CPU      0.46s WALL (       1 calls)
     electrons    :      1.31s CPU      1.14s WALL (       1 calls)
     forces       :      0.03s CPU      0.03s WALL (       1 calls)
     stress       :      0.14s CPU      0.15s WALL (       1 calls)

     Called by init_run:
     wfcinit      :      0.18s CPU      0.18s WALL (       1 calls)
     wfcinit:atom :      0.00s CPU      0.00s WALL (      30 calls)
     wfcinit:wfcr :      0.17s CPU      0.17s WALL (      30 calls)
     potinit      :      0.01s CPU      0.01s WALL (       1 calls)
     hinit0       :      0.26s CPU      0.26s WALL (       1 calls)

     Called by electrons:
     c_bands      :      1.18s CPU      1.00s WALL (       6 calls)
     sum_band     :      0.10s CPU      0.10s WALL (       6 calls)
     v_of_rho     :      0.03s CPU      0.04s WALL (       7 calls)
     v_h          :      0.00s CPU      0.00s WALL (       7 calls)
     v_xc         :      0.04s CPU      0.05s WALL (       9 calls)
     mix_rho      :      0.00s CPU      0.01s WALL (       6 calls)

     Called by c_bands:
     init_us_2    :      0.05s CPU      0.05s WALL (     450 calls)
     init_us_2:cp :      0.05s CPU      0.05s WALL (     450 calls)
     cegterg      :      1.13s CPU      0.94s WALL (     180 calls)

     Called by sum_band:
     sum_band:wei :      0.00s CPU      0.00s WALL (       6 calls)
     sum_band:loo :      0.10s CPU      0.10s WALL (       6 calls)
     sum_band:buf :      0.00s CPU      0.00s WALL (     180 calls)
     sum_band:ini :      0.02s CPU      0.02s WALL (     180 calls)

     Called by *egterg:
     cdiaghg      :      0.07s CPU      0.07s WALL (     984 calls)
     cegterg:over :      0.07s CPU      0.07s WALL (     804 calls)
     cegterg:upda :      0.14s CPU      0.07s WALL (     804 calls)
     cegterg:last :      0.10s CPU      0.04s WALL (     451 calls)
     h_psi        :      0.87s CPU      0.81s WALL (    1014 calls)
     g_psi        :      0.01s CPU      0.01s WALL (     804 calls)

     Called by h_psi:
     h_psi:calbec :      0.04s CPU      0.04s WALL (    1014 calls)
     vloc_psi     :      0.67s CPU      0.69s WALL (    1014 calls)
     add_vuspsi   :      0.15s CPU      0.06s WALL (    1014 calls)

     General routines
     calbec       :      0.05s CPU      0.05s WALL (    1164 calls)
     fft          :      0.24s CPU      0.24s WALL (      94 calls)
     ffts         :      0.00s CPU      0.00s WALL (       6 calls)
     fftw         :      0.59s CPU      0.60s WALL (   10708 calls)

     Parallel routines

     PWSCF        :      2.01s CPU      1.86s WALL


   This run was terminated on:  11: 1:32  16Apr2024            

=------------------------------------------------------------------------------=
   JOB DONE.
=------------------------------------------------------------------------------=
