MPI startup(): Warning: I_MPI_PMI_LIBRARY will be ignored since the hydra process manager was found

     Program PROJWFC v.6.8 starts on 15Apr2024 at 14: 3:33 

     This program is part of the open-source Quantum ESPRESSO suite
     for quantum simulation of materials; please cite
         "P. Giannozzi et al., J. Phys.:Condens. Matter 21 395502 (2009);
         "P. Giannozzi et al., J. Phys.:Condens. Matter 29 465901 (2017);
         "P. Giannozzi et al., J. Chem. Phys. 152 154105 (2020);
          URL http://www.quantum-espresso.org", 
     in publications or presentations arising from this work. More details at
     http://www.quantum-espresso.org/quote

     Parallel version (MPI), running on     1 processors

     MPI processes distributed on     1 nodes
     1362927 MiB available memory on the printing compute node when the environment starts
 

     Reading xml data from directory:

     ./tmp/2L-MoS2.save/

     IMPORTANT: XC functional enforced from input :
     Exchange-correlation= PBE
                           (   1   4   3   4   0   0   0)
     Any further DFT definition will be discarded
     Please, verify this is what you really want

 
     G-vector sticks info
     --------------------
     sticks:   dense  smooth     PW     G-vecs:    dense   smooth      PW
     Sum         583     583    169                94219    94219   15095
 
     Using Slab Decomposition
 

     Gaussian broadening (default values): ngauss,degauss=   0    0.000735


     Calling projwave .... 

     Subspace diagonalization in iterative solution of the eigenvalue problem:
     a serial algorithm will be used

 
  Problem Sizes 
  natomwfc =           72
  nbnd     =           58
  nkstot   =           41
  npwx     =        11863
  nkb      =          204
 

     Atomic states used for projection
     (read from pseudopotential files):

     state #   1: atom   1 (Mo ), wfc  1 (l=0 j=0.5 m_j=-0.5)
     state #   2: atom   1 (Mo ), wfc  1 (l=0 j=0.5 m_j= 0.5)
     state #   3: atom   1 (Mo ), wfc  2 (l=1 j=1.5 m_j=-1.5)
     state #   4: atom   1 (Mo ), wfc  2 (l=1 j=1.5 m_j=-0.5)
     state #   5: atom   1 (Mo ), wfc  2 (l=1 j=1.5 m_j= 0.5)
     state #   6: atom   1 (Mo ), wfc  2 (l=1 j=1.5 m_j= 1.5)
     state #   7: atom   1 (Mo ), wfc  3 (l=1 j=0.5 m_j=-0.5)
     state #   8: atom   1 (Mo ), wfc  3 (l=1 j=0.5 m_j= 0.5)
     state #   9: atom   1 (Mo ), wfc  4 (l=2 j=2.5 m_j=-2.5)
     state #  10: atom   1 (Mo ), wfc  4 (l=2 j=2.5 m_j=-1.5)
     state #  11: atom   1 (Mo ), wfc  4 (l=2 j=2.5 m_j=-0.5)
     state #  12: atom   1 (Mo ), wfc  4 (l=2 j=2.5 m_j= 0.5)
     state #  13: atom   1 (Mo ), wfc  4 (l=2 j=2.5 m_j= 1.5)
     state #  14: atom   1 (Mo ), wfc  4 (l=2 j=2.5 m_j= 2.5)
     state #  15: atom   1 (Mo ), wfc  5 (l=2 j=1.5 m_j=-1.5)
     state #  16: atom   1 (Mo ), wfc  5 (l=2 j=1.5 m_j=-0.5)
     state #  17: atom   1 (Mo ), wfc  5 (l=2 j=1.5 m_j= 0.5)
     state #  18: atom   1 (Mo ), wfc  5 (l=2 j=1.5 m_j= 1.5)
     state #  19: atom   1 (Mo ), wfc  6 (l=0 j=0.5 m_j=-0.5)
     state #  20: atom   1 (Mo ), wfc  6 (l=0 j=0.5 m_j= 0.5)
     state #  21: atom   2 (S  ), wfc  1 (l=0 j=0.5 m_j=-0.5)
     state #  22: atom   2 (S  ), wfc  1 (l=0 j=0.5 m_j= 0.5)
     state #  23: atom   2 (S  ), wfc  2 (l=1 j=1.5 m_j=-1.5)
     state #  24: atom   2 (S  ), wfc  2 (l=1 j=1.5 m_j=-0.5)
     state #  25: atom   2 (S  ), wfc  2 (l=1 j=1.5 m_j= 0.5)
     state #  26: atom   2 (S  ), wfc  2 (l=1 j=1.5 m_j= 1.5)
     state #  27: atom   2 (S  ), wfc  3 (l=1 j=0.5 m_j=-0.5)
     state #  28: atom   2 (S  ), wfc  3 (l=1 j=0.5 m_j= 0.5)
     state #  29: atom   3 (S  ), wfc  1 (l=0 j=0.5 m_j=-0.5)
     state #  30: atom   3 (S  ), wfc  1 (l=0 j=0.5 m_j= 0.5)
     state #  31: atom   3 (S  ), wfc  2 (l=1 j=1.5 m_j=-1.5)
     state #  32: atom   3 (S  ), wfc  2 (l=1 j=1.5 m_j=-0.5)
     state #  33: atom   3 (S  ), wfc  2 (l=1 j=1.5 m_j= 0.5)
     state #  34: atom   3 (S  ), wfc  2 (l=1 j=1.5 m_j= 1.5)
     state #  35: atom   3 (S  ), wfc  3 (l=1 j=0.5 m_j=-0.5)
     state #  36: atom   3 (S  ), wfc  3 (l=1 j=0.5 m_j= 0.5)
     state #  37: atom   4 (Mo ), wfc  1 (l=0 j=0.5 m_j=-0.5)
     state #  38: atom   4 (Mo ), wfc  1 (l=0 j=0.5 m_j= 0.5)
     state #  39: atom   4 (Mo ), wfc  2 (l=1 j=1.5 m_j=-1.5)
     state #  40: atom   4 (Mo ), wfc  2 (l=1 j=1.5 m_j=-0.5)
     state #  41: atom   4 (Mo ), wfc  2 (l=1 j=1.5 m_j= 0.5)
     state #  42: atom   4 (Mo ), wfc  2 (l=1 j=1.5 m_j= 1.5)
     state #  43: atom   4 (Mo ), wfc  3 (l=1 j=0.5 m_j=-0.5)
     state #  44: atom   4 (Mo ), wfc  3 (l=1 j=0.5 m_j= 0.5)
     state #  45: atom   4 (Mo ), wfc  4 (l=2 j=2.5 m_j=-2.5)
     state #  46: atom   4 (Mo ), wfc  4 (l=2 j=2.5 m_j=-1.5)
     state #  47: atom   4 (Mo ), wfc  4 (l=2 j=2.5 m_j=-0.5)
     state #  48: atom   4 (Mo ), wfc  4 (l=2 j=2.5 m_j= 0.5)
     state #  49: atom   4 (Mo ), wfc  4 (l=2 j=2.5 m_j= 1.5)
     state #  50: atom   4 (Mo ), wfc  4 (l=2 j=2.5 m_j= 2.5)
     state #  51: atom   4 (Mo ), wfc  5 (l=2 j=1.5 m_j=-1.5)
     state #  52: atom   4 (Mo ), wfc  5 (l=2 j=1.5 m_j=-0.5)
     state #  53: atom   4 (Mo ), wfc  5 (l=2 j=1.5 m_j= 0.5)
     state #  54: atom   4 (Mo ), wfc  5 (l=2 j=1.5 m_j= 1.5)
     state #  55: atom   4 (Mo ), wfc  6 (l=0 j=0.5 m_j=-0.5)
     state #  56: atom   4 (Mo ), wfc  6 (l=0 j=0.5 m_j= 0.5)
     state #  57: atom   5 (S  ), wfc  1 (l=0 j=0.5 m_j=-0.5)
     state #  58: atom   5 (S  ), wfc  1 (l=0 j=0.5 m_j= 0.5)
     state #  59: atom   5 (S  ), wfc  2 (l=1 j=1.5 m_j=-1.5)
     state #  60: atom   5 (S  ), wfc  2 (l=1 j=1.5 m_j=-0.5)
     state #  61: atom   5 (S  ), wfc  2 (l=1 j=1.5 m_j= 0.5)
     state #  62: atom   5 (S  ), wfc  2 (l=1 j=1.5 m_j= 1.5)
     state #  63: atom   5 (S  ), wfc  3 (l=1 j=0.5 m_j=-0.5)
     state #  64: atom   5 (S  ), wfc  3 (l=1 j=0.5 m_j= 0.5)
     state #  65: atom   6 (S  ), wfc  1 (l=0 j=0.5 m_j=-0.5)
     state #  66: atom   6 (S  ), wfc  1 (l=0 j=0.5 m_j= 0.5)
     state #  67: atom   6 (S  ), wfc  2 (l=1 j=1.5 m_j=-1.5)
     state #  68: atom   6 (S  ), wfc  2 (l=1 j=1.5 m_j=-0.5)
     state #  69: atom   6 (S  ), wfc  2 (l=1 j=1.5 m_j= 0.5)
     state #  70: atom   6 (S  ), wfc  2 (l=1 j=1.5 m_j= 1.5)
     state #  71: atom   6 (S  ), wfc  3 (l=1 j=0.5 m_j=-0.5)
     state #  72: atom   6 (S  ), wfc  3 (l=1 j=0.5 m_j= 0.5)

 k =   0.0000000000  0.0000000000  0.0000000000
==== e(   1) =   -58.89293 eV ==== 
     psi = 0.477*[#   1]+0.477*[#   2]+0.010*[#  19]+0.010*[#  20]+0.003*[#  24]
          +0.003*[#  25]+0.003*[#  32]+0.003*[#  33]+0.002*[#  27]+0.002*[#  28]
          +0.002*[#  35]+0.002*[#  36]+0.001*[#  11]+0.001*[#  12]
    |psi|^2 = 1.000
==== e(   2) =   -58.89293 eV ==== 
     psi = 0.477*[#   1]+0.477*[#   2]+0.010*[#  19]+0.010*[#  20]+0.003*[#  24]
          +0.003*[#  25]+0.003*[#  32]+0.003*[#  33]+0.002*[#  27]+0.002*[#  28]
          +0.002*[#  35]+0.002*[#  36]+0.001*[#  11]+0.001*[#  12]
    |psi|^2 = 1.000
==== e(   3) =   -58.88581 eV ==== 
     psi = 0.477*[#  37]+0.477*[#  38]+0.010*[#  55]+0.010*[#  56]+0.003*[#  60]
          +0.003*[#  61]+0.003*[#  68]+0.003*[#  69]+0.002*[#  63]+0.002*[#  64]
          +0.002*[#  71]+0.002*[#  72]+0.001*[#  47]+0.001*[#  48]
    |psi|^2 = 1.000
==== e(   4) =   -58.88581 eV ==== 
     psi = 0.477*[#  37]+0.477*[#  38]+0.010*[#  55]+0.010*[#  56]+0.003*[#  60]
          +0.003*[#  61]+0.003*[#  68]+0.003*[#  69]+0.002*[#  63]+0.002*[#  64]
          +0.002*[#  71]+0.002*[#  72]+0.001*[#  47]+0.001*[#  48]
    |psi|^2 = 1.000
==== e(   5) =   -34.60736 eV ==== 
     psi = 0.494*[#   7]+0.494*[#   8]+0.001*[#  43]+0.001*[#  44]+0.001*[#  21]
          +0.001*[#  22]+0.001*[#  29]+0.001*[#  30]
    |psi|^2 = 1.000
==== e(   6) =   -34.60736 eV ==== 
     psi = 0.494*[#   7]+0.494*[#   8]+0.001*[#  43]+0.001*[#  44]+0.001*[#  21]
          +0.001*[#  22]+0.001*[#  29]+0.001*[#  30]
    |psi|^2 = 1.000
==== e(   7) =   -34.60040 eV ==== 
     psi = 0.494*[#  43]+0.494*[#  44]+0.001*[#   7]+0.001*[#   8]+0.001*[#  57]
          +0.001*[#  58]+0.001*[#  65]+0.001*[#  66]
    |psi|^2 = 1.000
==== e(   8) =   -34.60040 eV ==== 
     psi = 0.494*[#  43]+0.494*[#  44]+0.001*[#   7]+0.001*[#   8]+0.001*[#  57]
          +0.001*[#  58]+0.001*[#  65]+0.001*[#  66]
    |psi|^2 = 1.000
==== e(   9) =   -32.18680 eV ==== 
     psi = 0.489*[#   4]+0.489*[#   5]+0.002*[#  21]+0.002*[#  22]+0.002*[#  29]
          +0.002*[#  30]+0.002*[#  40]+0.002*[#  41]+0.001*[#   7]+0.001*[#   8]
          +0.001*[#  24]+0.001*[#  25]+0.001*[#  32]+0.001*[#  33]
    |psi|^2 = 1.000
==== e(  10) =   -32.18680 eV ==== 
     psi = 0.489*[#   4]+0.489*[#   5]+0.002*[#  21]+0.002*[#  22]+0.002*[#  29]
          +0.002*[#  30]+0.002*[#  40]+0.002*[#  41]+0.001*[#   7]+0.001*[#   8]
          +0.001*[#  24]+0.001*[#  25]+0.001*[#  32]+0.001*[#  33]
    |psi|^2 = 1.000
==== e(  11) =   -32.17997 eV ==== 
     psi = 0.489*[#  40]+0.489*[#  41]+0.002*[#  57]+0.002*[#  58]+0.002*[#  65]
          +0.002*[#  66]+0.002*[#   4]+0.002*[#   5]+0.001*[#  43]+0.001*[#  44]
          +0.001*[#  60]+0.001*[#  61]+0.001*[#  68]+0.001*[#  69]
    |psi|^2 = 1.000
==== e(  12) =   -32.17997 eV ==== 
     psi = 0.489*[#  40]+0.489*[#  41]+0.002*[#  57]+0.002*[#  58]+0.002*[#  65]
          +0.002*[#  66]+0.002*[#   4]+0.002*[#   5]+0.001*[#  43]+0.001*[#  44]
          +0.001*[#  60]+0.001*[#  61]+0.001*[#  68]+0.001*[#  69]
    |psi|^2 = 1.000
==== e(  13) =   -32.01091 eV ==== 
     psi = 0.497*[#   3]+0.497*[#   6]+0.001*[#  39]+0.001*[#  42]
    |psi|^2 = 1.000
==== e(  14) =   -32.01091 eV ==== 
     psi = 0.497*[#   3]+0.497*[#   6]+0.001*[#  39]+0.001*[#  42]
    |psi|^2 = 1.000
==== e(  15) =   -32.00389 eV ==== 
     psi = 0.497*[#  39]+0.497*[#  42]+0.001*[#   3]+0.001*[#   6]
    |psi|^2 = 1.000
==== e(  16) =   -32.00389 eV ==== 
     psi = 0.497*[#  39]+0.497*[#  42]+0.001*[#   3]+0.001*[#   6]
    |psi|^2 = 1.000
==== e(  17) =   -12.30563 eV ==== 
     psi = 0.111*[#  19]+0.111*[#  20]+0.106*[#  55]+0.106*[#  56]+0.080*[#  29]
          +0.080*[#  30]+0.077*[#  57]+0.077*[#  58]+0.057*[#  21]+0.057*[#  22]
          +0.054*[#  65]+0.054*[#  66]+0.005*[#   1]+0.005*[#   2]+0.005*[#  37]
          +0.005*[#  38]+0.001*[#  24]+0.001*[#  25]
    |psi|^2 = 0.999
==== e(  18) =   -12.30563 eV ==== 
     psi = 0.111*[#  19]+0.111*[#  20]+0.106*[#  55]+0.106*[#  56]+0.080*[#  29]
          +0.080*[#  30]+0.077*[#  57]+0.077*[#  58]+0.057*[#  21]+0.057*[#  22]
          +0.054*[#  65]+0.054*[#  66]+0.005*[#   1]+0.005*[#   2]+0.005*[#  37]
          +0.005*[#  38]+0.001*[#  24]+0.001*[#  25]
    |psi|^2 = 0.999
==== e(  19) =   -12.17400 eV ==== 
     psi = 0.107*[#  55]+0.107*[#  56]+0.102*[#  19]+0.102*[#  20]+0.079*[#  65]
          +0.079*[#  66]+0.076*[#  21]+0.076*[#  22]+0.060*[#  57]+0.060*[#  58]
          +0.056*[#  29]+0.056*[#  30]+0.005*[#  37]+0.005*[#  38]+0.005*[#   1]
          +0.005*[#   2]+0.002*[#  32]+0.002*[#  33]+0.002*[#  60]+0.002*[#  61]
          
    |psi|^2 = 0.999
==== e(  20) =   -12.17400 eV ==== 
     psi = 0.107*[#  55]+0.107*[#  56]+0.102*[#  19]+0.102*[#  20]+0.079*[#  65]
          +0.079*[#  66]+0.076*[#  21]+0.076*[#  22]+0.060*[#  57]+0.060*[#  58]
          +0.056*[#  29]+0.056*[#  30]+0.005*[#  37]+0.005*[#  38]+0.005*[#   1]
          +0.005*[#   2]+0.002*[#  32]+0.002*[#  33]+0.002*[#  60]+0.002*[#  61]
          
    |psi|^2 = 0.999
==== e(  21) =   -11.06022 eV ==== 
     psi = 0.136*[#  21]+0.136*[#  22]+0.133*[#  65]+0.133*[#  66]+0.110*[#  29]
          +0.110*[#  30]+0.107*[#  57]+0.107*[#  58]+0.002*[#   4]+0.002*[#   5]
          +0.002*[#  40]+0.002*[#  41]+0.001*[#  32]+0.001*[#  33]+0.001*[#  60]
          +0.001*[#  61]
    |psi|^2 = 0.996
==== e(  22) =   -11.06022 eV ==== 
     psi = 0.136*[#  21]+0.136*[#  22]+0.133*[#  65]+0.133*[#  66]+0.110*[#  29]
          +0.110*[#  30]+0.107*[#  57]+0.107*[#  58]+0.002*[#   4]+0.002*[#   5]
          +0.002*[#  40]+0.002*[#  41]+0.001*[#  32]+0.001*[#  33]+0.001*[#  60]
          +0.001*[#  61]
    |psi|^2 = 0.996
==== e(  23) =   -10.85071 eV ==== 
     psi = 0.134*[#  57]+0.134*[#  58]+0.131*[#  29]+0.131*[#  30]+0.113*[#  65]
          +0.113*[#  66]+0.110*[#  21]+0.110*[#  22]+0.003*[#   4]+0.003*[#   5]
          +0.003*[#  40]+0.003*[#  41]
    |psi|^2 = 0.996
==== e(  24) =   -10.85071 eV ==== 
     psi = 0.134*[#  57]+0.134*[#  58]+0.131*[#  29]+0.131*[#  30]+0.113*[#  65]
          +0.113*[#  66]+0.110*[#  21]+0.110*[#  22]+0.003*[#   4]+0.003*[#   5]
          +0.003*[#  40]+0.003*[#  41]
    |psi|^2 = 0.996
==== e(  25) =    -4.02658 eV ==== 
     psi = 0.061*[#  32]+0.061*[#  33]+0.060*[#  60]+0.060*[#  61]+0.045*[#  11]
          +0.045*[#  12]+0.044*[#  47]+0.044*[#  48]+0.036*[#  24]+0.036*[#  25]
          +0.036*[#  68]+0.036*[#  69]+0.031*[#  35]+0.031*[#  36]+0.030*[#  63]
          +0.030*[#  64]+0.030*[#  16]+0.030*[#  17]+0.030*[#  52]+0.030*[#  53]
          +0.018*[#  27]+0.018*[#  28]+0.018*[#  71]+0.018*[#  72]+0.010*[#  21]
          +0.010*[#  22]+0.010*[#  65]+0.010*[#  66]+0.007*[#  19]+0.007*[#  20]
          +0.007*[#  55]+0.007*[#  56]+0.006*[#   1]+0.006*[#   2]+0.006*[#  37]
          +0.006*[#  38]+0.005*[#  29]+0.005*[#  30]+0.004*[#  57]+0.004*[#  58]
          
    |psi|^2 = 0.988
==== e(  26) =    -4.02658 eV ==== 
     psi = 0.061*[#  32]+0.061*[#  33]+0.060*[#  60]+0.060*[#  61]+0.045*[#  11]
          +0.045*[#  12]+0.044*[#  47]+0.044*[#  48]+0.036*[#  24]+0.036*[#  25]
          +0.036*[#  68]+0.036*[#  69]+0.031*[#  35]+0.031*[#  36]+0.030*[#  63]
          +0.030*[#  64]+0.030*[#  16]+0.030*[#  17]+0.030*[#  52]+0.030*[#  53]
          +0.018*[#  27]+0.018*[#  28]+0.018*[#  71]+0.018*[#  72]+0.010*[#  21]
          +0.010*[#  22]+0.010*[#  65]+0.010*[#  66]+0.007*[#  19]+0.007*[#  20]
          +0.007*[#  55]+0.007*[#  56]+0.006*[#   1]+0.006*[#   2]+0.006*[#  37]
          +0.006*[#  38]+0.005*[#  29]+0.005*[#  30]+0.004*[#  57]+0.004*[#  58]
          
    |psi|^2 = 0.988
==== e(  27) =    -3.52624 eV ==== 
     psi = 0.054*[#  47]+0.054*[#  48]+0.054*[#  11]+0.054*[#  12]+0.051*[#  68]
          +0.051*[#  69]+0.050*[#  24]+0.050*[#  25]+0.037*[#  52]+0.037*[#  53]
          +0.037*[#  16]+0.037*[#  17]+0.030*[#  60]+0.030*[#  61]+0.030*[#  32]
          +0.030*[#  33]+0.026*[#  71]+0.026*[#  72]+0.026*[#  27]+0.026*[#  28]
          +0.015*[#  63]+0.015*[#  64]+0.015*[#  35]+0.015*[#  36]+0.012*[#  29]
          +0.012*[#  30]+0.013*[#  57]+0.013*[#  58]+0.008*[#  55]+0.008*[#  56]
          +0.008*[#  19]+0.008*[#  20]+0.008*[#  65]+0.008*[#  66]+0.008*[#  21]
          +0.008*[#  22]+0.006*[#   1]+0.006*[#   2]+0.006*[#  37]+0.006*[#  38]
          
    |psi|^2 = 0.985
==== e(  28) =    -3.52624 eV ==== 
     psi = 0.054*[#  47]+0.054*[#  48]+0.054*[#  11]+0.054*[#  12]+0.051*[#  68]
          +0.051*[#  69]+0.050*[#  24]+0.050*[#  25]+0.037*[#  52]+0.037*[#  53]
          +0.037*[#  16]+0.037*[#  17]+0.030*[#  60]+0.030*[#  61]+0.030*[#  32]
          +0.030*[#  33]+0.026*[#  71]+0.026*[#  72]+0.026*[#  27]+0.026*[#  28]
          +0.015*[#  63]+0.015*[#  64]+0.015*[#  35]+0.015*[#  36]+0.012*[#  29]
          +0.012*[#  30]+0.013*[#  57]+0.013*[#  58]+0.008*[#  55]+0.008*[#  56]
          +0.008*[#  19]+0.008*[#  20]+0.008*[#  65]+0.008*[#  66]+0.008*[#  21]
          +0.008*[#  22]+0.006*[#   1]+0.006*[#   2]+0.006*[#  37]+0.006*[#  38]
          
    |psi|^2 = 0.985
==== e(  29) =    -0.63274 eV ==== 
     psi = 0.241*[#  15]+0.241*[#  18]+0.064*[#  23]+0.064*[#  26]+0.064*[#  31]
          +0.064*[#  34]+0.048*[#  10]+0.048*[#  13]+0.045*[#  51]+0.045*[#  54]
          +0.012*[#  59]+0.012*[#  62]+0.012*[#  67]+0.012*[#  70]+0.009*[#  46]
          +0.009*[#  49]
    |psi|^2 = 0.991
==== e(  30) =    -0.63274 eV ==== 
     psi = 0.241*[#  15]+0.241*[#  18]+0.064*[#  23]+0.064*[#  26]+0.064*[#  31]
          +0.064*[#  34]+0.048*[#  10]+0.048*[#  13]+0.045*[#  51]+0.045*[#  54]
          +0.012*[#  59]+0.012*[#  62]+0.012*[#  67]+0.012*[#  70]+0.009*[#  46]
          +0.009*[#  49]
    |psi|^2 = 0.991
==== e(  31) =    -0.62520 eV ==== 
     psi = 0.241*[#  51]+0.241*[#  54]+0.064*[#  67]+0.064*[#  70]+0.063*[#  59]
          +0.063*[#  62]+0.048*[#  46]+0.048*[#  49]+0.046*[#  15]+0.046*[#  18]
          +0.012*[#  23]+0.012*[#  26]+0.011*[#  31]+0.011*[#  34]+0.009*[#  10]
          +0.009*[#  13]
    |psi|^2 = 0.991
==== e(  32) =    -0.62520 eV ==== 
     psi = 0.241*[#  51]+0.241*[#  54]+0.064*[#  67]+0.064*[#  70]+0.063*[#  59]
          +0.063*[#  62]+0.048*[#  46]+0.048*[#  49]+0.046*[#  15]+0.046*[#  18]
          +0.012*[#  23]+0.012*[#  26]+0.011*[#  31]+0.011*[#  34]+0.009*[#  10]
          +0.009*[#  13]
    |psi|^2 = 0.991
==== e(  33) =    -0.57469 eV ==== 
     psi = 0.193*[#   9]+0.193*[#  14]+0.106*[#  45]+0.106*[#  50]+0.059*[#  35]
          +0.059*[#  36]+0.057*[#  27]+0.057*[#  28]+0.039*[#  63]+0.039*[#  64]
          +0.037*[#  71]+0.037*[#  72]+0.001*[#  24]+0.001*[#  25]+0.001*[#  32]
          +0.001*[#  33]
    |psi|^2 = 0.991
==== e(  34) =    -0.57469 eV ==== 
     psi = 0.193*[#   9]+0.193*[#  14]+0.106*[#  45]+0.106*[#  50]+0.059*[#  35]
          +0.059*[#  36]+0.057*[#  27]+0.057*[#  28]+0.039*[#  63]+0.039*[#  64]
          +0.037*[#  71]+0.037*[#  72]+0.001*[#  24]+0.001*[#  25]+0.001*[#  32]
          +0.001*[#  33]
    |psi|^2 = 0.991
==== e(  35) =    -0.55728 eV ==== 
     psi = 0.209*[#  45]+0.209*[#  50]+0.124*[#   9]+0.124*[#  14]+0.041*[#  71]
          +0.041*[#  72]+0.039*[#  63]+0.039*[#  64]+0.019*[#  27]+0.019*[#  28]
          +0.018*[#  35]+0.018*[#  36]+0.011*[#  68]+0.011*[#  69]+0.011*[#  24]
          +0.011*[#  25]+0.011*[#  60]+0.011*[#  61]+0.011*[#  32]+0.011*[#  33]
          
    |psi|^2 = 0.991
==== e(  36) =    -0.55728 eV ==== 
     psi = 0.209*[#  45]+0.209*[#  50]+0.124*[#   9]+0.124*[#  14]+0.041*[#  71]
          +0.041*[#  72]+0.039*[#  63]+0.039*[#  64]+0.019*[#  27]+0.019*[#  28]
          +0.018*[#  35]+0.018*[#  36]+0.011*[#  68]+0.011*[#  69]+0.011*[#  24]
          +0.011*[#  25]+0.011*[#  60]+0.011*[#  61]+0.011*[#  32]+0.011*[#  33]
          
    |psi|^2 = 0.991
==== e(  37) =    -0.46025 eV ==== 
     psi = 0.095*[#  60]+0.095*[#  61]+0.094*[#  32]+0.094*[#  33]+0.088*[#  68]
          +0.088*[#  69]+0.087*[#  24]+0.087*[#  25]+0.021*[#  35]+0.021*[#  36]
          +0.020*[#  63]+0.020*[#  64]+0.019*[#  45]+0.019*[#  50]+0.018*[#  27]
          +0.018*[#  28]+0.017*[#   9]+0.017*[#  14]+0.017*[#  71]+0.017*[#  72]
          +0.004*[#  11]+0.004*[#  12]+0.004*[#  47]+0.004*[#  48]+0.003*[#  16]
          +0.003*[#  17]+0.003*[#  52]+0.003*[#  53]+0.001*[#   4]+0.001*[#   5]
          +0.001*[#  29]+0.001*[#  30]+0.001*[#  40]+0.001*[#  41]+0.001*[#  57]
          +0.001*[#  58]
    |psi|^2 = 0.992
==== e(  38) =    -0.46025 eV ==== 
     psi = 0.095*[#  60]+0.095*[#  61]+0.094*[#  32]+0.094*[#  33]+0.088*[#  68]
          +0.088*[#  69]+0.087*[#  24]+0.087*[#  25]+0.021*[#  35]+0.021*[#  36]
          +0.020*[#  63]+0.020*[#  64]+0.019*[#  45]+0.019*[#  50]+0.018*[#  27]
          +0.018*[#  28]+0.017*[#   9]+0.017*[#  14]+0.017*[#  71]+0.017*[#  72]
          +0.004*[#  11]+0.004*[#  12]+0.004*[#  47]+0.004*[#  48]+0.003*[#  16]
          +0.003*[#  17]+0.003*[#  52]+0.003*[#  53]+0.001*[#   4]+0.001*[#   5]
          +0.001*[#  29]+0.001*[#  30]+0.001*[#  40]+0.001*[#  41]+0.001*[#  57]
          +0.001*[#  58]
    |psi|^2 = 0.992
==== e(  39) =     0.46795 eV ==== 
     psi = 0.119*[#  16]+0.119*[#  17]+0.070*[#  52]+0.070*[#  53]+0.059*[#  11]
          +0.059*[#  12]+0.051*[#  27]+0.051*[#  28]+0.043*[#  35]+0.043*[#  36]
          +0.036*[#  47]+0.036*[#  48]+0.029*[#  63]+0.029*[#  64]+0.028*[#  71]
          +0.028*[#  72]+0.022*[#  32]+0.022*[#  33]+0.014*[#  24]+0.014*[#  25]
          +0.011*[#  68]+0.011*[#  69]+0.011*[#  60]+0.011*[#  61]
    |psi|^2 = 0.988
==== e(  40) =     0.46795 eV ==== 
     psi = 0.119*[#  16]+0.119*[#  17]+0.070*[#  52]+0.070*[#  53]+0.059*[#  11]
          +0.059*[#  12]+0.051*[#  27]+0.051*[#  28]+0.043*[#  35]+0.043*[#  36]
          +0.036*[#  47]+0.036*[#  48]+0.029*[#  63]+0.029*[#  64]+0.028*[#  71]
          +0.028*[#  72]+0.022*[#  32]+0.022*[#  33]+0.014*[#  24]+0.014*[#  25]
          +0.011*[#  68]+0.011*[#  69]+0.011*[#  60]+0.011*[#  61]
    |psi|^2 = 0.988
==== e(  41) =     0.48515 eV ==== 
     psi = 0.123*[#  52]+0.123*[#  53]+0.074*[#  16]+0.074*[#  17]+0.070*[#  71]
          +0.070*[#  72]+0.048*[#  47]+0.048*[#  48]+0.045*[#  27]+0.045*[#  28]
          +0.039*[#  60]+0.039*[#  61]+0.027*[#  32]+0.027*[#  33]+0.026*[#  63]
          +0.026*[#  64]+0.026*[#  11]+0.026*[#  12]+0.013*[#  35]+0.013*[#  36]
          +0.002*[#  68]+0.002*[#  69]
    |psi|^2 = 0.988
==== e(  42) =     0.48515 eV ==== 
     psi = 0.123*[#  52]+0.123*[#  53]+0.074*[#  16]+0.074*[#  17]+0.070*[#  71]
          +0.070*[#  72]+0.048*[#  47]+0.048*[#  48]+0.045*[#  27]+0.045*[#  28]
          +0.039*[#  60]+0.039*[#  61]+0.027*[#  32]+0.027*[#  33]+0.026*[#  63]
          +0.026*[#  64]+0.026*[#  11]+0.026*[#  12]+0.013*[#  35]+0.013*[#  36]
          +0.002*[#  68]+0.002*[#  69]
    |psi|^2 = 0.988
==== e(  43) =     0.55440 eV ==== 
     psi = 0.142*[#  10]+0.142*[#  13]+0.093*[#  46]+0.093*[#  49]+0.064*[#  31]
          +0.064*[#  34]+0.063*[#  23]+0.063*[#  26]+0.042*[#  59]+0.042*[#  62]
          +0.041*[#  67]+0.041*[#  70]+0.029*[#  15]+0.029*[#  18]+0.019*[#  51]
          +0.019*[#  54]
    |psi|^2 = 0.988
==== e(  44) =     0.55440 eV ==== 
     psi = 0.142*[#  10]+0.142*[#  13]+0.093*[#  46]+0.093*[#  49]+0.064*[#  31]
          +0.064*[#  34]+0.063*[#  23]+0.063*[#  26]+0.042*[#  59]+0.042*[#  62]
          +0.041*[#  67]+0.041*[#  70]+0.029*[#  15]+0.029*[#  18]+0.019*[#  51]
          +0.019*[#  54]
    |psi|^2 = 0.988
==== e(  45) =     0.56408 eV ==== 
     psi = 0.111*[#  68]+0.111*[#  69]+0.110*[#  24]+0.110*[#  25]+0.045*[#  63]
          +0.045*[#  64]+0.044*[#  35]+0.044*[#  36]+0.038*[#  32]+0.038*[#  33]
          +0.038*[#  60]+0.038*[#  61]+0.024*[#  27]+0.024*[#  28]+0.024*[#  47]
          +0.024*[#  48]+0.024*[#  71]+0.024*[#  72]+0.023*[#  11]+0.023*[#  12]
          +0.002*[#  46]+0.002*[#  49]+0.001*[#   4]+0.001*[#   5]+0.001*[#  40]
          +0.001*[#  41]
    |psi|^2 = 0.990
==== e(  46) =     0.56408 eV ==== 
     psi = 0.111*[#  68]+0.111*[#  69]+0.110*[#  24]+0.110*[#  25]+0.045*[#  63]
          +0.045*[#  64]+0.044*[#  35]+0.044*[#  36]+0.038*[#  32]+0.038*[#  33]
          +0.038*[#  60]+0.038*[#  61]+0.024*[#  27]+0.024*[#  28]+0.024*[#  47]
          +0.024*[#  48]+0.024*[#  71]+0.024*[#  72]+0.023*[#  11]+0.023*[#  12]
          +0.002*[#  46]+0.002*[#  49]+0.001*[#   4]+0.001*[#   5]+0.001*[#  40]
          +0.001*[#  41]
    |psi|^2 = 0.990
==== e(  47) =     0.57642 eV ==== 
     psi = 0.141*[#  46]+0.141*[#  49]+0.093*[#  10]+0.093*[#  13]+0.062*[#  59]
          +0.062*[#  62]+0.062*[#  67]+0.062*[#  70]+0.040*[#  23]+0.040*[#  26]
          +0.040*[#  31]+0.040*[#  34]+0.029*[#  51]+0.029*[#  54]+0.019*[#  15]
          +0.019*[#  18]+0.002*[#  24]+0.002*[#  25]+0.002*[#  68]+0.002*[#  69]
          
    |psi|^2 = 0.987
==== e(  48) =     0.57642 eV ==== 
     psi = 0.141*[#  46]+0.141*[#  49]+0.093*[#  10]+0.093*[#  13]+0.062*[#  59]
          +0.062*[#  62]+0.062*[#  67]+0.062*[#  70]+0.040*[#  23]+0.040*[#  26]
          +0.040*[#  31]+0.040*[#  34]+0.029*[#  51]+0.029*[#  54]+0.019*[#  15]
          +0.019*[#  18]+0.002*[#  24]+0.002*[#  25]+0.002*[#  68]+0.002*[#  69]
          
    |psi|^2 = 0.987
==== e(  49) =     1.63732 eV ==== 
     psi = 0.098*[#  11]+0.098*[#  12]+0.097*[#  47]+0.097*[#  48]+0.053*[#  16]
          +0.053*[#  17]+0.052*[#  52]+0.052*[#  53]+0.049*[#  24]+0.049*[#  25]
          +0.049*[#  68]+0.049*[#  69]+0.018*[#  32]+0.018*[#  33]+0.018*[#  27]
          +0.018*[#  28]+0.018*[#  60]+0.018*[#  61]+0.018*[#  71]+0.018*[#  72]
          +0.005*[#  35]+0.005*[#  36]+0.005*[#  63]+0.005*[#  64]+0.001*[#  21]
          +0.001*[#  22]+0.001*[#  65]+0.001*[#  66]
    |psi|^2 = 0.972
==== e(  50) =     1.63732 eV ==== 
     psi = 0.098*[#  11]+0.098*[#  12]+0.097*[#  47]+0.097*[#  48]+0.053*[#  16]
          +0.053*[#  17]+0.052*[#  52]+0.052*[#  53]+0.049*[#  24]+0.049*[#  25]
          +0.049*[#  68]+0.049*[#  69]+0.018*[#  32]+0.018*[#  33]+0.018*[#  27]
          +0.018*[#  28]+0.018*[#  60]+0.018*[#  61]+0.018*[#  71]+0.018*[#  72]
          +0.005*[#  35]+0.005*[#  36]+0.005*[#  63]+0.005*[#  64]+0.001*[#  21]
          +0.001*[#  22]+0.001*[#  65]+0.001*[#  66]
    |psi|^2 = 0.972
==== e(  51) =     2.29991 eV ==== 
     psi = 0.084*[#  47]+0.084*[#  48]+0.083*[#  11]+0.083*[#  12]+0.064*[#  60]
          +0.064*[#  61]+0.063*[#  32]+0.063*[#  33]+0.049*[#  52]+0.049*[#  53]
          +0.049*[#  16]+0.049*[#  17]+0.026*[#  63]+0.026*[#  64]+0.026*[#  35]
          +0.026*[#  36]+0.011*[#  68]+0.011*[#  69]+0.011*[#  24]+0.011*[#  25]
          +0.006*[#  29]+0.006*[#  30]+0.006*[#  57]+0.006*[#  58]+0.003*[#  21]
          +0.003*[#  22]+0.003*[#  65]+0.003*[#  66]+0.003*[#  27]+0.003*[#  28]
          +0.003*[#  71]+0.003*[#  72]
    |psi|^2 = 0.982
==== e(  52) =     2.29991 eV ==== 
     psi = 0.084*[#  47]+0.084*[#  48]+0.083*[#  11]+0.083*[#  12]+0.064*[#  60]
          +0.064*[#  61]+0.063*[#  32]+0.063*[#  33]+0.049*[#  52]+0.049*[#  53]
          +0.049*[#  16]+0.049*[#  17]+0.026*[#  63]+0.026*[#  64]+0.026*[#  35]
          +0.026*[#  36]+0.011*[#  68]+0.011*[#  69]+0.011*[#  24]+0.011*[#  25]
          +0.006*[#  29]+0.006*[#  30]+0.006*[#  57]+0.006*[#  58]+0.003*[#  21]
          +0.003*[#  22]+0.003*[#  65]+0.003*[#  66]+0.003*[#  27]+0.003*[#  28]
          +0.003*[#  71]+0.003*[#  72]
    |psi|^2 = 0.982
==== e(  53) =     4.71705 eV ==== 
     psi = 0.071*[#  35]+0.071*[#  36]+0.071*[#  16]+0.071*[#  17]+0.051*[#  11]
          +0.051*[#  12]+0.049*[#  63]+0.049*[#  64]+0.046*[#  52]+0.046*[#  53]
          +0.045*[#  27]+0.045*[#  28]+0.034*[#  32]+0.034*[#  33]+0.033*[#  47]
          +0.033*[#  48]+0.027*[#  71]+0.027*[#  72]+0.024*[#  60]+0.024*[#  61]
          +0.021*[#  24]+0.021*[#  25]+0.012*[#  68]+0.012*[#  69]+0.001*[#  45]
          +0.001*[#  50]+0.001*[#   9]+0.001*[#  14]
    |psi|^2 = 0.973
==== e(  54) =     4.71705 eV ==== 
     psi = 0.071*[#  35]+0.071*[#  36]+0.071*[#  16]+0.071*[#  17]+0.051*[#  11]
          +0.051*[#  12]+0.049*[#  63]+0.049*[#  64]+0.046*[#  52]+0.046*[#  53]
          +0.045*[#  27]+0.045*[#  28]+0.034*[#  32]+0.034*[#  33]+0.033*[#  47]
          +0.033*[#  48]+0.027*[#  71]+0.027*[#  72]+0.024*[#  60]+0.024*[#  61]
          +0.021*[#  24]+0.021*[#  25]+0.012*[#  68]+0.012*[#  69]+0.001*[#  45]
          +0.001*[#  50]+0.001*[#   9]+0.001*[#  14]
    |psi|^2 = 0.973
==== e(  55) =     4.73445 eV ==== 
     psi = 0.070*[#  52]+0.070*[#  53]+0.062*[#  71]+0.062*[#  72]+0.055*[#  63]
          +0.055*[#  64]+0.051*[#  47]+0.051*[#  48]+0.045*[#  16]+0.045*[#  17]
          +0.044*[#  27]+0.044*[#  28]+0.033*[#  11]+0.033*[#  12]+0.032*[#  35]
          +0.032*[#  36]+0.030*[#  68]+0.030*[#  69]+0.026*[#  60]+0.026*[#  61]
          +0.021*[#  24]+0.021*[#  25]+0.015*[#  32]+0.015*[#  33]
    |psi|^2 = 0.970
==== e(  56) =     4.73445 eV ==== 
     psi = 0.070*[#  52]+0.070*[#  53]+0.062*[#  71]+0.062*[#  72]+0.055*[#  63]
          +0.055*[#  64]+0.051*[#  47]+0.051*[#  48]+0.045*[#  16]+0.045*[#  17]
          +0.044*[#  27]+0.044*[#  28]+0.033*[#  11]+0.033*[#  12]+0.032*[#  35]
          +0.032*[#  36]+0.030*[#  68]+0.030*[#  69]+0.026*[#  60]+0.026*[#  61]
          +0.021*[#  24]+0.021*[#  25]+0.015*[#  32]+0.015*[#  33]
    |psi|^2 = 0.970
==== e(  57) =     4.79287 eV ==== 
     psi = 0.112*[#  31]+0.112*[#  34]+0.085*[#  59]+0.085*[#  62]+0.068*[#  10]
          +0.068*[#  13]+0.056*[#  23]+0.056*[#  26]+0.048*[#  46]+0.048*[#  49]
          +0.046*[#  15]+0.046*[#  18]+0.036*[#  67]+0.036*[#  70]+0.034*[#  51]
          +0.034*[#  54]
    |psi|^2 = 0.974
==== e(  58) =     4.79287 eV ==== 
     psi = 0.112*[#  31]+0.112*[#  34]+0.085*[#  59]+0.085*[#  62]+0.068*[#  10]
          +0.068*[#  13]+0.056*[#  23]+0.056*[#  26]+0.048*[#  46]+0.048*[#  49]
          +0.046*[#  15]+0.046*[#  18]+0.036*[#  67]+0.036*[#  70]+0.034*[#  51]
          +0.034*[#  54]
    |psi|^2 = 0.974

 k =   0.0000000000  0.1283000598  0.0000000000
==== e(   1) =   -58.88784 eV ==== 
     psi = 0.480*[#   1]+0.480*[#   2]+0.007*[#  19]+0.007*[#  20]+0.004*[#  24]
          +0.004*[#  25]+0.003*[#  35]+0.003*[#  36]+0.002*[#  32]+0.002*[#  33]
          
    |psi|^2 = 1.000
==== e(   2) =   -58.88784 eV ==== 
     psi = 0.480*[#   1]+0.480*[#   2]+0.007*[#  19]+0.007*[#  20]+0.004*[#  32]
          +0.004*[#  33]+0.003*[#  27]+0.003*[#  28]+0.002*[#  24]+0.002*[#  25]
          
    |psi|^2 = 1.000
==== e(   3) =   -58.88073 eV ==== 
     psi = 0.480*[#  37]+0.480*[#  38]+0.007*[#  55]+0.007*[#  56]+0.004*[#  68]
          +0.004*[#  69]+0.003*[#  63]+0.003*[#  64]+0.002*[#  60]+0.002*[#  61]
          
    |psi|^2 = 1.000
==== e(   4) =   -58.88073 eV ==== 
     psi = 0.480*[#  37]+0.480*[#  38]+0.007*[#  55]+0.007*[#  56]+0.004*[#  60]
          +0.004*[#  61]+0.003*[#  71]+0.003*[#  72]+0.002*[#  68]+0.002*[#  69]
          
    |psi|^2 = 1.000
==== e(   5) =   -34.62006 eV ==== 
     psi = 0.494*[#   7]+0.494*[#   8]+0.001*[#  21]+0.001*[#  22]
    |psi|^2 = 1.000
==== e(   6) =   -34.62003 eV ==== 
     psi = 0.494*[#   7]+0.494*[#   8]+0.001*[#  29]+0.001*[#  30]
    |psi|^2 = 1.000
==== e(   7) =   -34.61314 eV ==== 
     psi = 0.494*[#  43]+0.494*[#  44]+0.001*[#  65]+0.001*[#  66]
    |psi|^2 = 1.000
==== e(   8) =   -34.61311 eV ==== 
     psi = 0.494*[#  43]+0.494*[#  44]+0.001*[#  57]+0.001*[#  58]
    |psi|^2 = 1.000
==== e(   9) =   -32.19290 eV ==== 
     psi = 0.487*[#   4]+0.487*[#   5]+0.003*[#   3]+0.003*[#   6]+0.003*[#  21]
          +0.003*[#  22]+0.002*[#  29]+0.002*[#  30]+0.001*[#  32]+0.001*[#  33]
          +0.001*[#  24]+0.001*[#  25]
    |psi|^2 = 1.000
==== e(  10) =   -32.19285 eV ==== 
     psi = 0.487*[#   4]+0.487*[#   5]+0.003*[#   3]+0.003*[#   6]+0.003*[#  29]
          +0.003*[#  30]+0.002*[#  21]+0.002*[#  22]+0.001*[#  24]+0.001*[#  25]
          +0.001*[#  32]+0.001*[#  33]
    |psi|^2 = 1.000
==== e(  11) =   -32.18611 eV ==== 
     psi = 0.487*[#  40]+0.487*[#  41]+0.003*[#  39]+0.003*[#  42]+0.003*[#  65]
          +0.003*[#  66]+0.002*[#  57]+0.002*[#  58]+0.001*[#  60]+0.001*[#  61]
          +0.001*[#  68]+0.001*[#  69]
    |psi|^2 = 1.000
==== e(  12) =   -32.18605 eV ==== 
     psi = 0.487*[#  40]+0.487*[#  41]+0.003*[#  39]+0.003*[#  42]+0.003*[#  57]
          +0.003*[#  58]+0.002*[#  65]+0.002*[#  66]+0.001*[#  68]+0.001*[#  69]
          +0.001*[#  60]+0.001*[#  61]
    |psi|^2 = 1.000
==== e(  13) =   -32.04201 eV ==== 
     psi = 0.494*[#   3]+0.494*[#   6]+0.003*[#   4]+0.003*[#   5]
    |psi|^2 = 1.000
==== e(  14) =   -32.04199 eV ==== 
     psi = 0.494*[#   3]+0.494*[#   6]+0.003*[#   4]+0.003*[#   5]
    |psi|^2 = 1.000
==== e(  15) =   -32.03503 eV ==== 
     psi = 0.494*[#  39]+0.494*[#  42]+0.003*[#  40]+0.003*[#  41]
    |psi|^2 = 1.000
==== e(  16) =   -32.03502 eV ==== 
     psi = 0.494*[#  39]+0.494*[#  42]+0.003*[#  40]+0.003*[#  41]
    |psi|^2 = 1.000
==== e(  17) =   -12.11764 eV ==== 
     psi = 0.102*[#  19]+0.102*[#  20]+0.097*[#  55]+0.097*[#  56]+0.086*[#  29]
          +0.086*[#  30]+0.079*[#  57]+0.079*[#  58]+0.058*[#  21]+0.058*[#  22]
          +0.057*[#  65]+0.057*[#  66]+0.004*[#   1]+0.004*[#   2]+0.004*[#  37]
          +0.004*[#  38]+0.002*[#  68]+0.002*[#  69]+0.001*[#  27]+0.001*[#  28]
          +0.001*[#  32]+0.001*[#  33]
    |psi|^2 = 0.999
==== e(  18) =   -12.11764 eV ==== 
     psi = 0.102*[#  19]+0.102*[#  20]+0.098*[#  55]+0.098*[#  56]+0.082*[#  29]
          +0.082*[#  30]+0.082*[#  57]+0.082*[#  58]+0.060*[#  21]+0.060*[#  22]
          +0.055*[#  65]+0.055*[#  66]+0.004*[#   1]+0.004*[#   2]+0.004*[#  37]
          +0.004*[#  38]+0.002*[#  24]+0.002*[#  25]+0.001*[#  71]+0.001*[#  72]
          +0.001*[#  35]+0.001*[#  36]
    |psi|^2 = 0.999
==== e(  19) =   -11.98738 eV ==== 
     psi = 0.098*[#  55]+0.098*[#  56]+0.095*[#  19]+0.095*[#  20]+0.081*[#  21]
          +0.081*[#  22]+0.080*[#  65]+0.080*[#  66]+0.063*[#  57]+0.063*[#  58]
          +0.057*[#  29]+0.057*[#  30]+0.005*[#  37]+0.005*[#  38]+0.004*[#   1]
          +0.004*[#   2]+0.003*[#  60]+0.003*[#  61]+0.002*[#  24]+0.002*[#  25]
          +0.002*[#  35]+0.002*[#  36]+0.002*[#  71]+0.002*[#  72]+0.001*[#  32]
          +0.001*[#  33]
    |psi|^2 = 0.999
==== e(  20) =   -11.98735 eV ==== 
     psi = 0.099*[#  55]+0.099*[#  56]+0.094*[#  19]+0.094*[#  20]+0.084*[#  65]
          +0.084*[#  66]+0.077*[#  21]+0.077*[#  22]+0.060*[#  57]+0.060*[#  58]
          +0.060*[#  29]+0.060*[#  30]+0.005*[#  37]+0.005*[#  38]+0.004*[#   1]
          +0.004*[#   2]+0.003*[#  32]+0.003*[#  33]+0.002*[#  68]+0.002*[#  69]
          +0.002*[#  63]+0.002*[#  64]+0.002*[#  27]+0.002*[#  28]+0.001*[#  60]
          +0.001*[#  61]
    |psi|^2 = 0.999
==== e(  21) =   -10.97390 eV ==== 
     psi = 0.133*[#  21]+0.133*[#  22]+0.127*[#  65]+0.127*[#  66]+0.103*[#  57]
          +0.103*[#  58]+0.102*[#  29]+0.102*[#  30]+0.003*[#  10]+0.003*[#  13]
          +0.003*[#  46]+0.003*[#  49]+0.003*[#   4]+0.003*[#   5]+0.002*[#  16]
          +0.002*[#  17]+0.003*[#  60]+0.003*[#  61]+0.002*[#  35]+0.002*[#  36]
          +0.002*[#  40]+0.002*[#  41]+0.002*[#  52]+0.002*[#  53]+0.002*[#  47]
          +0.002*[#  48]+0.001*[#  11]+0.001*[#  12]+0.001*[#  23]+0.001*[#  26]
          +0.001*[#  31]+0.001*[#  34]
    |psi|^2 = 0.997
==== e(  22) =   -10.97389 eV ==== 
     psi = 0.130*[#  65]+0.130*[#  66]+0.129*[#  21]+0.129*[#  22]+0.106*[#  29]
          +0.106*[#  30]+0.099*[#  57]+0.099*[#  58]+0.003*[#  10]+0.003*[#  13]
          +0.003*[#  46]+0.003*[#  49]+0.003*[#  32]+0.003*[#  33]+0.002*[#  40]
          +0.002*[#  41]+0.002*[#   4]+0.002*[#   5]+0.002*[#  52]+0.002*[#  53]
          +0.002*[#  63]+0.002*[#  64]+0.002*[#  16]+0.002*[#  17]+0.002*[#  11]
          +0.002*[#  12]+0.001*[#  47]+0.001*[#  48]+0.001*[#   7]+0.001*[#   8]
          +0.001*[#  23]+0.001*[#  26]+0.001*[#  31]+0.001*[#  34]+0.001*[#  59]
          +0.001*[#  62]+0.001*[#  67]+0.001*[#  70]
    |psi|^2 = 0.997
==== e(  23) =   -10.77543 eV ==== 
     psi = 0.130*[#  57]+0.130*[#  58]+0.125*[#  29]+0.125*[#  30]+0.106*[#  65]
          +0.106*[#  66]+0.106*[#  21]+0.106*[#  22]+0.003*[#  46]+0.003*[#  49]
          +0.003*[#  10]+0.003*[#  13]+0.003*[#  40]+0.003*[#  41]+0.002*[#   4]
          +0.002*[#   5]+0.003*[#  52]+0.003*[#  53]+0.002*[#  16]+0.002*[#  17]
          +0.002*[#  11]+0.002*[#  12]+0.002*[#  63]+0.002*[#  64]+0.001*[#  32]
          +0.001*[#  33]+0.001*[#  47]+0.001*[#  48]+0.001*[#   7]+0.001*[#   8]
          
    |psi|^2 = 0.997
==== e(  24) =   -10.77542 eV ==== 
     psi = 0.128*[#  57]+0.128*[#  58]+0.127*[#  29]+0.127*[#  30]+0.109*[#  65]
          +0.109*[#  66]+0.103*[#  21]+0.103*[#  22]+0.003*[#  10]+0.003*[#  13]
          +0.003*[#  46]+0.003*[#  49]+0.003*[#   4]+0.003*[#   5]+0.002*[#  16]
          +0.002*[#  17]+0.002*[#  40]+0.002*[#  41]+0.002*[#  52]+0.002*[#  53]
          +0.002*[#  47]+0.002*[#  48]+0.002*[#  35]+0.002*[#  36]+0.001*[#  11]
          +0.001*[#  12]+0.001*[#  60]+0.001*[#  61]+0.001*[#  43]+0.001*[#  44]
          
    |psi|^2 = 0.997
==== e(  25) =    -3.81641 eV ==== 
     psi = 0.070*[#  32]+0.070*[#  33]+0.055*[#  60]+0.055*[#  61]+0.044*[#  47]
          +0.044*[#  48]+0.039*[#  11]+0.039*[#  12]+0.040*[#  68]+0.040*[#  69]
          +0.039*[#  63]+0.039*[#  64]+0.032*[#  24]+0.032*[#  25]+0.031*[#  16]
          +0.031*[#  17]+0.025*[#  52]+0.025*[#  53]+0.025*[#  35]+0.025*[#  36]
          +0.023*[#  27]+0.023*[#  28]+0.014*[#  71]+0.014*[#  72]+0.009*[#  21]
          +0.009*[#  22]+0.008*[#  65]+0.008*[#  66]+0.007*[#  19]+0.007*[#  20]
          +0.007*[#  55]+0.007*[#  56]+0.005*[#   1]+0.005*[#   2]+0.005*[#  37]
          +0.005*[#  38]+0.004*[#  29]+0.004*[#  30]+0.004*[#  57]+0.004*[#  58]
          +0.001*[#   9]+0.001*[#  14]+0.002*[#  45]+0.002*[#  50]+0.001*[#  51]
          +0.001*[#  54]+0.001*[#  15]+0.001*[#  18]
    |psi|^2 = 0.988
==== e(  26) =    -3.81641 eV ==== 
     psi = 0.069*[#  60]+0.069*[#  61]+0.056*[#  32]+0.056*[#  33]+0.044*[#  11]
          +0.044*[#  12]+0.040*[#  24]+0.040*[#  25]+0.040*[#  35]+0.040*[#  36]
          +0.039*[#  47]+0.039*[#  48]+0.032*[#  68]+0.032*[#  69]+0.030*[#  52]
          +0.030*[#  53]+0.026*[#  16]+0.026*[#  17]+0.024*[#  63]+0.024*[#  64]
          +0.022*[#  71]+0.022*[#  72]+0.014*[#  27]+0.014*[#  28]+0.008*[#  21]
          +0.008*[#  22]+0.008*[#  65]+0.008*[#  66]+0.007*[#  19]+0.007*[#  20]
          +0.007*[#  55]+0.007*[#  56]+0.005*[#   1]+0.005*[#   2]+0.005*[#  37]
          +0.005*[#  38]+0.004*[#  29]+0.004*[#  30]+0.004*[#  57]+0.004*[#  58]
          +0.002*[#   9]+0.002*[#  14]+0.001*[#  45]+0.001*[#  50]+0.001*[#  15]
          +0.001*[#  18]+0.001*[#  51]+0.001*[#  54]
    |psi|^2 = 0.988
==== e(  27) =    -3.31878 eV ==== 
     psi = 0.059*[#  68]+0.059*[#  69]+0.053*[#  11]+0.053*[#  12]+0.048*[#  47]
          +0.048*[#  48]+0.046*[#  24]+0.046*[#  25]+0.037*[#  52]+0.037*[#  53]
          +0.034*[#  27]+0.034*[#  28]+0.034*[#  32]+0.034*[#  33]+0.032*[#  16]
          +0.032*[#  17]+0.027*[#  60]+0.027*[#  61]+0.020*[#  63]+0.020*[#  64]
          +0.020*[#  71]+0.020*[#  72]+0.011*[#  35]+0.011*[#  36]+0.011*[#  57]
          +0.011*[#  58]+0.011*[#  29]+0.011*[#  30]+0.008*[#  55]+0.008*[#  56]
          +0.008*[#  19]+0.008*[#  20]+0.007*[#  21]+0.007*[#  22]+0.007*[#  65]
          +0.007*[#  66]+0.004*[#   1]+0.004*[#   2]+0.005*[#  37]+0.005*[#  38]
          +0.002*[#   9]+0.002*[#  14]+0.002*[#  45]+0.002*[#  50]+0.002*[#  15]
          +0.002*[#  18]+0.001*[#  51]+0.001*[#  54]
    |psi|^2 = 0.985
==== e(  28) =    -3.31877 eV ==== 
     psi = 0.059*[#  24]+0.059*[#  25]+0.053*[#  47]+0.053*[#  48]+0.048*[#  11]
          +0.048*[#  12]+0.046*[#  68]+0.046*[#  69]+0.037*[#  16]+0.037*[#  17]
          +0.035*[#  60]+0.035*[#  61]+0.034*[#  71]+0.034*[#  72]+0.032*[#  52]
          +0.032*[#  53]+0.026*[#  32]+0.026*[#  33]+0.020*[#  27]+0.020*[#  28]
          +0.020*[#  35]+0.020*[#  36]+0.012*[#  63]+0.012*[#  64]+0.011*[#  29]
          +0.011*[#  30]+0.011*[#  57]+0.011*[#  58]+0.008*[#  55]+0.008*[#  56]
          +0.008*[#  19]+0.008*[#  20]+0.007*[#  65]+0.007*[#  66]+0.007*[#  21]
          +0.007*[#  22]+0.004*[#   1]+0.004*[#   2]+0.005*[#  37]+0.005*[#  38]
          +0.002*[#   9]+0.002*[#  14]+0.002*[#  45]+0.002*[#  50]+0.002*[#  51]
          +0.002*[#  54]+0.001*[#  15]+0.001*[#  18]
    |psi|^2 = 0.985
==== e(  29) =    -1.01155 eV ==== 
     psi = 0.112*[#  15]+0.112*[#  18]+0.103*[#   9]+0.103*[#  14]+0.039*[#  23]
          +0.039*[#  26]+0.034*[#  35]+0.034*[#  36]+0.032*[#  31]+0.032*[#  34]
          +0.027*[#  27]+0.027*[#  28]+0.024*[#  45]+0.024*[#  50]+0.020*[#  51]
          +0.020*[#  54]+0.020*[#  10]+0.020*[#  13]+0.010*[#  46]+0.010*[#  49]
          +0.010*[#  59]+0.010*[#  62]+0.008*[#  63]+0.008*[#  64]+0.008*[#  19]
          +0.008*[#  20]+0.008*[#  24]+0.008*[#  25]+0.007*[#  67]+0.007*[#  70]
          +0.006*[#  71]+0.006*[#  72]+0.006*[#  60]+0.006*[#  61]+0.004*[#  29]
          +0.004*[#  30]+0.004*[#  68]+0.004*[#  69]+0.004*[#  21]+0.004*[#  22]
          +0.003*[#  32]+0.003*[#  33]+0.002*[#  55]+0.002*[#  56]+0.001*[#  16]
          +0.001*[#  17]+0.001*[#  52]+0.001*[#  53]+0.001*[#  57]+0.001*[#  58]
          +0.001*[#  65]+0.001*[#  66]
    |psi|^2 = 0.989
==== e(  30) =    -1.00973 eV ==== 
     psi = 0.076*[#  51]+0.076*[#  54]+0.069*[#  45]+0.069*[#  50]+0.059*[#   9]
          +0.059*[#  14]+0.056*[#  15]+0.056*[#  18]+0.025*[#  67]+0.025*[#  70]
          +0.023*[#  63]+0.023*[#  64]+0.022*[#  59]+0.022*[#  62]+0.022*[#  31]
          +0.022*[#  34]+0.019*[#  23]+0.019*[#  26]+0.019*[#  10]+0.019*[#  13]
          +0.018*[#  71]+0.018*[#  72]+0.014*[#  27]+0.014*[#  28]+0.012*[#  35]
          +0.012*[#  36]+0.012*[#  46]+0.012*[#  49]+0.010*[#  32]+0.010*[#  33]
          +0.005*[#  55]+0.005*[#  56]+0.005*[#  68]+0.005*[#  69]+0.005*[#  19]
          +0.005*[#  20]+0.005*[#  24]+0.005*[#  25]+0.003*[#  60]+0.003*[#  61]
          +0.003*[#  57]+0.003*[#  58]+0.003*[#  21]+0.003*[#  22]+0.003*[#  65]
          +0.003*[#  66]+0.002*[#  29]+0.002*[#  30]
    |psi|^2 = 0.989
==== e(  31) =    -0.99709 eV ==== 
     psi = 0.085*[#  15]+0.085*[#  18]+0.071*[#   9]+0.071*[#  14]+0.057*[#  51]
          +0.057*[#  54]+0.056*[#  45]+0.056*[#  50]+0.028*[#  23]+0.028*[#  26]
          +0.023*[#  67]+0.023*[#  70]+0.022*[#  31]+0.022*[#  34]+0.020*[#  27]
          +0.020*[#  28]+0.018*[#  63]+0.018*[#  64]+0.018*[#  71]+0.018*[#  72]
          +0.015*[#  59]+0.015*[#  62]+0.013*[#  46]+0.013*[#  49]+0.012*[#  32]
          +0.012*[#  33]+0.010*[#  24]+0.010*[#  25]+0.009*[#  10]+0.009*[#  13]
          +0.009*[#  35]+0.009*[#  36]+0.006*[#  19]+0.006*[#  20]+0.004*[#  55]
          +0.004*[#  56]+0.003*[#  68]+0.003*[#  69]+0.003*[#  21]+0.003*[#  22]
          +0.003*[#  29]+0.003*[#  30]+0.002*[#  16]+0.002*[#  17]+0.002*[#  57]
          +0.002*[#  58]+0.002*[#  65]+0.002*[#  66]
    |psi|^2 = 0.988
==== e(  32) =    -0.99498 eV ==== 
     psi = 0.121*[#  51]+0.121*[#  54]+0.107*[#  45]+0.107*[#  50]+0.040*[#  67]
          +0.040*[#  70]+0.034*[#  59]+0.034*[#  62]+0.028*[#  71]+0.028*[#  72]
          +0.022*[#   9]+0.022*[#  14]+0.022*[#  15]+0.022*[#  18]+0.018*[#  46]
          +0.018*[#  49]+0.017*[#  60]+0.017*[#  61]+0.013*[#  63]+0.013*[#  64]
          +0.010*[#  68]+0.010*[#  69]+0.010*[#  23]+0.010*[#  26]+0.008*[#  55]
          +0.008*[#  56]+0.008*[#  27]+0.008*[#  28]+0.007*[#  35]+0.007*[#  36]
          +0.006*[#  10]+0.006*[#  13]+0.005*[#  31]+0.005*[#  34]+0.005*[#  65]
          +0.005*[#  66]+0.004*[#  57]+0.004*[#  58]+0.002*[#  19]+0.002*[#  20]
          +0.001*[#  52]+0.001*[#  53]+0.001*[#  24]+0.001*[#  25]
    |psi|^2 = 0.988
==== e(  33) =    -0.88857 eV ==== 
     psi = 0.077*[#  32]+0.077*[#  33]+0.069*[#  68]+0.069*[#  69]+0.056*[#  63]
          +0.056*[#  64]+0.045*[#  27]+0.045*[#  28]+0.042*[#  24]+0.042*[#  25]
          +0.029*[#  52]+0.029*[#  53]+0.025*[#  60]+0.025*[#  61]+0.023*[#  11]
          +0.023*[#  12]+0.023*[#  10]+0.023*[#  13]+0.020*[#  46]+0.020*[#  49]
          +0.017*[#  31]+0.017*[#  34]+0.013*[#  15]+0.013*[#  18]+0.011*[#  71]
          +0.011*[#  72]+0.008*[#  59]+0.008*[#  62]+0.007*[#  16]+0.007*[#  17]
          +0.006*[#   9]+0.006*[#  14]+0.006*[#  67]+0.006*[#  70]+0.004*[#  51]
          +0.004*[#  54]+0.003*[#  23]+0.003*[#  26]+0.003*[#  35]+0.003*[#  36]
          +0.003*[#  47]+0.003*[#  48]+0.002*[#  19]+0.002*[#  20]+0.001*[#  21]
          +0.001*[#  22]+0.001*[#  29]+0.001*[#  30]+0.001*[#  45]+0.001*[#  50]
          
    |psi|^2 = 0.994
==== e(  34) =    -0.88830 eV ==== 
     psi = 0.076*[#  60]+0.076*[#  61]+0.070*[#  24]+0.070*[#  25]+0.056*[#  35]
          +0.056*[#  36]+0.044*[#  71]+0.044*[#  72]+0.043*[#  68]+0.043*[#  69]
          +0.029*[#  16]+0.029*[#  17]+0.025*[#  32]+0.025*[#  33]+0.023*[#  47]
          +0.023*[#  48]+0.023*[#  46]+0.023*[#  49]+0.020*[#  10]+0.020*[#  13]
          +0.017*[#  59]+0.017*[#  62]+0.013*[#  51]+0.013*[#  54]+0.011*[#  27]
          +0.011*[#  28]+0.008*[#  31]+0.008*[#  34]+0.007*[#  45]+0.007*[#  50]
          +0.007*[#  52]+0.007*[#  53]+0.006*[#  23]+0.006*[#  26]+0.004*[#  15]
          +0.004*[#  18]+0.003*[#  11]+0.003*[#  12]+0.003*[#  67]+0.003*[#  70]
          +0.003*[#  63]+0.003*[#  64]+0.002*[#  55]+0.002*[#  56]+0.001*[#  57]
          +0.001*[#  58]+0.001*[#  65]+0.001*[#  66]+0.001*[#   9]+0.001*[#  14]
          
    |psi|^2 = 0.994
==== e(  35) =    -0.40873 eV ==== 
     psi = 0.108*[#   9]+0.108*[#  14]+0.090*[#  15]+0.090*[#  18]+0.053*[#  45]
          +0.053*[#  50]+0.045*[#  51]+0.045*[#  54]+0.035*[#  35]+0.035*[#  36]
          +0.031*[#  23]+0.031*[#  26]+0.020*[#  27]+0.020*[#  28]+0.020*[#  71]
          +0.020*[#  72]+0.018*[#  31]+0.018*[#  34]+0.017*[#  59]+0.017*[#  62]
          +0.010*[#  32]+0.010*[#  33]+0.009*[#  63]+0.009*[#  64]+0.008*[#  67]
          +0.008*[#  70]+0.007*[#  10]+0.007*[#  13]+0.005*[#  24]+0.005*[#  25]
          +0.005*[#  68]+0.005*[#  69]+0.005*[#  60]+0.005*[#  61]+0.003*[#  52]
          +0.003*[#  53]+0.002*[#  11]+0.002*[#  12]+0.002*[#  46]+0.002*[#  49]
          
    |psi|^2 = 0.990
==== e(  36) =    -0.40853 eV ==== 
     psi = 0.103*[#   9]+0.103*[#  14]+0.083*[#  15]+0.083*[#  18]+0.059*[#  45]
          +0.059*[#  50]+0.052*[#  51]+0.052*[#  54]+0.031*[#  27]+0.031*[#  28]
          +0.029*[#  31]+0.029*[#  34]+0.023*[#  63]+0.023*[#  64]+0.019*[#  67]
          +0.019*[#  70]+0.018*[#  35]+0.018*[#  36]+0.017*[#  23]+0.017*[#  26]
          +0.010*[#  71]+0.010*[#  72]+0.010*[#  24]+0.010*[#  25]+0.009*[#  59]
          +0.009*[#  62]+0.007*[#  32]+0.007*[#  33]+0.006*[#  60]+0.006*[#  61]
          +0.006*[#  10]+0.006*[#  13]+0.004*[#  68]+0.004*[#  69]+0.003*[#  16]
          +0.003*[#  17]+0.002*[#  46]+0.002*[#  49]+0.002*[#  47]+0.002*[#  48]
          +0.001*[#  52]+0.001*[#  53]
    |psi|^2 = 0.990
==== e(  37) =    -0.39274 eV ==== 
     psi = 0.104*[#  45]+0.104*[#  50]+0.075*[#  51]+0.075*[#  54]+0.066*[#   9]
          +0.066*[#  14]+0.044*[#  15]+0.044*[#  18]+0.025*[#  67]+0.025*[#  70]
          +0.025*[#  63]+0.025*[#  64]+0.021*[#  71]+0.021*[#  72]+0.021*[#  59]
          +0.021*[#  62]+0.016*[#  23]+0.016*[#  26]+0.016*[#  46]+0.016*[#  49]
          +0.014*[#  27]+0.014*[#  28]+0.013*[#  10]+0.013*[#  13]+0.013*[#  35]
          +0.013*[#  36]+0.012*[#  31]+0.012*[#  34]+0.009*[#  60]+0.009*[#  61]
          +0.007*[#  32]+0.007*[#  33]+0.006*[#  68]+0.006*[#  69]+0.006*[#  24]
          +0.006*[#  25]
    |psi|^2 = 0.990
==== e(  38) =    -0.39246 eV ==== 
     psi = 0.115*[#  45]+0.115*[#  50]+0.081*[#  51]+0.081*[#  54]+0.057*[#   9]
          +0.057*[#  14]+0.038*[#  15]+0.038*[#  18]+0.027*[#  71]+0.027*[#  72]
          +0.025*[#  59]+0.025*[#  62]+0.025*[#  67]+0.025*[#  70]+0.021*[#  63]
          +0.021*[#  64]+0.016*[#  46]+0.016*[#  49]+0.013*[#  31]+0.013*[#  34]
          +0.012*[#  23]+0.012*[#  26]+0.012*[#  10]+0.012*[#  13]+0.012*[#  27]
          +0.012*[#  28]+0.011*[#  35]+0.011*[#  36]+0.010*[#  68]+0.010*[#  69]
          +0.008*[#  60]+0.008*[#  61]+0.006*[#  24]+0.006*[#  25]+0.005*[#  32]
          +0.005*[#  33]
    |psi|^2 = 0.990
==== e(  39) =    -0.32797 eV ==== 
     psi = 0.064*[#  68]+0.064*[#  69]+0.055*[#  32]+0.055*[#  33]+0.047*[#  16]
          +0.047*[#  17]+0.040*[#  46]+0.040*[#  49]+0.040*[#  10]+0.040*[#  13]
          +0.040*[#  27]+0.040*[#  28]+0.032*[#  63]+0.032*[#  64]+0.030*[#  47]
          +0.030*[#  48]+0.027*[#  59]+0.027*[#  62]+0.024*[#  23]+0.024*[#  26]
          +0.020*[#  52]+0.020*[#  53]+0.010*[#  60]+0.010*[#  61]+0.010*[#  24]
          +0.010*[#  25]+0.009*[#  45]+0.009*[#  50]+0.009*[#  31]+0.009*[#  34]
          +0.009*[#  11]+0.009*[#  12]+0.008*[#  67]+0.008*[#  70]+0.004*[#   9]
          +0.004*[#  14]+0.004*[#  35]+0.004*[#  36]+0.004*[#  71]+0.004*[#  72]
          +0.003*[#  15]+0.003*[#  18]+0.003*[#  51]+0.003*[#  54]+0.001*[#  57]
          +0.001*[#  58]+0.001*[#  29]+0.001*[#  30]
    |psi|^2 = 0.988
==== e(  40) =    -0.32794 eV ==== 
     psi = 0.062*[#  24]+0.062*[#  25]+0.057*[#  60]+0.057*[#  61]+0.047*[#  52]
          +0.047*[#  53]+0.041*[#  46]+0.041*[#  49]+0.040*[#  71]+0.040*[#  72]
          +0.039*[#  10]+0.039*[#  13]+0.033*[#  35]+0.033*[#  36]+0.030*[#  11]
          +0.030*[#  12]+0.026*[#  31]+0.026*[#  34]+0.025*[#  67]+0.025*[#  70]
          +0.019*[#  16]+0.019*[#  17]+0.010*[#  68]+0.010*[#  69]+0.010*[#  32]
          +0.010*[#  33]+0.009*[#  47]+0.009*[#  48]+0.008*[#  59]+0.008*[#  62]
          +0.008*[#  23]+0.008*[#  26]+0.008*[#   9]+0.008*[#  14]+0.005*[#  45]
          +0.005*[#  50]+0.005*[#  63]+0.005*[#  64]+0.004*[#  27]+0.004*[#  28]
          +0.002*[#  15]+0.002*[#  18]+0.003*[#  51]+0.003*[#  54]+0.001*[#  29]
          +0.001*[#  30]+0.001*[#  57]+0.001*[#  58]
    |psi|^2 = 0.988
==== e(  41) =     0.22198 eV ==== 
     psi = 0.075*[#  10]+0.075*[#  13]+0.053*[#  16]+0.053*[#  17]+0.048*[#  46]
          +0.048*[#  49]+0.035*[#  23]+0.035*[#  26]+0.033*[#  52]+0.033*[#  53]
          +0.033*[#  31]+0.033*[#  34]+0.026*[#  27]+0.026*[#  28]+0.026*[#  11]
          +0.026*[#  12]+0.023*[#  59]+0.023*[#  62]+0.021*[#  67]+0.021*[#  70]
          +0.019*[#  35]+0.019*[#  36]+0.019*[#  47]+0.019*[#  48]+0.017*[#  63]
          +0.017*[#  64]+0.014*[#  15]+0.014*[#  18]+0.013*[#  71]+0.013*[#  72]
          +0.012*[#  32]+0.012*[#  33]+0.010*[#  51]+0.010*[#  54]+0.008*[#  68]
          +0.008*[#  69]+0.007*[#  24]+0.007*[#  25]+0.005*[#  60]+0.005*[#  61]
          
    |psi|^2 = 0.989
==== e(  42) =     0.22207 eV ==== 
     psi = 0.070*[#  10]+0.070*[#  13]+0.053*[#  46]+0.053*[#  49]+0.050*[#  16]
          +0.050*[#  17]+0.035*[#  52]+0.035*[#  53]+0.033*[#  31]+0.033*[#  34]
          +0.031*[#  23]+0.031*[#  26]+0.028*[#  11]+0.028*[#  12]+0.026*[#  35]
          +0.026*[#  36]+0.025*[#  67]+0.025*[#  70]+0.023*[#  59]+0.023*[#  62]
          +0.019*[#  27]+0.019*[#  28]+0.018*[#  71]+0.018*[#  72]+0.016*[#  47]
          +0.016*[#  48]+0.014*[#  15]+0.014*[#  18]+0.013*[#  63]+0.013*[#  64]
          +0.012*[#  24]+0.012*[#  25]+0.010*[#  51]+0.010*[#  54]+0.008*[#  60]
          +0.008*[#  61]+0.007*[#  32]+0.007*[#  33]+0.005*[#  68]+0.005*[#  69]
          
    |psi|^2 = 0.989
==== e(  43) =     0.24532 eV ==== 
     psi = 0.062*[#  46]+0.062*[#  49]+0.056*[#  52]+0.056*[#  53]+0.046*[#  10]
          +0.046*[#  13]+0.040*[#  16]+0.040*[#  17]+0.032*[#  47]+0.032*[#  48]
          +0.029*[#  67]+0.029*[#  70]+0.028*[#  59]+0.028*[#  62]+0.027*[#  71]
          +0.027*[#  72]+0.022*[#  31]+0.022*[#  34]+0.021*[#  63]+0.021*[#  64]
          +0.021*[#  11]+0.021*[#  12]+0.019*[#  23]+0.019*[#  26]+0.019*[#  35]
          +0.019*[#  36]+0.014*[#  27]+0.014*[#  28]+0.013*[#  60]+0.013*[#  61]
          +0.013*[#  51]+0.013*[#  54]+0.009*[#  15]+0.009*[#  18]+0.009*[#  24]
          +0.009*[#  25]+0.008*[#  68]+0.008*[#  69]+0.006*[#  32]+0.006*[#  33]
          
    |psi|^2 = 0.988
==== e(  44) =     0.24539 eV ==== 
     psi = 0.068*[#  46]+0.068*[#  49]+0.057*[#  52]+0.057*[#  53]+0.041*[#  10]
          +0.041*[#  13]+0.038*[#  16]+0.038*[#  17]+0.032*[#  59]+0.032*[#  62]
          +0.030*[#  47]+0.030*[#  48]+0.029*[#  67]+0.029*[#  70]+0.028*[#  63]
          +0.028*[#  64]+0.023*[#  11]+0.023*[#  12]+0.021*[#  71]+0.021*[#  72]
          +0.019*[#  23]+0.019*[#  26]+0.019*[#  27]+0.019*[#  28]+0.018*[#  31]
          +0.018*[#  34]+0.015*[#  35]+0.015*[#  36]+0.013*[#  51]+0.013*[#  54]
          +0.012*[#  68]+0.012*[#  69]+0.009*[#  32]+0.009*[#  33]+0.009*[#  15]
          +0.009*[#  18]+0.008*[#  60]+0.008*[#  61]+0.006*[#  24]+0.006*[#  25]
          
    |psi|^2 = 0.988
==== e(  45) =     0.68163 eV ==== 
     psi = 0.066*[#  32]+0.066*[#  33]+0.057*[#  63]+0.057*[#  64]+0.051*[#  27]
          +0.051*[#  28]+0.045*[#  68]+0.045*[#  69]+0.030*[#  31]+0.030*[#  34]
          +0.030*[#  46]+0.030*[#  49]+0.029*[#  10]+0.029*[#  13]+0.029*[#  59]
          +0.029*[#  62]+0.028*[#  23]+0.028*[#  26]+0.028*[#  52]+0.028*[#  53]
          +0.027*[#  67]+0.027*[#  70]+0.022*[#  11]+0.022*[#  12]+0.012*[#  60]
          +0.012*[#  61]+0.009*[#  16]+0.009*[#  17]+0.006*[#  15]+0.006*[#  18]
          +0.006*[#  51]+0.006*[#  54]+0.005*[#  24]+0.005*[#  25]+0.002*[#  35]
          +0.002*[#  36]+0.002*[#  71]+0.002*[#  72]+0.001*[#  47]+0.001*[#  48]
          
    |psi|^2 = 0.980
==== e(  46) =     0.68171 eV ==== 
     psi = 0.065*[#  60]+0.065*[#  61]+0.058*[#  35]+0.058*[#  36]+0.050*[#  71]
          +0.050*[#  72]+0.046*[#  24]+0.046*[#  25]+0.030*[#  59]+0.030*[#  62]
          +0.030*[#  10]+0.030*[#  13]+0.029*[#  46]+0.029*[#  49]+0.029*[#  31]
          +0.029*[#  34]+0.028*[#  67]+0.028*[#  70]+0.028*[#  16]+0.028*[#  17]
          +0.028*[#  23]+0.028*[#  26]+0.022*[#  47]+0.022*[#  48]+0.012*[#  32]
          +0.012*[#  33]+0.008*[#  52]+0.008*[#  53]+0.006*[#  51]+0.006*[#  54]
          +0.006*[#  15]+0.006*[#  18]+0.005*[#  68]+0.005*[#  69]+0.002*[#  63]
          +0.002*[#  64]+0.002*[#  27]+0.002*[#  28]+0.001*[#  11]+0.001*[#  12]
          
    |psi|^2 = 0.980
==== e(  47) =     1.04112 eV ==== 
     psi = 0.102*[#  68]+0.102*[#  69]+0.079*[#  27]+0.079*[#  28]+0.052*[#  63]
          +0.052*[#  64]+0.052*[#  32]+0.052*[#  33]+0.041*[#  24]+0.041*[#  25]
          +0.024*[#  16]+0.024*[#  17]+0.019*[#  47]+0.019*[#  48]+0.019*[#  67]
          +0.019*[#  70]+0.018*[#  23]+0.018*[#  26]+0.016*[#  59]+0.016*[#  62]
          +0.015*[#  60]+0.015*[#  61]+0.015*[#  31]+0.015*[#  34]+0.009*[#  10]
          +0.009*[#  13]+0.008*[#  46]+0.008*[#  49]+0.007*[#  71]+0.007*[#  72]
          +0.004*[#  11]+0.004*[#  12]+0.003*[#  35]+0.003*[#  36]+0.002*[#  51]
          +0.002*[#  54]+0.001*[#  15]+0.001*[#  18]+0.001*[#  40]+0.001*[#  41]
          +0.001*[#   4]+0.001*[#   5]
    |psi|^2 = 0.985
==== e(  48) =     1.04124 eV ==== 
     psi = 0.101*[#  24]+0.101*[#  25]+0.079*[#  71]+0.079*[#  72]+0.053*[#  60]
          +0.053*[#  61]+0.051*[#  35]+0.051*[#  36]+0.041*[#  68]+0.041*[#  69]
          +0.023*[#  52]+0.023*[#  53]+0.020*[#  11]+0.020*[#  12]+0.019*[#  67]
          +0.019*[#  70]+0.018*[#  23]+0.018*[#  26]+0.016*[#  31]+0.016*[#  34]
          +0.015*[#  59]+0.015*[#  62]+0.015*[#  32]+0.015*[#  33]+0.009*[#  46]
          +0.009*[#  49]+0.008*[#  10]+0.008*[#  13]+0.007*[#  27]+0.007*[#  28]
          +0.003*[#  47]+0.003*[#  48]+0.003*[#  63]+0.003*[#  64]+0.002*[#  15]
          +0.002*[#  18]+0.001*[#  51]+0.001*[#  54]+0.001*[#   4]+0.001*[#   5]
          +0.001*[#  40]+0.001*[#  41]
    |psi|^2 = 0.985
==== e(  49) =     1.60188 eV ==== 
     psi = 0.098*[#  11]+0.098*[#  12]+0.089*[#  47]+0.089*[#  48]+0.062*[#  24]
          +0.062*[#  25]+0.055*[#  16]+0.055*[#  17]+0.054*[#  52]+0.054*[#  53]
          +0.030*[#  68]+0.030*[#  69]+0.027*[#  71]+0.027*[#  72]+0.017*[#  60]
          +0.017*[#  61]+0.011*[#  32]+0.011*[#  33]+0.009*[#  27]+0.009*[#  28]
          +0.005*[#  35]+0.005*[#  36]+0.004*[#  23]+0.004*[#  26]+0.003*[#  45]
          +0.003*[#  50]+0.003*[#  63]+0.003*[#  64]+0.003*[#   9]+0.003*[#  14]
          +0.003*[#  67]+0.003*[#  70]+0.002*[#  15]+0.002*[#  18]+0.002*[#  21]
          +0.002*[#  22]+0.002*[#  51]+0.002*[#  54]+0.002*[#  65]+0.002*[#  66]
          +0.001*[#  29]+0.001*[#  30]+0.001*[#  57]+0.001*[#  58]
    |psi|^2 = 0.975
==== e(  50) =     1.60206 eV ==== 
     psi = 0.097*[#  47]+0.097*[#  48]+0.090*[#  11]+0.090*[#  12]+0.063*[#  68]
          +0.063*[#  69]+0.054*[#  16]+0.054*[#  17]+0.054*[#  52]+0.054*[#  53]
          +0.030*[#  24]+0.030*[#  25]+0.027*[#  27]+0.027*[#  28]+0.018*[#  32]
          +0.018*[#  33]+0.011*[#  60]+0.011*[#  61]+0.009*[#  71]+0.009*[#  72]
          +0.005*[#  63]+0.005*[#  64]+0.004*[#  67]+0.004*[#  70]+0.003*[#   9]
          +0.003*[#  14]+0.003*[#  35]+0.003*[#  36]+0.003*[#  45]+0.003*[#  50]
          +0.002*[#  23]+0.002*[#  26]+0.002*[#  51]+0.002*[#  54]+0.002*[#  65]
          +0.002*[#  66]+0.002*[#  15]+0.002*[#  18]+0.002*[#  21]+0.002*[#  22]
          +0.001*[#  29]+0.001*[#  30]+0.001*[#  57]+0.001*[#  58]
    |psi|^2 = 0.975
==== e(  51) =     2.06846 eV ==== 
     psi = 0.079*[#  47]+0.079*[#  48]+0.078*[#  32]+0.078*[#  33]+0.072*[#  11]
          +0.072*[#  12]+0.049*[#  16]+0.049*[#  17]+0.046*[#  63]+0.046*[#  64]
          +0.043*[#  52]+0.043*[#  53]+0.033*[#  60]+0.033*[#  61]+0.010*[#  68]
          +0.010*[#  69]+0.008*[#  29]+0.008*[#  30]+0.008*[#  31]+0.008*[#  34]
          +0.008*[#  35]+0.008*[#  36]+0.008*[#  57]+0.008*[#  58]+0.007*[#  45]
          +0.007*[#  50]+0.007*[#  59]+0.007*[#  62]+0.006*[#   9]+0.006*[#  14]
          +0.005*[#  24]+0.005*[#  25]+0.005*[#  51]+0.005*[#  54]+0.005*[#  15]
          +0.005*[#  18]+0.004*[#  27]+0.004*[#  28]+0.003*[#  21]+0.003*[#  22]
          +0.003*[#  65]+0.003*[#  66]+0.001*[#  10]+0.001*[#  13]
    |psi|^2 = 0.985
==== e(  52) =     2.06849 eV ==== 
     psi = 0.078*[#  60]+0.078*[#  61]+0.077*[#  11]+0.077*[#  12]+0.074*[#  47]
          +0.074*[#  48]+0.050*[#  52]+0.050*[#  53]+0.045*[#  35]+0.045*[#  36]
          +0.042*[#  16]+0.042*[#  17]+0.033*[#  32]+0.033*[#  33]+0.010*[#  24]
          +0.010*[#  25]+0.008*[#  64]+0.008*[#  57]+0.008*[#  59]+0.008*[#  62]
          +0.008*[#  63]+0.008*[#  29]+0.008*[#  30]+0.008*[#  58]+0.007*[#   9]
          +0.007*[#  14]+0.007*[#  31]+0.007*[#  34]+0.006*[#  45]+0.006*[#  50]
          +0.005*[#  68]+0.005*[#  69]+0.005*[#  15]+0.005*[#  18]+0.005*[#  51]
          +0.005*[#  54]+0.004*[#  71]+0.004*[#  72]+0.003*[#  21]+0.003*[#  22]
          +0.003*[#  65]+0.003*[#  66]+0.001*[#  46]+0.001*[#  49]
    |psi|^2 = 0.985
==== e(  53) =     4.49075 eV ==== 
     psi = 0.057*[#  15]+0.057*[#  18]+0.057*[#  23]+0.057*[#  26]+0.044*[#  59]
          +0.044*[#  62]+0.038*[#   9]+0.038*[#  14]+0.037*[#  51]+0.037*[#  54]
          +0.036*[#  31]+0.036*[#  34]+0.036*[#  24]+0.036*[#  25]+0.027*[#  45]
          +0.027*[#  50]+0.025*[#  60]+0.025*[#  61]+0.020*[#  35]+0.020*[#  36]
          +0.019*[#  63]+0.019*[#  64]+0.018*[#  27]+0.018*[#  28]+0.016*[#  67]
          +0.016*[#  70]+0.011*[#  71]+0.011*[#  72]+0.010*[#  16]+0.010*[#  17]
          +0.009*[#  52]+0.009*[#  53]+0.005*[#  57]+0.005*[#  58]+0.005*[#  21]
          +0.005*[#  22]+0.004*[#  29]+0.004*[#  30]+0.003*[#  11]+0.003*[#  12]
          +0.002*[#  32]+0.002*[#  33]+0.002*[#  19]+0.002*[#  20]+0.001*[#  55]
          +0.001*[#  56]+0.001*[#  65]+0.001*[#  66]
    |psi|^2 = 0.975
==== e(  54) =     4.49143 eV ==== 
     psi = 0.053*[#  51]+0.053*[#  54]+0.051*[#  67]+0.051*[#  70]+0.048*[#  31]
          +0.048*[#  34]+0.041*[#  15]+0.041*[#  18]+0.036*[#  45]+0.036*[#  50]
          +0.036*[#  59]+0.036*[#  62]+0.032*[#  68]+0.032*[#  69]+0.030*[#   9]
          +0.030*[#  14]+0.028*[#  32]+0.028*[#  33]+0.020*[#  35]+0.020*[#  36]
          +0.020*[#  63]+0.020*[#  64]+0.018*[#  23]+0.018*[#  26]+0.016*[#  71]
          +0.016*[#  72]+0.012*[#  27]+0.012*[#  28]+0.010*[#  16]+0.010*[#  17]
          +0.009*[#  52]+0.009*[#  53]+0.006*[#  29]+0.006*[#  30]+0.004*[#  57]
          +0.004*[#  58]+0.004*[#  65]+0.004*[#  66]+0.003*[#  47]+0.003*[#  48]
          +0.003*[#  60]+0.003*[#  61]+0.002*[#  55]+0.002*[#  56]+0.001*[#  19]
          +0.001*[#  20]+0.001*[#  21]+0.001*[#  22]
    |psi|^2 = 0.975
==== e(  55) =     4.54793 eV ==== 
     psi = 0.067*[#  23]+0.067*[#  26]+0.055*[#  16]+0.055*[#  17]+0.047*[#  24]
          +0.047*[#  25]+0.042*[#  10]+0.042*[#  13]+0.033*[#  51]+0.033*[#  54]
          +0.031*[#  59]+0.031*[#  62]+0.028*[#  15]+0.028*[#  18]+0.026*[#  27]
          +0.026*[#  28]+0.022*[#  67]+0.022*[#  70]+0.018*[#  11]+0.018*[#  12]
          +0.016*[#  45]+0.016*[#  50]+0.015*[#  60]+0.015*[#  61]+0.014*[#  71]
          +0.014*[#  72]+0.011*[#   9]+0.011*[#  14]+0.010*[#  35]+0.010*[#  36]
          +0.010*[#  21]+0.010*[#  22]+0.008*[#  63]+0.008*[#  64]+0.007*[#  32]
          +0.007*[#  33]+0.006*[#  52]+0.006*[#  53]+0.005*[#  47]+0.005*[#  48]
          +0.005*[#  31]+0.005*[#  34]+0.004*[#  29]+0.004*[#  30]+0.002*[#  57]
          +0.002*[#  58]+0.002*[#  65]+0.002*[#  66]
    |psi|^2 = 0.971
==== e(  56) =     4.54964 eV ==== 
     psi = 0.071*[#  67]+0.071*[#  70]+0.053*[#  52]+0.053*[#  53]+0.049*[#  68]
          +0.049*[#  69]+0.038*[#  46]+0.038*[#  49]+0.032*[#  51]+0.032*[#  54]
          +0.032*[#  15]+0.032*[#  18]+0.028*[#  31]+0.028*[#  34]+0.028*[#  71]
          +0.028*[#  72]+0.024*[#  23]+0.024*[#  26]+0.017*[#  27]+0.017*[#  28]
          +0.016*[#  47]+0.016*[#  48]+0.015*[#   9]+0.015*[#  14]+0.013*[#  32]
          +0.013*[#  33]+0.012*[#  45]+0.012*[#  50]+0.010*[#  65]+0.010*[#  66]
          +0.007*[#  11]+0.007*[#  12]+0.007*[#  63]+0.007*[#  64]+0.006*[#  60]
          +0.006*[#  61]+0.006*[#  35]+0.006*[#  36]+0.006*[#  16]+0.006*[#  17]
          +0.003*[#  57]+0.003*[#  58]+0.003*[#  59]+0.003*[#  62]+0.002*[#  21]
          +0.002*[#  22]+0.002*[#  10]+0.002*[#  13]+0.002*[#  29]+0.002*[#  30]
          
    |psi|^2 = 0.971
==== e(  57) =     4.57768 eV ==== 
     psi = 0.085*[#  27]+0.085*[#  28]+0.077*[#  10]+0.077*[#  13]+0.067*[#  23]
          +0.067*[#  26]+0.055*[#  11]+0.055*[#  12]+0.046*[#  16]+0.046*[#  17]
          +0.015*[#  46]+0.015*[#  49]+0.013*[#   9]+0.013*[#  14]+0.013*[#  59]
          +0.013*[#  62]+0.013*[#  63]+0.013*[#  64]+0.012*[#  21]+0.012*[#  22]
          +0.012*[#  24]+0.012*[#  25]+0.011*[#  31]+0.011*[#  34]+0.009*[#  52]
          +0.009*[#  53]+0.009*[#  47]+0.009*[#  48]+0.008*[#  32]+0.008*[#  33]
          +0.007*[#  35]+0.007*[#  36]+0.007*[#  15]+0.007*[#  18]+0.005*[#  29]
          +0.005*[#  30]+0.003*[#  68]+0.003*[#  69]+0.003*[#  60]+0.003*[#  61]
          +0.003*[#  45]+0.003*[#  50]+0.003*[#  57]+0.003*[#  58]+0.002*[#  67]
          +0.002*[#  70]+0.002*[#  71]+0.002*[#  72]+0.001*[#  65]+0.001*[#  66]
          
    |psi|^2 = 0.967
==== e(  58) =     4.58079 eV ==== 
     psi = 0.089*[#  71]+0.089*[#  72]+0.077*[#  46]+0.077*[#  49]+0.072*[#  67]
          +0.072*[#  70]+0.057*[#  47]+0.057*[#  48]+0.045*[#  52]+0.045*[#  53]
          +0.014*[#  45]+0.014*[#  50]+0.013*[#  10]+0.013*[#  13]+0.013*[#  31]
          +0.013*[#  34]+0.013*[#  65]+0.013*[#  66]+0.013*[#  35]+0.013*[#  36]
          +0.012*[#  68]+0.012*[#  69]+0.010*[#  59]+0.010*[#  62]+0.009*[#  51]
          +0.009*[#  54]+0.008*[#  11]+0.008*[#  12]+0.007*[#  16]+0.007*[#  17]
          +0.007*[#  63]+0.007*[#  64]+0.006*[#  60]+0.006*[#  61]+0.005*[#  57]
          +0.005*[#  58]+0.003*[#   9]+0.003*[#  14]+0.002*[#  29]+0.002*[#  30]
          +0.002*[#  32]+0.002*[#  33]+0.002*[#  24]+0.002*[#  25]+0.001*[#  23]
          +0.001*[#  26]+0.001*[#  27]+0.001*[#  28]
    |psi|^2 = 0.967

 k =   0.0000000000  0.2566001196  0.0000000000
==== e(   1) =   -58.87514 eV ==== 
     psi = 0.485*[#   1]+0.485*[#   2]+0.005*[#  24]+0.005*[#  25]+0.004*[#  35]
          +0.004*[#  36]+0.001*[#  19]+0.001*[#  20]+0.001*[#  32]+0.001*[#  33]
          
    |psi|^2 = 1.000
==== e(   2) =   -58.87514 eV ==== 
     psi = 0.485*[#   1]+0.485*[#   2]+0.005*[#  32]+0.005*[#  33]+0.004*[#  27]
          +0.004*[#  28]+0.001*[#  19]+0.001*[#  20]+0.001*[#  24]+0.001*[#  25]
          +0.001*[#  23]+0.001*[#  26]
    |psi|^2 = 1.000
==== e(   3) =   -58.86803 eV ==== 
     psi = 0.485*[#  37]+0.485*[#  38]+0.005*[#  68]+0.005*[#  69]+0.004*[#  63]
          +0.004*[#  64]+0.001*[#  55]+0.001*[#  56]+0.001*[#  60]+0.001*[#  61]
          
    |psi|^2 = 1.000
==== e(   4) =   -58.86803 eV ==== 
     psi = 0.485*[#  37]+0.485*[#  38]+0.005*[#  60]+0.005*[#  61]+0.004*[#  71]
          +0.004*[#  72]+0.001*[#  55]+0.001*[#  56]+0.001*[#  68]+0.001*[#  69]
          
    |psi|^2 = 1.000
==== e(   5) =   -34.65433 eV ==== 
     psi = 0.493*[#   7]+0.493*[#   8]+0.001*[#  19]+0.001*[#  20]+0.001*[#  21]
          +0.001*[#  22]+0.001*[#  24]+0.001*[#  25]
    |psi|^2 = 1.000
==== e(   6) =   -34.65428 eV ==== 
     psi = 0.493*[#   7]+0.493*[#   8]+0.001*[#  19]+0.001*[#  20]+0.001*[#  29]
          +0.001*[#  30]+0.001*[#  32]+0.001*[#  33]
    |psi|^2 = 1.000
==== e(   7) =   -34.64741 eV ==== 
     psi = 0.493*[#  43]+0.493*[#  44]+0.001*[#  55]+0.001*[#  56]+0.001*[#  65]
          +0.001*[#  66]+0.001*[#  68]+0.001*[#  69]
    |psi|^2 = 1.000
==== e(   8) =   -34.64736 eV ==== 
     psi = 0.493*[#  43]+0.493*[#  44]+0.001*[#  55]+0.001*[#  56]+0.001*[#  57]
          +0.001*[#  58]+0.001*[#  60]+0.001*[#  61]
    |psi|^2 = 1.000
==== e(   9) =   -32.22187 eV ==== 
     psi = 0.412*[#   4]+0.412*[#   5]+0.077*[#   3]+0.077*[#   6]+0.002*[#  21]
          +0.002*[#  22]+0.002*[#  19]+0.002*[#  20]+0.002*[#  27]+0.002*[#  28]
          +0.001*[#  24]+0.001*[#  25]
    |psi|^2 = 1.000
==== e(  10) =   -32.22176 eV ==== 
     psi = 0.412*[#   4]+0.412*[#   5]+0.077*[#   3]+0.077*[#   6]+0.002*[#  29]
          +0.002*[#  30]+0.002*[#  19]+0.002*[#  20]+0.002*[#  35]+0.002*[#  36]
          +0.001*[#  32]+0.001*[#  33]
    |psi|^2 = 1.000
==== e(  11) =   -32.21506 eV ==== 
     psi = 0.412*[#  40]+0.412*[#  41]+0.077*[#  39]+0.077*[#  42]+0.002*[#  65]
          +0.002*[#  66]+0.002*[#  55]+0.002*[#  56]+0.002*[#  71]+0.002*[#  72]
          +0.001*[#  68]+0.001*[#  69]
    |psi|^2 = 1.000
==== e(  12) =   -32.21496 eV ==== 
     psi = 0.412*[#  40]+0.412*[#  41]+0.077*[#  39]+0.077*[#  42]+0.002*[#  57]
          +0.002*[#  58]+0.002*[#  55]+0.002*[#  56]+0.002*[#  63]+0.002*[#  64]
          +0.001*[#  60]+0.001*[#  61]
    |psi|^2 = 1.000
==== e(  13) =   -32.10525 eV ==== 
     psi = 0.416*[#   3]+0.416*[#   6]+0.078*[#   4]+0.078*[#   5]+0.001*[#  24]
          +0.001*[#  25]+0.001*[#  19]+0.001*[#  20]
    |psi|^2 = 1.000
==== e(  14) =   -32.10521 eV ==== 
     psi = 0.416*[#   3]+0.416*[#   6]+0.078*[#   4]+0.078*[#   5]+0.001*[#  32]
          +0.001*[#  33]+0.001*[#  19]+0.001*[#  20]
    |psi|^2 = 1.000
==== e(  15) =   -32.09831 eV ==== 
     psi = 0.416*[#  39]+0.416*[#  42]+0.078*[#  40]+0.078*[#  41]+0.001*[#  68]
          +0.001*[#  69]+0.001*[#  55]+0.001*[#  56]
    |psi|^2 = 1.000
==== e(  16) =   -32.09827 eV ==== 
     psi = 0.416*[#  39]+0.416*[#  42]+0.078*[#  40]+0.078*[#  41]+0.001*[#  60]
          +0.001*[#  61]+0.001*[#  55]+0.001*[#  56]
    |psi|^2 = 1.000
==== e(  17) =   -11.60367 eV ==== 
     psi = 0.099*[#  29]+0.099*[#  30]+0.088*[#  57]+0.088*[#  58]+0.078*[#  19]
          +0.078*[#  20]+0.074*[#  55]+0.074*[#  56]+0.063*[#  65]+0.063*[#  66]
          +0.062*[#  21]+0.062*[#  22]+0.003*[#  68]+0.003*[#  69]+0.003*[#   1]
          +0.003*[#   2]+0.003*[#  27]+0.003*[#  28]+0.002*[#  32]+0.002*[#  33]
          +0.002*[#  37]+0.002*[#  38]+0.002*[#  63]+0.002*[#  64]+0.002*[#  31]
          +0.002*[#  34]+0.002*[#   9]+0.002*[#  14]+0.002*[#  45]+0.002*[#  50]
          +0.002*[#  59]+0.002*[#  62]+0.002*[#  15]+0.002*[#  18]+0.001*[#  51]
          +0.001*[#  54]+0.001*[#   3]+0.001*[#   6]+0.001*[#  23]+0.001*[#  26]
          +0.001*[#  67]+0.001*[#  70]
    |psi|^2 = 0.999
==== e(  18) =   -11.60366 eV ==== 
     psi = 0.095*[#  57]+0.095*[#  58]+0.092*[#  29]+0.092*[#  30]+0.077*[#  19]
          +0.077*[#  20]+0.075*[#  55]+0.075*[#  56]+0.067*[#  21]+0.067*[#  22]
          +0.059*[#  65]+0.059*[#  66]+0.003*[#  24]+0.003*[#  25]+0.002*[#   1]
          +0.002*[#   2]+0.003*[#  35]+0.003*[#  36]+0.002*[#  37]+0.002*[#  38]
          +0.002*[#  71]+0.002*[#  72]+0.002*[#  59]+0.002*[#  60]+0.002*[#  61]
          +0.002*[#  62]+0.002*[#   9]+0.002*[#  14]+0.002*[#  31]+0.002*[#  34]
          +0.002*[#  45]+0.002*[#  50]+0.002*[#  51]+0.002*[#  54]+0.001*[#  15]
          +0.001*[#  18]+0.001*[#  23]+0.001*[#  26]+0.001*[#   3]+0.001*[#   6]
          
    |psi|^2 = 0.999
==== e(  19) =   -11.48044 eV ==== 
     psi = 0.094*[#  21]+0.094*[#  22]+0.088*[#  65]+0.088*[#  66]+0.074*[#  55]
          +0.074*[#  56]+0.072*[#  19]+0.072*[#  20]+0.071*[#  57]+0.071*[#  58]
          +0.061*[#  29]+0.061*[#  30]+0.004*[#  60]+0.004*[#  61]+0.004*[#  24]
          +0.004*[#  25]+0.003*[#  71]+0.003*[#  72]+0.003*[#  35]+0.003*[#  36]
          +0.003*[#   1]+0.003*[#   2]+0.003*[#  37]+0.003*[#  38]+0.002*[#   9]
          +0.002*[#  14]+0.002*[#  45]+0.002*[#  50]+0.002*[#  23]+0.002*[#  26]
          +0.002*[#  15]+0.002*[#  18]+0.002*[#  51]+0.002*[#  54]+0.002*[#  67]
          +0.002*[#  70]+0.001*[#   3]+0.001*[#   6]+0.001*[#  39]+0.001*[#  42]
          +0.001*[#  59]+0.001*[#  62]
    |psi|^2 = 0.999
==== e(  20) =   -11.48039 eV ==== 
     psi = 0.098*[#  65]+0.098*[#  66]+0.085*[#  21]+0.085*[#  22]+0.075*[#  55]
          +0.075*[#  56]+0.071*[#  19]+0.071*[#  20]+0.067*[#  29]+0.067*[#  30]
          +0.065*[#  57]+0.065*[#  58]+0.004*[#  32]+0.004*[#  33]+0.004*[#  68]
          +0.004*[#  69]+0.003*[#  63]+0.003*[#  64]+0.003*[#  27]+0.003*[#  28]
          +0.003*[#  37]+0.003*[#  38]+0.003*[#   1]+0.003*[#   2]+0.002*[#  45]
          +0.002*[#  50]+0.002*[#   9]+0.002*[#  14]+0.002*[#  67]+0.002*[#  70]
          +0.002*[#  51]+0.002*[#  54]+0.002*[#  23]+0.002*[#  26]+0.001*[#  15]
          +0.001*[#  18]+0.001*[#   3]+0.001*[#   6]+0.001*[#  31]+0.001*[#  34]
          +0.001*[#  39]+0.001*[#  42]
    |psi|^2 = 0.999
==== e(  21) =   -10.73852 eV ==== 
     psi = 0.128*[#  21]+0.128*[#  22]+0.117*[#  65]+0.117*[#  66]+0.092*[#  57]
          +0.092*[#  58]+0.088*[#  29]+0.088*[#  30]+0.010*[#  10]+0.010*[#  13]
          +0.010*[#  46]+0.010*[#  49]+0.007*[#  16]+0.007*[#  17]+0.007*[#  52]
          +0.007*[#  53]+0.005*[#  47]+0.005*[#  48]+0.005*[#  11]+0.005*[#  12]
          +0.003*[#  35]+0.003*[#  36]+0.002*[#  23]+0.002*[#  26]+0.002*[#  51]
          +0.002*[#  54]+0.002*[#   4]+0.002*[#   5]+0.002*[#  15]+0.002*[#  18]
          +0.002*[#  60]+0.002*[#  61]+0.002*[#  67]+0.002*[#  70]+0.002*[#  31]
          +0.002*[#  34]+0.002*[#  59]+0.002*[#  62]+0.002*[#  27]+0.002*[#  28]
          +0.002*[#  40]+0.002*[#  41]+0.001*[#  71]+0.001*[#  72]
    |psi|^2 = 0.999
==== e(  22) =   -10.73848 eV ==== 
     psi = 0.125*[#  65]+0.125*[#  66]+0.120*[#  21]+0.120*[#  22]+0.095*[#  29]
          +0.095*[#  30]+0.084*[#  57]+0.084*[#  58]+0.010*[#  10]+0.010*[#  13]
          +0.010*[#  46]+0.010*[#  49]+0.007*[#  16]+0.007*[#  17]+0.007*[#  52]
          +0.007*[#  53]+0.005*[#  11]+0.005*[#  12]+0.005*[#  47]+0.005*[#  48]
          +0.002*[#  15]+0.002*[#  18]+0.003*[#  63]+0.003*[#  64]+0.002*[#  23]
          +0.002*[#  26]+0.002*[#  67]+0.002*[#  70]+0.002*[#  31]+0.002*[#  32]
          +0.002*[#  33]+0.002*[#  34]+0.002*[#  40]+0.002*[#  41]+0.002*[#  51]
          +0.002*[#  54]+0.002*[#   4]+0.002*[#   5]+0.002*[#  59]+0.002*[#  62]
          +0.002*[#  71]+0.002*[#  72]+0.001*[#  27]+0.001*[#  28]
    |psi|^2 = 0.999
==== e(  23) =   -10.57230 eV ==== 
     psi = 0.125*[#  57]+0.125*[#  58]+0.116*[#  29]+0.116*[#  30]+0.095*[#  21]
          +0.095*[#  22]+0.093*[#  65]+0.093*[#  66]+0.010*[#  46]+0.010*[#  49]
          +0.010*[#  10]+0.010*[#  13]+0.007*[#  52]+0.007*[#  53]+0.007*[#  16]
          +0.007*[#  17]+0.005*[#  11]+0.005*[#  12]+0.005*[#  47]+0.005*[#  48]
          +0.003*[#  63]+0.003*[#  64]+0.002*[#  15]+0.002*[#  18]+0.002*[#  40]
          +0.002*[#  41]+0.002*[#  51]+0.002*[#  54]+0.002*[#  32]+0.002*[#  33]
          +0.002*[#   4]+0.002*[#   5]+0.002*[#  59]+0.002*[#  62]+0.002*[#  23]
          +0.002*[#  26]+0.002*[#  31]+0.002*[#  34]+0.002*[#  67]+0.002*[#  70]
          +0.001*[#  71]+0.001*[#  72]+0.001*[#  27]+0.001*[#  28]
    |psi|^2 = 0.998
==== e(  24) =   -10.57228 eV ==== 
     psi = 0.121*[#  29]+0.121*[#  30]+0.119*[#  57]+0.119*[#  58]+0.098*[#  65]
          +0.098*[#  66]+0.089*[#  21]+0.089*[#  22]+0.010*[#  46]+0.010*[#  49]
          +0.010*[#  10]+0.010*[#  13]+0.007*[#  16]+0.007*[#  17]+0.007*[#  52]
          +0.007*[#  53]+0.005*[#  47]+0.005*[#  48]+0.005*[#  11]+0.005*[#  12]
          +0.003*[#  35]+0.003*[#  36]+0.003*[#  51]+0.003*[#  54]+0.002*[#   4]
          +0.002*[#   5]+0.002*[#  15]+0.002*[#  18]+0.002*[#  40]+0.002*[#  41]
          +0.002*[#  60]+0.002*[#  61]+0.002*[#  31]+0.002*[#  34]+0.002*[#  59]
          +0.002*[#  62]+0.002*[#  67]+0.002*[#  70]+0.002*[#  23]+0.002*[#  26]
          +0.001*[#  27]+0.001*[#  28]+0.001*[#  71]+0.001*[#  72]
    |psi|^2 = 0.998
==== e(  25) =    -3.38013 eV ==== 
     psi = 0.078*[#  32]+0.078*[#  33]+0.051*[#  63]+0.051*[#  64]+0.044*[#  60]
          +0.044*[#  61]+0.040*[#  68]+0.040*[#  69]+0.034*[#  47]+0.034*[#  48]
          +0.027*[#  11]+0.027*[#  12]+0.026*[#  27]+0.026*[#  28]+0.025*[#  16]
          +0.025*[#  17]+0.024*[#  24]+0.024*[#  25]+0.017*[#  52]+0.017*[#  53]
          +0.017*[#  35]+0.017*[#  36]+0.015*[#   9]+0.015*[#  14]+0.014*[#  45]
          +0.014*[#  50]+0.012*[#  51]+0.012*[#  54]+0.012*[#  15]+0.012*[#  18]
          +0.009*[#  71]+0.009*[#  72]+0.005*[#  31]+0.005*[#  34]+0.005*[#  59]
          +0.005*[#  62]+0.004*[#  21]+0.004*[#  22]+0.004*[#  65]+0.004*[#  66]
          +0.004*[#  10]+0.004*[#  13]+0.003*[#  19]+0.003*[#  20]+0.003*[#  55]
          +0.003*[#  56]+0.003*[#  23]+0.003*[#  26]+0.003*[#  46]+0.003*[#  49]
          +0.003*[#  67]+0.003*[#  70]+0.002*[#  29]+0.002*[#  30]+0.002*[#  57]
          +0.002*[#  58]+0.002*[#   1]+0.002*[#   2]+0.002*[#  37]+0.002*[#  38]
          
    |psi|^2 = 0.989
==== e(  26) =    -3.38013 eV ==== 
     psi = 0.077*[#  60]+0.077*[#  61]+0.051*[#  35]+0.051*[#  36]+0.045*[#  32]
          +0.045*[#  33]+0.040*[#  24]+0.040*[#  25]+0.035*[#  11]+0.035*[#  12]
          +0.027*[#  47]+0.027*[#  48]+0.026*[#  71]+0.026*[#  72]+0.025*[#  52]
          +0.025*[#  53]+0.023*[#  68]+0.023*[#  69]+0.018*[#  16]+0.018*[#  17]
          +0.016*[#  63]+0.016*[#  64]+0.015*[#   9]+0.015*[#  14]+0.014*[#  45]
          +0.014*[#  50]+0.013*[#  15]+0.013*[#  18]+0.012*[#  51]+0.012*[#  54]
          +0.009*[#  27]+0.009*[#  28]+0.005*[#  31]+0.005*[#  34]+0.005*[#  59]
          +0.005*[#  62]+0.004*[#  21]+0.004*[#  22]+0.004*[#  65]+0.004*[#  66]
          +0.004*[#  46]+0.004*[#  49]+0.003*[#  19]+0.003*[#  20]+0.003*[#  55]
          +0.003*[#  56]+0.003*[#  10]+0.003*[#  13]+0.003*[#  23]+0.003*[#  26]
          +0.003*[#  67]+0.003*[#  70]+0.002*[#  29]+0.002*[#  30]+0.002*[#  57]
          +0.002*[#  58]+0.002*[#   1]+0.002*[#   2]+0.002*[#  37]+0.002*[#  38]
          
    |psi|^2 = 0.989
==== e(  27) =    -2.94670 eV ==== 
     psi = 0.069*[#  68]+0.069*[#  69]+0.049*[#  27]+0.049*[#  28]+0.039*[#  11]
          +0.039*[#  12]+0.037*[#  32]+0.037*[#  33]+0.031*[#  47]+0.031*[#  48]
          +0.028*[#  52]+0.028*[#  53]+0.028*[#  24]+0.028*[#  25]+0.028*[#  63]
          +0.028*[#  64]+0.021*[#   9]+0.021*[#  14]+0.021*[#  45]+0.021*[#  50]
          +0.020*[#  16]+0.020*[#  17]+0.018*[#  15]+0.018*[#  18]+0.017*[#  51]
          +0.017*[#  54]+0.016*[#  60]+0.016*[#  61]+0.007*[#  23]+0.007*[#  26]
          +0.007*[#  67]+0.007*[#  70]+0.007*[#  71]+0.007*[#  72]+0.005*[#  57]
          +0.005*[#  58]+0.005*[#  29]+0.005*[#  30]+0.005*[#  46]+0.005*[#  49]
          +0.005*[#  31]+0.005*[#  34]+0.005*[#  59]+0.005*[#  62]+0.004*[#  35]
          +0.004*[#  36]+0.004*[#  10]+0.004*[#  13]+0.004*[#  21]+0.004*[#  22]
          +0.003*[#  65]+0.003*[#  66]+0.002*[#  19]+0.002*[#  20]+0.002*[#  55]
          +0.002*[#  56]+0.002*[#   1]+0.002*[#   2]+0.002*[#  37]+0.002*[#  38]
          
    |psi|^2 = 0.986
==== e(  28) =    -2.94669 eV ==== 
     psi = 0.068*[#  24]+0.068*[#  25]+0.050*[#  71]+0.050*[#  72]+0.039*[#  47]
          +0.039*[#  48]+0.038*[#  60]+0.038*[#  61]+0.030*[#  11]+0.030*[#  12]
          +0.028*[#  68]+0.028*[#  69]+0.028*[#  16]+0.028*[#  17]+0.027*[#  35]
          +0.027*[#  36]+0.021*[#  45]+0.021*[#  50]+0.021*[#   9]+0.021*[#  14]
          +0.020*[#  52]+0.020*[#  53]+0.018*[#  51]+0.018*[#  54]+0.017*[#  15]
          +0.017*[#  18]+0.016*[#  32]+0.016*[#  33]+0.007*[#  67]+0.007*[#  70]
          +0.007*[#  23]+0.007*[#  26]+0.007*[#  27]+0.007*[#  28]+0.005*[#  29]
          +0.005*[#  30]+0.005*[#  57]+0.005*[#  58]+0.005*[#  10]+0.005*[#  13]
          +0.005*[#  31]+0.005*[#  34]+0.005*[#  59]+0.005*[#  62]+0.005*[#  63]
          +0.005*[#  64]+0.004*[#  46]+0.004*[#  49]+0.004*[#  65]+0.004*[#  66]
          +0.003*[#  21]+0.003*[#  22]+0.002*[#  19]+0.002*[#  20]+0.002*[#  55]
          +0.002*[#  56]+0.002*[#   1]+0.002*[#   2]+0.002*[#  37]+0.002*[#  38]
          
    |psi|^2 = 0.986
==== e(  29) =    -1.81893 eV ==== 
     psi = 0.041*[#  35]+0.041*[#  36]+0.040*[#  15]+0.040*[#  18]+0.038*[#   9]
          +0.038*[#  14]+0.035*[#  60]+0.035*[#  61]+0.032*[#  45]+0.032*[#  50]
          +0.028*[#  23]+0.028*[#  26]+0.026*[#  51]+0.026*[#  54]+0.026*[#  31]
          +0.026*[#  34]+0.025*[#  67]+0.025*[#  70]+0.019*[#  59]+0.019*[#  62]
          +0.018*[#  32]+0.018*[#  33]+0.018*[#  71]+0.018*[#  72]+0.017*[#  27]
          +0.017*[#  28]+0.015*[#  19]+0.015*[#  20]+0.013*[#  46]+0.013*[#  49]
          +0.012*[#  55]+0.012*[#  56]+0.012*[#  24]+0.012*[#  25]+0.012*[#  63]
          +0.012*[#  64]+0.010*[#  29]+0.010*[#  30]+0.010*[#  16]+0.010*[#  17]
          +0.009*[#  68]+0.009*[#  69]+0.008*[#  57]+0.008*[#  58]+0.007*[#  10]
          +0.007*[#  13]+0.006*[#  47]+0.006*[#  48]+0.005*[#  21]+0.005*[#  22]
          +0.005*[#  65]+0.005*[#  66]+0.002*[#   1]+0.002*[#   2]+0.002*[#  37]
          +0.002*[#  38]+0.001*[#  52]+0.001*[#  53]
    |psi|^2 = 0.986
==== e(  30) =    -1.81867 eV ==== 
     psi = 0.039*[#  63]+0.039*[#  64]+0.038*[#  51]+0.038*[#  54]+0.037*[#  32]
          +0.037*[#  33]+0.036*[#  45]+0.036*[#  50]+0.034*[#   9]+0.034*[#  14]
          +0.028*[#  15]+0.028*[#  18]+0.027*[#  23]+0.027*[#  26]+0.026*[#  67]
          +0.026*[#  70]+0.024*[#  59]+0.024*[#  62]+0.020*[#  31]+0.020*[#  34]
          +0.019*[#  27]+0.019*[#  28]+0.018*[#  60]+0.018*[#  61]+0.016*[#  71]
          +0.016*[#  72]+0.014*[#  55]+0.014*[#  56]+0.013*[#  10]+0.013*[#  13]
          +0.013*[#  19]+0.013*[#  20]+0.012*[#  35]+0.012*[#  36]+0.011*[#  68]
          +0.011*[#  69]+0.010*[#  57]+0.010*[#  58]+0.009*[#  52]+0.009*[#  53]
          +0.009*[#  29]+0.009*[#  30]+0.008*[#  24]+0.008*[#  25]+0.007*[#  46]
          +0.007*[#  49]+0.007*[#  11]+0.007*[#  12]+0.005*[#  21]+0.005*[#  22]
          +0.005*[#  65]+0.005*[#  66]+0.002*[#  37]+0.002*[#  38]+0.002*[#   1]
          +0.002*[#   2]+0.001*[#  16]+0.001*[#  17]
    |psi|^2 = 0.986
==== e(  31) =    -1.71783 eV ==== 
     psi = 0.044*[#  27]+0.044*[#  28]+0.041*[#  15]+0.041*[#  18]+0.035*[#   9]
          +0.035*[#  14]+0.032*[#  23]+0.032*[#  26]+0.029*[#  45]+0.029*[#  50]
          +0.027*[#  68]+0.027*[#  69]+0.024*[#  63]+0.024*[#  64]+0.024*[#  67]
          +0.024*[#  70]+0.022*[#  31]+0.022*[#  34]+0.021*[#  51]+0.021*[#  54]
          +0.021*[#  32]+0.021*[#  33]+0.021*[#  24]+0.021*[#  25]+0.019*[#  19]
          +0.019*[#  20]+0.017*[#  16]+0.017*[#  17]+0.015*[#  55]+0.015*[#  56]
          +0.014*[#  59]+0.014*[#  62]+0.013*[#  21]+0.013*[#  22]+0.012*[#  71]
          +0.012*[#  72]+0.011*[#  46]+0.011*[#  49]+0.009*[#  47]+0.009*[#  48]
          +0.009*[#  65]+0.009*[#  66]+0.008*[#  29]+0.008*[#  30]+0.007*[#  57]
          +0.007*[#  58]+0.006*[#  35]+0.006*[#  36]+0.003*[#  10]+0.003*[#  13]
          +0.002*[#   1]+0.002*[#   2]+0.002*[#  11]+0.002*[#  12]+0.002*[#  37]
          +0.002*[#  38]+0.001*[#  52]+0.001*[#  53]
    |psi|^2 = 0.985
==== e(  32) =    -1.71709 eV ==== 
     psi = 0.045*[#  71]+0.045*[#  72]+0.043*[#  51]+0.043*[#  54]+0.037*[#  45]
          +0.037*[#  50]+0.033*[#  67]+0.033*[#  70]+0.027*[#   9]+0.027*[#  14]
          +0.027*[#  24]+0.027*[#  25]+0.023*[#  23]+0.023*[#  26]+0.023*[#  60]
          +0.023*[#  61]+0.023*[#  35]+0.023*[#  36]+0.022*[#  59]+0.022*[#  62]
          +0.020*[#  15]+0.020*[#  18]+0.020*[#  55]+0.020*[#  56]+0.019*[#  68]
          +0.019*[#  69]+0.016*[#  52]+0.016*[#  53]+0.014*[#  19]+0.014*[#  20]
          +0.014*[#  31]+0.014*[#  34]+0.013*[#  65]+0.013*[#  66]+0.012*[#  27]
          +0.012*[#  28]+0.011*[#  10]+0.011*[#  13]+0.009*[#  11]+0.009*[#  12]
          +0.009*[#  21]+0.009*[#  22]+0.008*[#  57]+0.008*[#  58]+0.006*[#  29]
          +0.006*[#  30]+0.005*[#  63]+0.005*[#  64]+0.003*[#  46]+0.003*[#  49]
          +0.002*[#  37]+0.002*[#  38]+0.002*[#  47]+0.002*[#  48]+0.002*[#   1]
[...]
          +0.046*[#  62]+0.043*[#  32]+0.043*[#  33]+0.039*[#  68]+0.039*[#  69]
          +0.037*[#  35]+0.037*[#  36]+0.026*[#  63]+0.026*[#  64]+0.024*[#  23]
          +0.024*[#  26]+0.022*[#  10]+0.022*[#  13]+0.019*[#  31]+0.019*[#  34]
          +0.019*[#  24]+0.019*[#  25]+0.017*[#  52]+0.017*[#  53]+0.011*[#  16]
          +0.011*[#  17]+0.010*[#  46]+0.010*[#  49]+0.009*[#  47]+0.009*[#  48]
          +0.009*[#  71]+0.009*[#  72]+0.008*[#  11]+0.008*[#  12]+0.007*[#  60]
          +0.007*[#  61]+0.006*[#  51]+0.006*[#  54]+0.005*[#  15]+0.005*[#  18]
          +0.004*[#  65]+0.004*[#  66]+0.004*[#  21]+0.004*[#  22]+0.004*[#   9]
          +0.004*[#  14]+0.002*[#  45]+0.002*[#  50]+0.002*[#  29]+0.002*[#  30]
          +0.001*[#  57]+0.001*[#  58]+0.001*[#   4]+0.001*[#   5]
    |psi|^2 = 0.988
==== e(  38) =    -1.38511 eV ==== 
     psi = 0.064*[#  71]+0.064*[#  72]+0.052*[#  23]+0.052*[#  26]+0.047*[#  31]
          +0.047*[#  34]+0.042*[#  60]+0.042*[#  61]+0.039*[#  24]+0.039*[#  25]
          +0.037*[#  63]+0.037*[#  64]+0.027*[#  35]+0.027*[#  36]+0.023*[#  67]
          +0.023*[#  70]+0.022*[#  46]+0.022*[#  49]+0.019*[#  59]+0.019*[#  62]
          +0.019*[#  68]+0.019*[#  69]+0.018*[#  16]+0.018*[#  17]+0.011*[#  52]
          +0.011*[#  53]+0.010*[#  10]+0.010*[#  13]+0.009*[#  11]+0.009*[#  12]
          +0.009*[#  27]+0.009*[#  28]+0.008*[#  47]+0.008*[#  48]+0.007*[#  32]
          +0.007*[#  33]+0.006*[#  15]+0.006*[#  18]+0.005*[#  51]+0.005*[#  54]
          +0.004*[#  21]+0.004*[#  22]+0.004*[#  65]+0.004*[#  66]+0.004*[#  45]
          +0.004*[#  50]+0.002*[#   9]+0.002*[#  14]+0.002*[#  57]+0.002*[#  58]
          +0.001*[#  29]+0.001*[#  30]
    |psi|^2 = 0.988
==== e(  39) =    -1.17983 eV ==== 
     psi = 0.058*[#  59]+0.058*[#  62]+0.055*[#  31]+0.055*[#  34]+0.051*[#  35]
          +0.051*[#  36]+0.043*[#  24]+0.043*[#  25]+0.041*[#  23]+0.041*[#  26]
          +0.033*[#  27]+0.033*[#  28]+0.029*[#  63]+0.029*[#  64]+0.027*[#  32]
          +0.027*[#  33]+0.025*[#  67]+0.025*[#  70]+0.018*[#  71]+0.018*[#  72]
          +0.014*[#  68]+0.014*[#  69]+0.013*[#  16]+0.013*[#  17]+0.012*[#  10]
          +0.012*[#  13]+0.012*[#  60]+0.012*[#  61]+0.009*[#  52]+0.009*[#  53]
          +0.009*[#  11]+0.009*[#  12]+0.008*[#   9]+0.008*[#  14]+0.006*[#  46]
          +0.006*[#  47]+0.006*[#  48]+0.006*[#  49]+0.005*[#  21]+0.005*[#  22]
          +0.004*[#  51]+0.004*[#  54]+0.002*[#  19]+0.002*[#  20]+0.002*[#  65]
          +0.002*[#  66]+0.002*[#   7]+0.002*[#   8]+0.002*[#  15]+0.002*[#  18]
          +0.001*[#  45]+0.001*[#  50]
    |psi|^2 = 0.981
==== e(  40) =    -1.17905 eV ==== 
     psi = 0.058*[#  31]+0.058*[#  34]+0.054*[#  59]+0.054*[#  62]+0.051*[#  63]
          +0.051*[#  64]+0.042*[#  68]+0.042*[#  69]+0.040*[#  67]+0.040*[#  70]
          +0.032*[#  71]+0.032*[#  72]+0.029*[#  35]+0.029*[#  36]+0.027*[#  60]
          +0.027*[#  61]+0.025*[#  23]+0.025*[#  26]+0.018*[#  27]+0.018*[#  28]
          +0.014*[#  24]+0.014*[#  25]+0.013*[#  52]+0.013*[#  53]+0.012*[#  46]
          +0.012*[#  49]+0.012*[#  32]+0.012*[#  33]+0.009*[#  16]+0.009*[#  17]
          +0.009*[#  47]+0.009*[#  48]+0.008*[#  45]+0.008*[#  50]+0.006*[#  11]
          +0.006*[#  12]+0.006*[#  10]+0.006*[#  13]+0.005*[#  65]+0.005*[#  66]
          +0.004*[#  15]+0.004*[#  18]+0.002*[#  21]+0.002*[#  22]+0.002*[#  55]
          +0.002*[#  56]+0.002*[#  43]+0.002*[#  44]+0.002*[#  51]+0.002*[#  54]
          +0.001*[#   9]+0.001*[#  14]
    |psi|^2 = 0.981
==== e(  41) =    -1.02767 eV ==== 
     psi = 0.073*[#  27]+0.073*[#  28]+0.065*[#  23]+0.065*[#  26]+0.048*[#  67]
          +0.048*[#  70]+0.032*[#  31]+0.032*[#  34]+0.032*[#  32]+0.032*[#  33]
          +0.029*[#  71]+0.029*[#  72]+0.023*[#  68]+0.023*[#  69]+0.021*[#  24]
          +0.021*[#  25]+0.019*[#  63]+0.019*[#  64]+0.017*[#  60]+0.017*[#  61]
          +0.017*[#  59]+0.017*[#  62]+0.016*[#  35]+0.016*[#  36]+0.015*[#  11]
          +0.015*[#  12]+0.012*[#  15]+0.012*[#  18]+0.007*[#  52]+0.007*[#  53]
          +0.007*[#   9]+0.007*[#  14]+0.006*[#  29]+0.006*[#  30]+0.006*[#  57]
          +0.006*[#  58]+0.006*[#  46]+0.006*[#  49]+0.005*[#  45]+0.005*[#  50]
          +0.005*[#  51]+0.005*[#  54]+0.004*[#  16]+0.004*[#  17]+0.004*[#  21]
          +0.004*[#  22]+0.004*[#  10]+0.004*[#  13]+0.003*[#  47]+0.003*[#  48]
          +0.003*[#  19]+0.003*[#  20]+0.002*[#  65]+0.002*[#  66]+0.002*[#   4]
          +0.002*[#   5]+0.002*[#  55]+0.002*[#  56]+0.001*[#   3]+0.001*[#   6]
          
    |psi|^2 = 0.980
==== e(  42) =    -1.02692 eV ==== 
     psi = 0.073*[#  71]+0.073*[#  72]+0.065*[#  67]+0.065*[#  70]+0.048*[#  23]
          +0.048*[#  26]+0.033*[#  59]+0.033*[#  62]+0.031*[#  60]+0.031*[#  61]
          +0.030*[#  27]+0.030*[#  28]+0.022*[#  24]+0.022*[#  25]+0.021*[#  68]
          +0.021*[#  69]+0.020*[#  35]+0.020*[#  36]+0.017*[#  32]+0.017*[#  33]
          +0.016*[#  31]+0.016*[#  34]+0.016*[#  63]+0.016*[#  64]+0.015*[#  47]
          +0.015*[#  48]+0.012*[#  51]+0.012*[#  54]+0.007*[#  16]+0.007*[#  17]
          +0.007*[#  45]+0.007*[#  50]+0.006*[#  29]+0.006*[#  30]+0.006*[#  57]
          +0.006*[#  58]+0.005*[#   9]+0.005*[#  10]+0.005*[#  13]+0.005*[#  14]
          +0.005*[#  15]+0.005*[#  18]+0.005*[#  52]+0.005*[#  53]+0.004*[#  46]
          +0.004*[#  49]+0.004*[#  65]+0.004*[#  66]+0.003*[#  11]+0.003*[#  12]
          +0.003*[#  55]+0.003*[#  56]+0.002*[#  21]+0.002*[#  22]+0.002*[#  40]
          +0.002*[#  41]+0.002*[#  19]+0.002*[#  20]+0.001*[#  39]+0.001*[#  42]
          
    |psi|^2 = 0.981
==== e(  43) =    -0.90744 eV ==== 
     psi = 0.050*[#  35]+0.050*[#  36]+0.048*[#  31]+0.048*[#  34]+0.042*[#  24]
          +0.042*[#  25]+0.036*[#  63]+0.036*[#  64]+0.036*[#  27]+0.036*[#  28]
          +0.032*[#  32]+0.032*[#  33]+0.032*[#  59]+0.032*[#  62]+0.029*[#  67]
          +0.029*[#  70]+0.026*[#  60]+0.026*[#  61]+0.023*[#  23]+0.023*[#  26]
          +0.019*[#  68]+0.019*[#  69]+0.016*[#  71]+0.016*[#  72]+0.013*[#  11]
          +0.013*[#  12]+0.011*[#  47]+0.011*[#  48]+0.010*[#  15]+0.010*[#  18]
          +0.008*[#  16]+0.008*[#  17]+0.007*[#  45]+0.007*[#  50]+0.007*[#   9]
          +0.007*[#  14]+0.006*[#  29]+0.006*[#  30]+0.005*[#  46]+0.005*[#  49]
          +0.004*[#  51]+0.004*[#  54]+0.004*[#  21]+0.004*[#  22]+0.004*[#  57]
          +0.004*[#  58]+0.004*[#  10]+0.004*[#  13]+0.003*[#  19]+0.003*[#  20]
          +0.003*[#  52]+0.003*[#  53]+0.003*[#  65]+0.003*[#  66]+0.002*[#   3]
          +0.002*[#   6]+0.002*[#  55]+0.002*[#  56]
    |psi|^2 = 0.977
==== e(  44) =    -0.90683 eV ==== 
     psi = 0.052*[#  63]+0.052*[#  64]+0.048*[#  59]+0.048*[#  62]+0.042*[#  68]
          +0.042*[#  69]+0.037*[#  71]+0.037*[#  72]+0.036*[#  35]+0.036*[#  36]
          +0.033*[#  60]+0.033*[#  61]+0.030*[#  31]+0.030*[#  34]+0.028*[#  23]
          +0.028*[#  26]+0.025*[#  32]+0.025*[#  33]+0.024*[#  67]+0.024*[#  70]
          +0.018*[#  24]+0.018*[#  25]+0.015*[#  27]+0.015*[#  28]+0.013*[#  47]
          +0.013*[#  48]+0.010*[#  11]+0.010*[#  12]+0.010*[#  51]+0.010*[#  54]
          +0.008*[#  52]+0.008*[#  53]+0.007*[#  45]+0.007*[#  50]+0.007*[#   9]
          +0.007*[#  14]+0.006*[#  57]+0.006*[#  58]+0.005*[#  10]+0.005*[#  13]
          +0.004*[#  15]+0.004*[#  18]+0.004*[#  65]+0.004*[#  66]+0.004*[#  29]
          +0.004*[#  30]+0.004*[#  46]+0.004*[#  49]+0.003*[#  16]+0.003*[#  17]
          +0.004*[#  55]+0.004*[#  56]+0.003*[#  21]+0.003*[#  22]+0.002*[#  39]
          +0.002*[#  42]+0.002*[#  19]+0.002*[#  20]
    |psi|^2 = 0.977
==== e(  45) =    -0.11960 eV ==== 
     psi = 0.061*[#  24]+0.061*[#  25]+0.053*[#  32]+0.053*[#  33]+0.049*[#  60]
          +0.049*[#  61]+0.047*[#  68]+0.047*[#  69]+0.033*[#  27]+0.033*[#  28]
          +0.031*[#  71]+0.031*[#  72]+0.029*[#  35]+0.029*[#  36]+0.027*[#  63]
          +0.027*[#  64]+0.025*[#  10]+0.025*[#  13]+0.021*[#  52]+0.021*[#  53]
          +0.017*[#  67]+0.017*[#  70]+0.011*[#  47]+0.011*[#  48]+0.010*[#  21]
          +0.010*[#  22]+0.010*[#  59]+0.010*[#  62]+0.009*[#  65]+0.009*[#  66]
          +0.009*[#  46]+0.009*[#  49]+0.009*[#  16]+0.009*[#  17]+0.009*[#  29]
          +0.009*[#  30]+0.009*[#  57]+0.009*[#  58]+0.008*[#  15]+0.008*[#  18]
          +0.007*[#  23]+0.007*[#  26]+0.005*[#  11]+0.005*[#  12]+0.004*[#  31]
          +0.004*[#  34]+0.004*[#  51]+0.004*[#  54]
    |psi|^2 = 0.996
==== e(  46) =    -0.11958 eV ==== 
     psi = 0.060*[#  68]+0.060*[#  69]+0.051*[#  60]+0.051*[#  61]+0.050*[#  32]
          +0.050*[#  33]+0.048*[#  24]+0.048*[#  25]+0.032*[#  71]+0.032*[#  72]
          +0.031*[#  27]+0.031*[#  28]+0.028*[#  63]+0.028*[#  64]+0.028*[#  35]
          +0.028*[#  36]+0.024*[#  46]+0.024*[#  49]+0.021*[#  16]+0.021*[#  17]
          +0.018*[#  23]+0.018*[#  26]+0.011*[#  11]+0.011*[#  12]+0.011*[#  31]
          +0.011*[#  34]+0.010*[#  65]+0.010*[#  66]+0.010*[#  21]+0.010*[#  22]
          +0.009*[#  10]+0.009*[#  13]+0.009*[#  29]+0.009*[#  30]+0.008*[#  52]
          +0.008*[#  53]+0.008*[#  57]+0.008*[#  58]+0.008*[#  51]+0.008*[#  54]
          +0.006*[#  67]+0.006*[#  70]+0.005*[#  47]+0.005*[#  48]+0.004*[#  59]
          +0.004*[#  62]+0.004*[#  15]+0.004*[#  18]
    |psi|^2 = 0.996
==== e(  47) =     0.10268 eV ==== 
     psi = 0.066*[#  60]+0.066*[#  61]+0.047*[#  24]+0.047*[#  25]+0.047*[#  71]
          +0.047*[#  72]+0.044*[#  31]+0.044*[#  34]+0.042*[#  68]+0.042*[#  69]
          +0.039*[#  63]+0.039*[#  64]+0.033*[#  23]+0.033*[#  26]+0.032*[#  32]
          +0.032*[#  33]+0.032*[#  35]+0.032*[#  36]+0.018*[#  46]+0.018*[#  49]
          +0.016*[#  16]+0.016*[#  17]+0.014*[#  27]+0.014*[#  28]+0.008*[#  11]
          +0.008*[#  12]+0.008*[#  57]+0.008*[#  58]+0.007*[#  29]+0.007*[#  30]
          +0.007*[#  51]+0.007*[#  54]+0.006*[#  21]+0.006*[#  22]+0.006*[#  65]
          +0.006*[#  66]+0.005*[#  10]+0.005*[#  13]+0.004*[#  59]+0.004*[#  62]
          +0.004*[#  52]+0.004*[#  53]+0.004*[#  67]+0.004*[#  70]+0.002*[#  47]
          +0.002*[#  48]+0.002*[#  15]+0.002*[#  18]+0.001*[#   4]+0.001*[#   5]
          +0.001*[#  40]+0.001*[#  41]
    |psi|^2 = 0.992
==== e(  48) =     0.10271 eV ==== 
     psi = 0.065*[#  32]+0.065*[#  33]+0.049*[#  68]+0.049*[#  69]+0.046*[#  27]
          +0.046*[#  28]+0.044*[#  59]+0.044*[#  62]+0.041*[#  24]+0.041*[#  25]
          +0.038*[#  35]+0.038*[#  36]+0.033*[#  67]+0.033*[#  70]+0.033*[#  60]
          +0.033*[#  61]+0.032*[#  63]+0.032*[#  64]+0.018*[#  10]+0.018*[#  13]
          +0.016*[#  52]+0.016*[#  53]+0.015*[#  71]+0.015*[#  72]+0.008*[#  47]
          +0.008*[#  48]+0.008*[#  29]+0.008*[#  30]+0.007*[#  57]+0.007*[#  58]
          +0.007*[#  15]+0.007*[#  18]+0.006*[#  65]+0.006*[#  66]+0.006*[#  21]
          +0.006*[#  22]+0.005*[#  46]+0.005*[#  49]+0.004*[#  31]+0.004*[#  34]
          +0.004*[#  16]+0.004*[#  17]+0.004*[#  23]+0.004*[#  26]+0.002*[#  11]
          +0.002*[#  12]+0.002*[#  51]+0.002*[#  54]+0.001*[#  40]+0.001*[#  41]
          +0.001*[#   4]+0.001*[#   5]
    |psi|^2 = 0.992
==== e(  49) =     1.57413 eV ==== 
     psi = 0.231*[#  15]+0.231*[#  18]+0.059*[#  10]+0.059*[#  13]+0.030*[#  11]
          +0.030*[#  12]+0.029*[#  35]+0.029*[#  36]+0.029*[#  27]+0.029*[#  28]
          +0.024*[#  45]+0.024*[#  50]+0.022*[#  32]+0.022*[#  33]+0.021*[#  16]
          +0.021*[#  17]+0.021*[#  24]+0.021*[#  25]+0.005*[#  19]+0.005*[#  20]
          +0.004*[#  59]+0.004*[#  62]+0.004*[#  31]+0.004*[#  34]+0.003*[#  23]
          +0.003*[#  26]+0.003*[#  67]+0.003*[#  70]+0.002*[#  47]+0.002*[#  48]
          +0.002*[#  52]+0.002*[#  53]
    |psi|^2 = 0.987
==== e(  50) =     1.57849 eV ==== 
     psi = 0.228*[#  51]+0.228*[#  54]+0.059*[#  46]+0.059*[#  49]+0.030*[#  47]
          +0.030*[#  48]+0.029*[#  63]+0.029*[#  64]+0.028*[#  71]+0.028*[#  72]
          +0.027*[#   9]+0.027*[#  14]+0.021*[#  60]+0.021*[#  61]+0.021*[#  52]
          +0.021*[#  53]+0.021*[#  68]+0.021*[#  69]+0.005*[#  55]+0.005*[#  56]
          +0.004*[#  31]+0.004*[#  34]+0.003*[#  23]+0.003*[#  26]+0.004*[#  59]
          +0.004*[#  62]+0.003*[#  67]+0.003*[#  70]+0.003*[#  11]+0.003*[#  12]
          +0.002*[#  16]+0.002*[#  17]
    |psi|^2 = 0.987
==== e(  51) =     1.71577 eV ==== 
     psi = 0.277*[#   9]+0.277*[#  14]+0.045*[#  23]+0.045*[#  26]+0.045*[#  31]
          +0.045*[#  34]+0.035*[#  11]+0.035*[#  12]+0.023*[#  16]+0.023*[#  17]
          +0.021*[#  51]+0.021*[#  54]+0.006*[#  24]+0.006*[#  25]+0.006*[#  32]
          +0.006*[#  33]+0.005*[#  46]+0.005*[#  49]+0.005*[#  19]+0.005*[#  20]
          +0.004*[#  27]+0.004*[#  28]+0.004*[#  35]+0.004*[#  36]+0.003*[#  47]
          +0.003*[#  48]+0.003*[#  71]+0.003*[#  72]+0.003*[#  63]+0.003*[#  64]
          +0.002*[#  52]+0.002*[#  53]+0.002*[#  60]+0.002*[#  61]+0.002*[#  68]
          +0.002*[#  69]
    |psi|^2 = 0.988
==== e(  52) =     1.72010 eV ==== 
     psi = 0.281*[#  45]+0.281*[#  50]+0.045*[#  67]+0.045*[#  70]+0.045*[#  59]
          +0.045*[#  62]+0.035*[#  47]+0.035*[#  48]+0.023*[#  52]+0.023*[#  53]
          +0.018*[#  15]+0.018*[#  18]+0.006*[#  68]+0.006*[#  69]+0.006*[#  60]
          +0.006*[#  61]+0.005*[#  55]+0.005*[#  56]+0.005*[#  10]+0.005*[#  13]
          +0.004*[#  63]+0.004*[#  64]+0.004*[#  71]+0.004*[#  72]+0.003*[#  11]
          +0.003*[#  12]+0.003*[#  27]+0.003*[#  28]+0.002*[#  35]+0.002*[#  36]
          +0.002*[#  16]+0.002*[#  17]+0.002*[#  24]+0.002*[#  25]+0.002*[#  32]
          +0.002*[#  33]
    |psi|^2 = 0.988
==== e(  53) =     4.01234 eV ==== 
     psi = 0.102*[#  11]+0.102*[#  12]+0.086*[#  16]+0.086*[#  17]+0.058*[#  47]
          +0.058*[#  48]+0.045*[#  52]+0.045*[#  53]+0.031*[#  15]+0.031*[#  18]
          +0.024*[#  23]+0.024*[#  26]+0.023*[#  45]+0.023*[#  50]+0.022*[#  31]
          +0.022*[#  34]+0.010*[#  60]+0.010*[#  61]+0.010*[#  68]+0.010*[#  69]
          +0.009*[#  71]+0.009*[#  72]+0.009*[#  10]+0.009*[#  13]+0.009*[#   9]
          +0.009*[#  14]+0.008*[#  63]+0.008*[#  64]+0.008*[#  51]+0.008*[#  54]
          +0.007*[#  32]+0.007*[#  33]+0.006*[#  24]+0.006*[#  25]+0.006*[#  19]
          +0.006*[#  20]+0.004*[#  35]+0.004*[#  36]+0.003*[#  27]+0.003*[#  28]
          +0.003*[#  55]+0.003*[#  56]+0.002*[#  59]+0.002*[#  62]+0.002*[#  46]
          +0.002*[#  49]
    |psi|^2 = 0.979
==== e(  54) =     4.01357 eV ==== 
     psi = 0.094*[#  47]+0.094*[#  48]+0.080*[#  52]+0.080*[#  53]+0.066*[#  11]
          +0.066*[#  12]+0.051*[#  16]+0.051*[#  17]+0.029*[#  51]+0.029*[#  54]
          +0.026*[#   9]+0.026*[#  14]+0.022*[#  67]+0.022*[#  70]+0.020*[#  59]
          +0.020*[#  62]+0.011*[#  32]+0.011*[#  33]+0.011*[#  24]+0.011*[#  25]
          +0.010*[#  27]+0.010*[#  28]+0.010*[#  35]+0.010*[#  36]+0.008*[#  45]
          +0.008*[#  50]+0.008*[#  46]+0.008*[#  49]+0.008*[#  15]+0.008*[#  18]
          +0.007*[#  60]+0.007*[#  61]+0.006*[#  68]+0.006*[#  69]+0.006*[#  55]
          +0.006*[#  56]+0.004*[#  63]+0.004*[#  64]+0.003*[#  19]+0.003*[#  20]
          +0.003*[#  71]+0.003*[#  72]+0.002*[#  31]+0.002*[#  34]+0.002*[#  10]
          +0.002*[#  13]
    |psi|^2 = 0.979
==== e(  55) =     4.12649 eV ==== 
     psi = 0.100*[#  11]+0.100*[#  12]+0.075*[#  16]+0.075*[#  17]+0.069*[#  47]
          +0.069*[#  48]+0.057*[#  52]+0.057*[#  53]+0.044*[#   9]+0.044*[#  14]
          +0.023*[#  51]+0.023*[#  54]+0.016*[#  59]+0.016*[#  62]+0.015*[#  67]
          +0.015*[#  70]+0.015*[#  35]+0.015*[#  36]+0.014*[#  27]+0.014*[#  28]
          +0.014*[#  24]+0.014*[#  25]+0.014*[#  32]+0.014*[#  33]+0.007*[#  19]
          +0.007*[#  20]+0.006*[#  46]+0.006*[#  49]+0.006*[#  55]+0.006*[#  56]
          +0.004*[#  68]+0.004*[#  69]+0.003*[#  60]+0.003*[#  61]+0.002*[#  15]
          +0.002*[#  18]+0.002*[#  23]+0.002*[#  26]+0.002*[#  71]+0.002*[#  72]
          +0.001*[#  31]+0.001*[#  34]+0.001*[#  63]+0.001*[#  64]+0.001*[#  45]
          +0.001*[#  50]
    |psi|^2 = 0.984
==== e(  56) =     4.12768 eV ==== 
     psi = 0.107*[#  47]+0.107*[#  48]+0.080*[#  52]+0.080*[#  53]+0.061*[#  11]
          +0.061*[#  12]+0.051*[#  16]+0.051*[#  17]+0.047*[#  45]+0.047*[#  50]
          +0.021*[#  15]+0.021*[#  18]+0.016*[#  63]+0.016*[#  64]+0.016*[#  71]
          +0.016*[#  72]+0.015*[#  68]+0.015*[#  69]+0.015*[#  60]+0.015*[#  61]
          +0.014*[#  31]+0.014*[#  34]+0.013*[#  23]+0.013*[#  26]+0.007*[#  55]
          +0.007*[#  56]+0.006*[#  10]+0.006*[#  13]+0.005*[#  19]+0.005*[#  20]
          +0.003*[#  24]+0.003*[#  25]+0.003*[#  51]+0.003*[#  54]+0.002*[#  32]
          +0.002*[#  33]+0.002*[#  67]+0.002*[#  70]+0.002*[#  27]+0.002*[#  28]
          +0.002*[#  59]+0.002*[#  62]+0.001*[#  35]+0.001*[#  36]
    |psi|^2 = 0.983
==== e(  57) =     4.84459 eV ==== 
     psi = 0.052*[#  46]+0.052*[#  49]+0.049*[#  15]+0.049*[#  18]+0.037*[#  11]
          +0.037*[#  12]+0.037*[#  16]+0.037*[#  17]+0.037*[#  31]+0.037*[#  34]
          +0.029*[#  23]+0.029*[#  26]+0.024*[#  63]+0.024*[#  64]+0.021*[#  47]
          +0.021*[#  48]+0.019*[#  71]+0.019*[#  72]+0.017*[#  32]+0.017*[#  33]
          +0.014*[#  51]+0.014*[#  54]+0.014*[#  10]+0.014*[#  13]+0.013*[#  52]
          +0.013*[#  53]+0.011*[#  68]+0.011*[#  69]+0.011*[#  59]+0.011*[#  62]
          +0.010*[#  45]+0.010*[#  50]+0.010*[#  60]+0.010*[#  61]+0.010*[#  24]
          +0.010*[#  25]+0.010*[#  67]+0.010*[#  70]+0.008*[#   9]+0.008*[#  14]
          +0.005*[#  35]+0.005*[#  36]+0.004*[#  27]+0.004*[#  28]+0.003*[#  29]
          +0.003*[#  30]+0.002*[#  19]+0.002*[#  20]+0.002*[#  57]+0.002*[#  58]
          +0.001*[#  55]+0.001*[#  56]
    |psi|^2 = 0.897
==== e(  58) =     4.84507 eV ==== 
     psi = 0.053*[#  10]+0.053*[#  13]+0.048*[#  51]+0.048*[#  54]+0.037*[#  47]
          +0.037*[#  48]+0.036*[#  52]+0.036*[#  53]+0.036*[#  59]+0.036*[#  62]
          +0.029*[#  67]+0.029*[#  70]+0.025*[#  35]+0.025*[#  36]+0.021*[#  11]
          +0.021*[#  12]+0.019*[#  27]+0.019*[#  28]+0.016*[#  60]+0.016*[#  61]
          +0.015*[#  15]+0.015*[#  18]+0.014*[#  46]+0.014*[#  49]+0.014*[#  16]
          +0.014*[#  17]+0.011*[#  24]+0.011*[#  25]+0.011*[#  31]+0.011*[#  34]
          +0.010*[#   9]+0.010*[#  14]+0.010*[#  32]+0.010*[#  33]+0.010*[#  23]
          +0.010*[#  26]+0.010*[#  68]+0.010*[#  69]+0.008*[#  45]+0.008*[#  50]
          +0.005*[#  63]+0.005*[#  64]+0.004*[#  71]+0.004*[#  72]+0.003*[#  57]
          +0.003*[#  58]+0.002*[#  55]+0.002*[#  56]+0.002*[#  29]+0.002*[#  30]
          +0.001*[#  19]+0.001*[#  20]
    |psi|^2 = 0.897

Lowdin Charges: 

     Atom #   1: total charge =  13.6953, s =  2.5002, 
     Atom #   1: total charge =  13.6953, p =  5.9949, 
     Atom #   1: total charge =  13.6953, d =  5.2002, 
     Atom #   2: total charge =   6.0558, s =  1.7672, 
     Atom #   2: total charge =   6.0558, p =  4.2887, 
     Atom #   2: total charge =   6.0558, d =  0.0000, 
     Atom #   3: total charge =   6.0511, s =  1.7691, 
     Atom #   3: total charge =   6.0511, p =  4.2820, 
     Atom #   3: total charge =   6.0511, d =  0.0000, 
     Atom #   4: total charge =  13.6933, s =  2.5002, 
     Atom #   4: total charge =  13.6933, p =  5.9949, 
     Atom #   4: total charge =  13.6933, d =  5.1982, 
     Atom #   5: total charge =   6.0523, s =  1.7691, 
     Atom #   5: total charge =   6.0523, p =  4.2832, 
     Atom #   5: total charge =   6.0523, d =  0.0000, 
     Atom #   6: total charge =   6.0566, s =  1.7671, 
     Atom #   6: total charge =   6.0566, p =  4.2894, 
     Atom #   6: total charge =   6.0566, d =  0.0000, 
     Spilling Parameter:   0.0076
 
     PROJWFC      :      5.03s CPU      7.50s WALL

 
   This run was terminated on:  14: 3:40  15Apr2024            

=------------------------------------------------------------------------------=
   JOB DONE.
=------------------------------------------------------------------------------=
