
     Program PWSCF v.7.2 starts on  4Apr2024 at 12:26:32 

     This program is part of the open-source Quantum ESPRESSO suite
     for quantum simulation of materials; please cite
         "P. Giannozzi et al., J. Phys.:Condens. Matter 21 395502 (2009);
         "P. Giannozzi et al., J. Phys.:Condens. Matter 29 465901 (2017);
         "P. Giannozzi et al., J. Chem. Phys. 152 154105 (2020);
          URL http://www.quantum-espresso.org", 
     in publications or presentations arising from this work. More details at
     http://www.quantum-espresso.org/quote

     Parallel version (MPI & OpenMP), running on       8 processor cores
     Number of MPI processes:                 8
     Threads/MPI process:                     1

     MPI processes distributed on     1 nodes
     0 MiB available memory on the printing compute node when the environment starts

     Waiting for input...
     Reading input from standard input

     Current dimensions of program PWSCF are:
     Max number of different atomic species (ntypx) = 10
     Max number of k-points (npk) =  40000
     Max angular momentum in pseudopotentials (lmaxx) =  4

     IMPORTANT: XC functional enforced from input :
     Exchange-correlation= VDW-DF2-B86R
                           (   1   4  26   0   2   0   0)
     Any further DFT definition will be discarded
     Please, verify this is what you really want


     R & G space division:  proc/nbgrp/npool/nimage =       8
     Subspace diagonalization in iterative solution of the eigenvalue problem:
     a serial algorithm will be used


     Parallelization info
     --------------------
     sticks:   dense  smooth     PW     G-vecs:    dense   smooth      PW
     Min          74      74     21                 8744     8744    1373
     Max          77      77     22                 8750     8750    1401
     Sum         595     595    169                69987    69987   11065

     Using Slab Decomposition



     bravais-lattice index     =            4
     lattice parameter (alat)  =       4.6350  a.u.
     unit-cell volume          =     517.4056 (a.u.)^3
     number of atoms/cell      =            2
     number of atomic types    =            2
     number of electrons       =         8.00
     number of Kohn-Sham states=            8
     kinetic-energy cutoff     =     100.0000  Ry
     charge density cutoff     =     400.0000  Ry
     scf convergence threshold =      1.0E-06
     mixing beta               =       0.7000
     number of iterations used =            8  plain     mixing
     energy convergence thresh.=      1.0E-04
     force convergence thresh. =      1.0E-03
     press convergence thresh. =      5.0E-01
     Exchange-correlation= VDW-DF2-B86R
                           (   1   4  26   0   2   0   0)
     nstep                     =           50


     celldm(1)=   4.635000  celldm(2)=   0.000000  celldm(3)=   6.000000
     celldm(4)=   0.000000  celldm(5)=   0.000000  celldm(6)=   0.000000

     crystal axes: (cart. coord. in units of alat)
               a(1) = (   1.000000   0.000000   0.000000 )  
               a(2) = (  -0.500000   0.866025   0.000000 )  
               a(3) = (   0.000000   0.000000   6.000000 )  

     reciprocal axes: (cart. coord. in units 2 pi/alat)
               b(1) = (  1.000000  0.577350 -0.000000 )  
               b(2) = (  0.000000  1.154701  0.000000 )  
               b(3) = (  0.000000 -0.000000  0.166667 )  


     PseudoPot. # 1 for N  read from file:
     ../../../Pseudo/PBE/N.upf
     MD5 check sum: d34365f73bb0e2ee98afc20ec3e87676
     Pseudo is Norm-conserving + core correction, Zval =  5.0
     Generated using ONCVPSP code by D. R. Hamann
     Using radial grid of 1058 points,  4 beta functions with: 
                l(1) =   0
                l(2) =   0
                l(3) =   1
                l(4) =   1

     PseudoPot. # 2 for B  read from file:
     ../../../Pseudo/PBE/B.upf
     MD5 check sum: 72f82fc31bc892420d0cab7e25c88ab8
     Pseudo is Norm-conserving + core correction, Zval =  3.0
     Generated using ONCVPSP code by D. R. Hamann
     Using radial grid of 1534 points,  4 beta functions with: 
                l(1) =   0
                l(2) =   0
                l(3) =   1
                l(4) =   1

     atomic species   valence    mass     pseudopotential
        N              5.00    14.00670     N ( 1.00)
        B              3.00    10.80100     B ( 1.00)

     12 Sym. Ops. (no inversion) found


                                    s                        frac. trans.

      isym =  1     identity                                     

 cryst.   s( 1) = (     1          0          0      )
                  (     0          1          0      )
                  (     0          0          1      )

 cart.    s( 1) = (  1.0000000  0.0000000  0.0000000 )
                  (  0.0000000  1.0000000  0.0000000 )
                  (  0.0000000  0.0000000  1.0000000 )


      isym =  2     180 deg rotation - cart. axis [0,1,0]        

 cryst.   s( 2) = (    -1          0          0      )
                  (     1          1          0      )
                  (     0          0         -1      )

 cart.    s( 2) = ( -1.0000000  0.0000000  0.0000000 )
                  (  0.0000000  1.0000000  0.0000000 )
                  (  0.0000000  0.0000000 -1.0000000 )


      isym =  3     120 deg rotation - cryst. axis [0,0,1]       

 cryst.   s( 3) = (     0          1          0      )
                  (    -1         -1          0      )
                  (     0          0          1      )

 cart.    s( 3) = ( -0.5000000 -0.8660254  0.0000000 )
                  (  0.8660254 -0.5000000  0.0000000 )
                  (  0.0000000  0.0000000  1.0000000 )


      isym =  4     120 deg rotation - cryst. axis [0,0,-1]      

 cryst.   s( 4) = (    -1         -1          0      )
                  (     1          0          0      )
                  (     0          0          1      )

 cart.    s( 4) = ( -0.5000000  0.8660254  0.0000000 )
                  ( -0.8660254 -0.5000000  0.0000000 )
                  (  0.0000000  0.0000000  1.0000000 )


      isym =  5     180 deg rotation - cryst. axis [1,-1,0]      

 cryst.   s( 5) = (     0         -1          0      )
                  (    -1          0          0      )
                  (     0          0         -1      )

 cart.    s( 5) = (  0.5000000 -0.8660254  0.0000000 )
                  ( -0.8660254 -0.5000000  0.0000000 )
                  (  0.0000000  0.0000000 -1.0000000 )


      isym =  6     180 deg rotation - cryst. axis [2,1,0]       

 cryst.   s( 6) = (     1          1          0      )
                  (     0         -1          0      )
                  (     0          0         -1      )

 cart.    s( 6) = (  0.5000000  0.8660254  0.0000000 )
                  (  0.8660254 -0.5000000  0.0000000 )
                  (  0.0000000  0.0000000 -1.0000000 )


      isym =  7     inv. 180 deg rotation - cart. axis [0,0,1]   

 cryst.   s( 7) = (     1          0          0      )
                  (     0          1          0      )
                  (     0          0         -1      )

 cart.    s( 7) = (  1.0000000  0.0000000  0.0000000 )
                  (  0.0000000  1.0000000  0.0000000 )
                  (  0.0000000  0.0000000 -1.0000000 )


      isym =  8     inv. 180 deg rotation - cart. axis [1,0,0]   

 cryst.   s( 8) = (    -1          0          0      )
                  (     1          1          0      )
                  (     0          0          1      )

 cart.    s( 8) = ( -1.0000000  0.0000000  0.0000000 )
                  (  0.0000000  1.0000000  0.0000000 )
                  (  0.0000000  0.0000000  1.0000000 )


      isym =  9     inv.  60 deg rotation - cryst. axis [0,0,1]  

 cryst.   s( 9) = (    -1         -1          0      )
                  (     1          0          0      )
                  (     0          0         -1      )

 cart.    s( 9) = ( -0.5000000  0.8660254  0.0000000 )
                  ( -0.8660254 -0.5000000  0.0000000 )
                  (  0.0000000  0.0000000 -1.0000000 )


      isym = 10     inv.  60 deg rotation - cryst. axis [0,0,-1] 

 cryst.   s(10) = (     0          1          0      )
                  (    -1         -1          0      )
                  (     0          0         -1      )

 cart.    s(10) = ( -0.5000000 -0.8660254  0.0000000 )
                  (  0.8660254 -0.5000000  0.0000000 )
                  (  0.0000000  0.0000000 -1.0000000 )


      isym = 11     inv. 180 deg rotation - cryst. axis [0,1,0]  

 cryst.   s(11) = (     1          1          0      )
                  (     0         -1          0      )
                  (     0          0          1      )

 cart.    s(11) = (  0.5000000  0.8660254  0.0000000 )
                  (  0.8660254 -0.5000000  0.0000000 )
                  (  0.0000000  0.0000000  1.0000000 )


      isym = 12     inv. 180 deg rotation - cryst. axis [1,1,0]  

 cryst.   s(12) = (     0         -1          0      )
                  (    -1          0          0      )
                  (     0          0          1      )

 cart.    s(12) = (  0.5000000 -0.8660254  0.0000000 )
                  ( -0.8660254 -0.5000000  0.0000000 )
                  (  0.0000000  0.0000000  1.0000000 )


     point group D_3h (-62m)
     there are  6 classes
     the character table:

       E     2C3   3C2   s_h   2S3   3s_v 
A'_1   1.00  1.00  1.00  1.00  1.00  1.00
A'_2   1.00  1.00 -1.00  1.00  1.00 -1.00
E'     2.00 -1.00  0.00  2.00 -1.00  0.00
A''1   1.00  1.00  1.00 -1.00 -1.00 -1.00
A''2   1.00  1.00 -1.00 -1.00 -1.00  1.00
E''    2.00 -1.00  0.00 -2.00  1.00  0.00

     the symmetry operations in each class and the name of the first element:

     E        1
          identity                                               
     2C3      3    4
          120 deg rotation - cryst. axis [0,0,1]                 
     3C2      2    6    5
          180 deg rotation - cart. axis [0,1,0]                  
     s_h      7
          inv. 180 deg rotation - cart. axis [0,0,1]             
     2S3      9   10
          inv.  60 deg rotation - cryst. axis [0,0,1]            
     3s_v     8   11   12
          inv. 180 deg rotation - cart. axis [1,0,0]             

   Cartesian axes

     site n.     atom                  positions (alat units)
         1           B   tau(   1) = (   0.0000000   0.0000000   0.0000000  )
         2           N   tau(   2) = (  -0.0000000   0.5773503   0.0000000  )

   Crystallographic axes

     site n.     atom                  positions (cryst. coord.)
         1           B   tau(   1) = (  0.0000000  0.0000000  0.0000000  )
         2           N   tau(   2) = (  0.3333333  0.6666667  0.0000000  )

     number of k points=    30  Marzari-Vanderbilt smearing, width (Ry)=  0.0050
                       cart. coord. in units 2pi/alat
        k(    1) = (   0.0000000   0.0000000   0.0000000), wk =   0.0078125
        k(    2) = (   0.0000000   0.0721688   0.0000000), wk =   0.0468750
        k(    3) = (   0.0000000   0.1443376   0.0000000), wk =   0.0468750
        k(    4) = (   0.0000000   0.2165064   0.0000000), wk =   0.0468750
        k(    5) = (   0.0000000   0.2886751   0.0000000), wk =   0.0468750
        k(    6) = (   0.0000000   0.3608439   0.0000000), wk =   0.0468750
        k(    7) = (   0.0000000   0.4330127   0.0000000), wk =   0.0468750
        k(    8) = (   0.0000000   0.5051815   0.0000000), wk =   0.0468750
        k(    9) = (   0.0000000  -0.5773503   0.0000000), wk =   0.0234375
        k(   10) = (   0.0625000   0.1082532   0.0000000), wk =   0.0468750
        k(   11) = (   0.0625000   0.1804220   0.0000000), wk =   0.0937500
        k(   12) = (   0.0625000   0.2525907   0.0000000), wk =   0.0937500
        k(   13) = (   0.0625000   0.3247595   0.0000000), wk =   0.0937500
        k(   14) = (   0.0625000   0.3969283   0.0000000), wk =   0.0937500
        k(   15) = (   0.0625000   0.4690971   0.0000000), wk =   0.0937500
        k(   16) = (   0.0625000   0.5412659   0.0000000), wk =   0.0937500
        k(   17) = (   0.1250000   0.2165064   0.0000000), wk =   0.0468750
        k(   18) = (   0.1250000   0.2886751   0.0000000), wk =   0.0937500
        k(   19) = (   0.1250000   0.3608439   0.0000000), wk =   0.0937500
        k(   20) = (   0.1250000   0.4330127   0.0000000), wk =   0.0937500
        k(   21) = (   0.1250000   0.5051815   0.0000000), wk =   0.0937500
        k(   22) = (   0.1250000   0.5773503   0.0000000), wk =   0.0468750
        k(   23) = (   0.1875000   0.3247595   0.0000000), wk =   0.0468750
        k(   24) = (   0.1875000   0.3969283   0.0000000), wk =   0.0937500
        k(   25) = (   0.1875000   0.4690971   0.0000000), wk =   0.0937500
        k(   26) = (   0.1875000   0.5412659   0.0000000), wk =   0.0937500
        k(   27) = (   0.2500000   0.4330127   0.0000000), wk =   0.0468750
        k(   28) = (   0.2500000   0.5051815   0.0000000), wk =   0.0937500
        k(   29) = (   0.2500000   0.5773503   0.0000000), wk =   0.0468750
        k(   30) = (   0.3125000   0.5412659   0.0000000), wk =   0.0468750

                       cryst. coord.
        k(    1) = (   0.0000000   0.0000000   0.0000000), wk =   0.0078125
        k(    2) = (   0.0000000   0.0625000   0.0000000), wk =   0.0468750
        k(    3) = (   0.0000000   0.1250000   0.0000000), wk =   0.0468750
        k(    4) = (   0.0000000   0.1875000   0.0000000), wk =   0.0468750
        k(    5) = (   0.0000000   0.2500000   0.0000000), wk =   0.0468750
        k(    6) = (   0.0000000   0.3125000   0.0000000), wk =   0.0468750
        k(    7) = (   0.0000000   0.3750000   0.0000000), wk =   0.0468750
        k(    8) = (   0.0000000   0.4375000   0.0000000), wk =   0.0468750
        k(    9) = (   0.0000000  -0.5000000   0.0000000), wk =   0.0234375
        k(   10) = (   0.0625000   0.0625000   0.0000000), wk =   0.0468750
        k(   11) = (   0.0625000   0.1250000   0.0000000), wk =   0.0937500
        k(   12) = (   0.0625000   0.1875000   0.0000000), wk =   0.0937500
        k(   13) = (   0.0625000   0.2500000   0.0000000), wk =   0.0937500
        k(   14) = (   0.0625000   0.3125000   0.0000000), wk =   0.0937500
        k(   15) = (   0.0625000   0.3750000   0.0000000), wk =   0.0937500
        k(   16) = (   0.0625000   0.4375000   0.0000000), wk =   0.0937500
        k(   17) = (   0.1250000   0.1250000   0.0000000), wk =   0.0468750
        k(   18) = (   0.1250000   0.1875000   0.0000000), wk =   0.0937500
        k(   19) = (   0.1250000   0.2500000   0.0000000), wk =   0.0937500
        k(   20) = (   0.1250000   0.3125000   0.0000000), wk =   0.0937500
        k(   21) = (   0.1250000   0.3750000   0.0000000), wk =   0.0937500
        k(   22) = (   0.1250000   0.4375000   0.0000000), wk =   0.0468750
        k(   23) = (   0.1875000   0.1875000   0.0000000), wk =   0.0468750
        k(   24) = (   0.1875000   0.2500000   0.0000000), wk =   0.0937500
        k(   25) = (   0.1875000   0.3125000   0.0000000), wk =   0.0937500
        k(   26) = (   0.1875000   0.3750000   0.0000000), wk =   0.0937500
        k(   27) = (   0.2500000   0.2500000   0.0000000), wk =   0.0468750
        k(   28) = (   0.2500000   0.3125000   0.0000000), wk =   0.0937500
        k(   29) = (   0.2500000   0.3750000   0.0000000), wk =   0.0468750
        k(   30) = (   0.3125000   0.3125000   0.0000000), wk =   0.0468750

     Dense  grid:    69987 G-vectors     FFT dimensions: (  30,  30, 180)

     Dynamical RAM for                 wfc:       0.13 MB

     Dynamical RAM for     wfc (w. buffer):       4.13 MB

     Dynamical RAM for           str. fact:       0.27 MB

     Dynamical RAM for           local pot:       0.00 MB

     Dynamical RAM for          nlocal pot:       0.27 MB

     Dynamical RAM for                qrad:       1.83 MB

     Dynamical RAM for          rho,v,vnew:       0.87 MB

     Dynamical RAM for               rhoin:       0.29 MB

     Dynamical RAM for            rho*nmix:       2.13 MB

     Dynamical RAM for           G-vectors:       0.57 MB

     Dynamical RAM for          h,s,v(r/c):       0.01 MB

     Dynamical RAM for          <psi|beta>:       0.00 MB

     Dynamical RAM for                 psi:       0.27 MB

     Dynamical RAM for                hpsi:       0.27 MB

     Dynamical RAM for      wfcinit/wfcrot:       0.27 MB

     Estimated static dynamical RAM per process >       9.42 MB

     Estimated max dynamical RAM per process >      12.10 MB

     Estimated total dynamical RAM >      96.84 MB

     Initial potential from superposition of free atoms

     starting charge       7.9997, renormalised to       8.0000

     negative rho (up, down):  2.367E-06 0.000E+00


     %%%%%%%%%%%%%%%%%%%%%%%%%%%%%%%%%%%%%%%%%%%%%%%%%%%%%%%%%%%%%%%%%%%%%%%%
     %                                                                      %
     % You are using vdW-DF, which was implemented by the Thonhauser group. %
     % Please cite the following two papers that made this development      %
     % possible and the two reviews that describe the various versions:     %
     %                                                                      %
     %   T. Thonhauser et al., PRL 115, 136402 (2015).                      %
     %   T. Thonhauser et al., PRB 76, 125112 (2007).                       %
     %   K. Berland et al., Rep. Prog. Phys. 78, 066501 (2015).             %
     %   D.C. Langreth et al., J. Phys.: Condens. Matter 21, 084203 (2009). %
     %                                                                      %
     % If you are calculating stress with vdW-DF, please also cite:         %
     %                                                                      %
     %   R. Sabatini et al., J. Phys.: Condens. Matter 24, 424209 (2012).   %
     %                                                                      %
     %%%%%%%%%%%%%%%%%%%%%%%%%%%%%%%%%%%%%%%%%%%%%%%%%%%%%%%%%%%%%%%%%%%%%%%%

     %%%%%%%%%%%%%%%%%%%%%%%%%%%%%%%%%%%%%%%%%%%%%%%%%%%%%%%%%%%%%%%%%%%%%%%%
     %                                                                      %
     %  vdW-DF NEWS:                                                        %
     %                                                                      %
     %  * vdW-DF3 is now available. DOI: 10.1021/acs.jctc.0c00471           %
     %    use with input_dft = 'vdW-DF3-opt1' or 'vdW-DF3-opt2'             %
     %                                                                      %
     %  * Unscreened and range-separated hybrid vdW-DF-cx functionals       %
     %    DOI: 10.1063/1.4986522 and 10.1088/1361-648X/ac2ad2               %
     %    use with input_dft = 'vdW-DF-cx0'    and 'vdW-DF-ahcx'            %
     %  * Unscreened and range-separated hybrid vdW-DF2-b86r functionals    %
     %    DOI: 10.1063/1.4986522 and DOI: 10.1103/PhysRevX.12.041003        %
     %    use with input_dft = 'vdW-DF2-br0' and 'vdW-DF2-ahbr'             %
     %                                                                      %
     %%%%%%%%%%%%%%%%%%%%%%%%%%%%%%%%%%%%%%%%%%%%%%%%%%%%%%%%%%%%%%%%%%%%%%%%


     Carrying out vdW-DF run using the following parameters:
     Nqs    =  20  Npoints =  1024  r_max =  100.000
     q_mesh =  0.00001000  0.04494208  0.09755937  0.15916263
               0.23128650  0.31572767  0.41458969  0.53033537
               0.66584808  0.82450364  1.01025438  1.22772762
               1.48234092  1.78043706  2.12944203  2.53805004
               3.01644009  3.57652955  4.23227104  5.00000000


     -----------------------------------------------
     Non-local corr. energy    =       0.09457293 Ry
     -----------------------------------------------

     Starting wfcs are    8 randomized atomic wfcs

     total cpu time spent up to now is       10.8 secs

     Self-consistent Calculation

     iteration #  1     ecut=   100.00 Ry     beta= 0.70
     Davidson diagonalization with overlap

---- Real-time Memory Report at c_bands before calling an iterative solver
             0 MiB given to the printing process from OS
             0 MiB allocation reported by mallinfo(arena+hblkhd)
             0 MiB available memory on the node where the printing process lives
------------------
     ethr =  1.00E-02,  avg # of iterations =  8.3


     -----------------------------------------------
     Non-local corr. energy    =       0.10811033 Ry
     -----------------------------------------------


     total cpu time spent up to now is       12.2 secs

     total energy              =     -26.70545792 Ry
     estimated scf accuracy    <       0.43005796 Ry

     iteration #  2     ecut=   100.00 Ry     beta= 0.70
     Davidson diagonalization with overlap

---- Real-time Memory Report at c_bands before calling an iterative solver
             0 MiB given to the printing process from OS
             0 MiB allocation reported by mallinfo(arena+hblkhd)
             0 MiB available memory on the node where the printing process lives
------------------
     ethr =  5.38E-03,  avg # of iterations =  3.4


     -----------------------------------------------
     Non-local corr. energy    =       0.10516474 Ry
     -----------------------------------------------


     total cpu time spent up to now is       13.1 secs

     total energy              =     -26.81009793 Ry
     estimated scf accuracy    <       0.16581489 Ry

     iteration #  3     ecut=   100.00 Ry     beta= 0.70
     Davidson diagonalization with overlap

---- Real-time Memory Report at c_bands before calling an iterative solver
             0 MiB given to the printing process from OS
             0 MiB allocation reported by mallinfo(arena+hblkhd)
             0 MiB available memory on the node where the printing process lives
------------------
     ethr =  2.07E-03,  avg # of iterations =  3.5


     -----------------------------------------------
     Non-local corr. energy    =       0.10611128 Ry
     -----------------------------------------------


     total cpu time spent up to now is       14.0 secs

     total energy              =     -26.84122019 Ry
     estimated scf accuracy    <       0.00173097 Ry

     iteration #  4     ecut=   100.00 Ry     beta= 0.70
     Davidson diagonalization with overlap

---- Real-time Memory Report at c_bands before calling an iterative solver
             0 MiB given to the printing process from OS
             0 MiB allocation reported by mallinfo(arena+hblkhd)
             0 MiB available memory on the node where the printing process lives
------------------
     ethr =  2.16E-05,  avg # of iterations =  9.5


     -----------------------------------------------
     Non-local corr. energy    =       0.10606111 Ry
     -----------------------------------------------


     total cpu time spent up to now is       15.8 secs

     total energy              =     -26.84249651 Ry
     estimated scf accuracy    <       0.00097223 Ry

     iteration #  5     ecut=   100.00 Ry     beta= 0.70
     Davidson diagonalization with overlap

---- Real-time Memory Report at c_bands before calling an iterative solver
             0 MiB given to the printing process from OS
             0 MiB allocation reported by mallinfo(arena+hblkhd)
             0 MiB available memory on the node where the printing process lives
------------------
     ethr =  1.22E-05,  avg # of iterations =  3.3

     negative rho (up, down):  4.872E-08 0.000E+00


     -----------------------------------------------
     Non-local corr. energy    =       0.10610984 Ry
     -----------------------------------------------


     total cpu time spent up to now is       16.9 secs

     total energy              =     -26.84266379 Ry
     estimated scf accuracy    <       0.00001023 Ry

     iteration #  6     ecut=   100.00 Ry     beta= 0.70
     Davidson diagonalization with overlap

---- Real-time Memory Report at c_bands before calling an iterative solver
             0 MiB given to the printing process from OS
             0 MiB allocation reported by mallinfo(arena+hblkhd)
             0 MiB available memory on the node where the printing process lives
------------------
     ethr =  1.28E-07,  avg # of iterations =  6.6


     -----------------------------------------------
     Non-local corr. energy    =       0.10610746 Ry
     -----------------------------------------------


     total cpu time spent up to now is       18.9 secs

     total energy              =     -26.84267326 Ry
     estimated scf accuracy    <       0.00001790 Ry

     iteration #  7     ecut=   100.00 Ry     beta= 0.70
     Davidson diagonalization with overlap

---- Real-time Memory Report at c_bands before calling an iterative solver
             0 MiB given to the printing process from OS
             0 MiB allocation reported by mallinfo(arena+hblkhd)
             0 MiB available memory on the node where the printing process lives
------------------
     ethr =  1.28E-07,  avg # of iterations =  1.9


     -----------------------------------------------
     Non-local corr. energy    =       0.10610988 Ry
     -----------------------------------------------


     total cpu time spent up to now is       20.0 secs

     total energy              =     -26.84267397 Ry
     estimated scf accuracy    <       0.00000154 Ry

     iteration #  8     ecut=   100.00 Ry     beta= 0.70
     Davidson diagonalization with overlap

---- Real-time Memory Report at c_bands before calling an iterative solver
             0 MiB given to the printing process from OS
             0 MiB allocation reported by mallinfo(arena+hblkhd)
             0 MiB available memory on the node where the printing process lives
------------------
     ethr =  1.92E-08,  avg # of iterations =  3.0


     -----------------------------------------------
     Non-local corr. energy    =       0.10611402 Ry
     -----------------------------------------------


     total cpu time spent up to now is       21.1 secs

     End of self-consistent calculation

          k = 0.0000 0.0000 0.0000 (  8807 PWs)   bands (ev):

   -21.4102  -8.9887  -4.7058  -4.7058   0.9064   2.0091   2.8779   4.6397

     occupation numbers 
     1.0000   1.0000   1.0000   1.0000   0.0000   0.0000   0.0000   0.0000

          k = 0.0000 0.0722 0.0000 (  8797 PWs)   bands (ev):

   -21.3317  -8.8818  -5.0319  -4.8640   1.0402   2.1318   3.0087   4.7585

     occupation numbers 
     1.0000   1.0000   1.0000   1.0000   0.0000   0.0000   0.0000   0.0000

          k = 0.0000 0.1443 0.0000 (  8769 PWs)   bands (ev):

   -21.0983  -8.5636  -5.9157  -5.2830   1.4328   2.4967   3.3993   5.1067

     occupation numbers 
     1.0000   1.0000   1.0000   1.0000   0.0000   0.0000   0.0000   0.0000

          k = 0.0000 0.2165 0.0000 (  8765 PWs)   bands (ev):

   -20.7174  -8.0427  -7.1557  -5.8409   2.0707   3.0890   4.0464   5.6356

     occupation numbers 
     1.0000   1.0000   1.0000   1.0000   0.0000   0.0000   0.0000   0.0000

          k = 0.0000 0.2887 0.0000 (  8741 PWs)   bands (ev):

   -20.2045  -8.5567  -7.3368  -6.4198   2.9459   3.8355   4.9463   5.9944

     occupation numbers 
     1.0000   1.0000   1.0000   1.0000   0.0000   0.0000   0.0000   0.0000

          k = 0.0000 0.3608 0.0000 (  8773 PWs)   bands (ev):

   -19.5902  -9.9606  -6.9349  -6.4818   4.0467   4.1282   5.8499   6.0894

     occupation numbers 
     1.0000   1.0000   1.0000   1.0000   0.0000   0.0000   0.0000   0.0000

          k = 0.0000 0.4330 0.0000 (  8719 PWs)   bands (ev):

   -18.9385 -11.2227  -7.3330  -5.5544   3.1187   5.3331   6.8393   7.3728

     occupation numbers 
     1.0000   1.0000   1.0000   1.0000   0.0000   0.0000   0.0000   0.0000

          k = 0.0000 0.5052 0.0000 (  8704 PWs)   bands (ev):

   -18.3829 -12.1613  -7.5825  -4.7324   2.0243   6.5793   8.0478   8.3463

     occupation numbers 
     1.0000   1.0000   1.0000   1.0000   0.0000   0.0000   0.0000   0.0000

          k = 0.0000-0.5774 0.0000 (  8720 PWs)   bands (ev):

   -18.1491 -12.5255  -7.6673  -4.3707   1.5539   7.0381   9.0407   9.5819

     occupation numbers 
     1.0000   1.0000   1.0000   1.0000   0.0000   0.0000   0.0000   0.0000

          k = 0.0625 0.1083 0.0000 (  8789 PWs)   bands (ev):

   -21.1757  -8.6692  -5.6117  -5.1777   1.3035   2.3757   3.2695   4.9922

     occupation numbers 
     1.0000   1.0000   1.0000   1.0000   0.0000   0.0000   0.0000   0.0000

          k = 0.0625 0.1804 0.0000 (  8741 PWs)   bands (ev):

   -20.8684  -8.2495  -6.6236  -5.7162   1.8194   2.8555   3.7888   5.4362

     occupation numbers 
     1.0000   1.0000   1.0000   1.0000   0.0000   0.0000   0.0000   0.0000

          k = 0.0625 0.2526 0.0000 (  8749 PWs)   bands (ev):

   -20.4206  -7.9031  -7.6351  -6.3257   2.5781   3.5370   4.5635   5.9438

     occupation numbers 
     1.0000   1.0000   1.0000   1.0000   0.0000   0.0000   0.0000   0.0000

          k = 0.0625 0.3248 0.0000 (  8748 PWs)   bands (ev):

   -19.8543  -9.2808  -6.8987  -6.8515   3.5716   4.1876   5.5894   5.8578

     occupation numbers 
     1.0000   1.0000   1.0000   1.0000   0.0000   0.0000   0.0000   0.0000

          k = 0.0625 0.3969 0.0000 (  8733 PWs)   bands (ev):

   -19.2137 -10.6050  -7.3699  -5.9506   3.6929   4.7823   6.3083   6.8481

     occupation numbers 
     1.0000   1.0000   1.0000   1.0000   0.0000   0.0000   0.0000   0.0000

          k = 0.0625 0.4691 0.0000 (  8718 PWs)   bands (ev):

   -18.5915 -11.7147  -7.7011  -5.0487   2.5310   6.1385   7.6359   8.0145

     occupation numbers 
     1.0000   1.0000   1.0000   1.0000   0.0000   0.0000   0.0000   0.0000

          k = 0.0625 0.5413 0.0000 (  8736 PWs)   bands (ev):

   -18.1697 -12.3891  -7.8713  -4.4081   1.6947   7.1976   8.6719   9.2348

     occupation numbers 
     1.0000   1.0000   1.0000   1.0000   0.0000   0.0000   0.0000   0.0000

          k = 0.1250 0.2165 0.0000 (  8751 PWs)   bands (ev):

   -20.4936  -7.7356  -7.5857  -6.3957   2.4576   3.4300   4.4366   5.8907

     occupation numbers 
     1.0000   1.0000   1.0000   1.0000   0.0000   0.0000   0.0000   0.0000

          k = 0.1250 0.2887 0.0000 (  8767 PWs)   bands (ev):

   -19.9898  -8.7420  -7.1003  -7.0406   3.3393   4.1025   5.3401   5.9808

     occupation numbers 
     1.0000   1.0000   1.0000   1.0000   0.0000   0.0000   0.0000   0.0000

          k = 0.1250 0.3608 0.0000 (  8742 PWs)   bands (ev):

   -19.3886  -9.9803  -7.6950  -6.2008   4.0913   4.4546   6.0612   6.4945

     occupation numbers 
     1.0000   1.0000   1.0000   1.0000   0.0000   0.0000   0.0000   0.0000

          k = 0.1250 0.4330 0.0000 (  8736 PWs)   bands (ev):

   -18.7543 -11.1376  -8.1345  -5.2937   3.0661   5.7815   7.1580   7.8759

     occupation numbers 
     1.0000   1.0000   1.0000   1.0000   0.0000   0.0000   0.0000   0.0000

          k = 0.1250 0.5052 0.0000 (  8717 PWs)   bands (ev):

   -18.2179 -12.0126  -8.4030  -4.4943   2.0499   7.2229   8.6239   8.9592

     occupation numbers 
     1.0000   1.0000   1.0000   1.0000   0.0000   0.0000   0.0000   0.0000

          k = 0.1250 0.5774 0.0000 (  8744 PWs)   bands (ev):

   -17.9939 -12.3533  -8.4933  -4.1444   1.6134   8.0780   9.3867   9.8550

     occupation numbers 
     1.0000   1.0000   1.0000   1.0000   0.0000   0.0000   0.0000   0.0000

          k = 0.1875 0.3248 0.0000 (  8743 PWs)   bands (ev):

   -19.4485  -9.6567  -7.9310  -6.2862   4.2215   4.3449   6.0111   6.3730

     occupation numbers 
     1.0000   1.0000   1.0000   1.0000   0.0000   0.0000   0.0000   0.0000

          k = 0.1875 0.3969 0.0000 (  8746 PWs)   bands (ev):

   -18.8427 -10.6260  -8.6063  -5.4260   3.4237   5.5816   6.9220   7.6565

     occupation numbers 
     1.0000   1.0000   1.0000   1.0000   0.0000   0.0000   0.0000   0.0000

          k = 0.1875 0.4691 0.0000 (  8712 PWs)   bands (ev):

   -18.2641 -11.5111  -9.0499  -4.5755   2.4340   7.0212   8.2197   9.1635

     occupation numbers 
     1.0000   1.0000   1.0000   1.0000   0.0000   0.0000   0.0000   0.0000

          k = 0.1875 0.5413 0.0000 (  8706 PWs)   bands (ev):

   -17.8802 -12.0695  -9.2662  -3.9808   1.7378   8.5295   9.4512   9.9783

     occupation numbers 
     1.0000   1.0000   1.0000   1.0000   0.0000   0.0000   0.0000   0.0000

          k = 0.2500 0.4330 0.0000 (  8733 PWs)   bands (ev):

   -18.2828 -11.2144  -9.4042  -4.6078   2.6047   6.9311   8.0749   9.0660

     occupation numbers 
     1.0000   1.0000   1.0000   1.0000   0.0000   0.0000   0.0000   0.0000

          k = 0.2500 0.5052 0.0000 (  8707 PWs)   bands (ev):

   -17.8281 -11.6921  -9.9149  -3.9102   1.8958   8.4532   9.0642  10.6481

     occupation numbers 
     1.0000   1.0000   1.0000   1.0000   0.0000   0.0000   0.0000   0.0000

          k = 0.2500 0.5774 0.0000 (  8702 PWs)   bands (ev):

   -17.6453 -11.8897 -10.0839  -3.6149   1.5954   9.3118   9.7030  10.4613

     occupation numbers 
     1.0000   1.0000   1.0000   1.0000   0.0000   0.0000   0.0000   0.0000

          k = 0.3125 0.5413 0.0000 (  8676 PWs)   bands (ev):

   -17.5616 -11.6994 -10.5009  -3.4824   1.5626   9.0943   9.8890  11.2062

     occupation numbers 
     1.0000   1.0000   1.0000   1.0000   0.0000   0.0000   0.0000   0.0000

     the Fermi energy is    -0.8549 ev

!    total energy              =     -26.84267456 Ry
     estimated scf accuracy    <       0.00000034 Ry
     smearing contrib. (-TS)   =       0.00000000 Ry
     internal energy E=F+TS    =     -26.84267456 Ry

     The total energy is F=E-TS. E is the sum of the following terms:
     one-electron contribution =    -158.34499013 Ry
     hartree contribution      =      80.98996447 Ry
     xc contribution           =      -8.77776237 Ry
     ewald contribution        =      59.29011347 Ry

     convergence has been achieved in   8 iterations


     -----------------------------------------------
     Non-local corr. energy    =       0.10611402 Ry
     -----------------------------------------------


     Forces acting on atoms (cartesian axes, Ry/au):

     atom    1 type  2   force =    -0.00000000   -0.00000000    0.00000000
     atom    2 type  1   force =     0.00000000    0.00000000    0.00000000
     The non-local contrib.  to forces
     atom    1 type  2   force =     0.00000000   -0.00000000    0.00000000
     atom    2 type  1   force =     0.00000000    0.00000000    0.00000000
     The ionic contribution  to forces
     atom    1 type  2   force =    -0.00000001    0.00000000   -0.00000000
     atom    2 type  1   force =     0.00000001   -0.00000000   -0.00000000
     The local contribution  to forces
     atom    1 type  2   force =    -0.00000000   -0.00000000    0.00000000
     atom    2 type  1   force =     0.00000003   -0.00000002   -0.00000000
     The core correction contribution to forces
     atom    1 type  2   force =    -0.00000000    0.00000000   -0.00000000
     atom    2 type  1   force =    -0.00000000    0.00000000    0.00000000
     The Hubbard contrib.    to forces
     atom    1 type  2   force =     0.00000000    0.00000000    0.00000000
     atom    2 type  1   force =     0.00000000    0.00000000    0.00000000
     The SCF correction term to forces
     atom    1 type  2   force =     0.00000000   -0.00000000   -0.00000000
     atom    2 type  1   force =     0.00000000    0.00000000    0.00000000

     Total force =     0.000000     Total SCF correction =     0.000000


     Computing stress (Cartesian axis) and pressure



     -----------------------------------------------
     Non-local corr. energy    =       0.10611402 Ry
     -----------------------------------------------

          total   stress  (Ry/bohr**3)                   (kbar)     P=       42.56
   0.00043347  -0.00000000   0.00000000           63.77       -0.00        0.00
  -0.00000000   0.00043347   0.00000000           -0.00       63.77        0.00
   0.00000000   0.00000000   0.00000097            0.00        0.00        0.14

     kinetic stress (kbar)   3521.91      0.00      0.00
                                0.00   3521.91      0.00
                                0.00      0.00   3786.98

     local   stress (kbar) -47252.60      0.00     -0.00
                                0.00 -47252.60      0.00
                               -0.00      0.00  47882.26

     nonloc. stress (kbar)   -590.84      0.00      0.00
                                0.00   -590.84      0.00
                                0.00      0.00   -560.18

     hartree stress (kbar)  22453.79     -0.00     -0.00
                               -0.00  22453.79     -0.00
                               -0.00     -0.00 -21881.09

     exc-cor stress (kbar)   -352.73     -0.00      0.00
                               -0.00   -352.73      0.00
                                0.00      0.00   -388.89

     corecor stress (kbar)   -388.25      0.00      0.00
                                0.00   -388.25      0.00
                                0.00      0.00   -378.68

     ewald   stress (kbar)  22669.65     -0.00     -0.00
                               -0.00  22669.65     -0.00
                               -0.00     -0.00 -28482.36

     hubbard stress (kbar)      0.00      0.00      0.00
                                0.00      0.00      0.00
                                0.00      0.00      0.00

     DFT-D   stress (kbar)      0.00      0.00      0.00
                                0.00      0.00      0.00
                                0.00      0.00      0.00

     XDM     stress (kbar)      0.00      0.00      0.00
                                0.00      0.00      0.00
                                0.00      0.00      0.00

     dft-nl  stress (kbar)      2.84      0.00     -0.00
                                0.00      2.84      0.00
                               -0.00      0.00     22.11

     TS-vdW  stress (kbar)      0.00      0.00      0.00
                                0.00      0.00      0.00
                                0.00      0.00      0.00

     MDB     stress (kbar)      0.00      0.00      0.00
                                0.00      0.00      0.00
                                0.00      0.00      0.00

     3D-RISM stress (kbar)      0.00      0.00      0.00
                                0.00      0.00      0.00
                                0.00      0.00      0.00


     BFGS Geometry Optimization
     Energy error            =      0.0E+00 Ry
     Gradient error          =      2.8E-25 Ry/Bohr
     Cell gradient error     =      6.4E+01 kbar

     number of scf cycles    =   1
     number of bfgs steps    =   0

     enthalpy           new  =     -26.8426745584 Ry

     new trust radius        =       0.0493001359 bohr
     new conv_thr            =       0.0000010000 Ry

     new unit-cell volume =    528.69320 a.u.^3 (    78.34425 Ang^3 )
     density =      0.52581 g/cm^3

CELL_PARAMETERS (alat=  4.63500000)
   1.010836838  -0.000000000   0.000000000
  -0.505418419   0.875410381   0.000000000
   0.000000000   0.000000000   6.000145098

ATOMIC_POSITIONS (crystal)
B            -0.0000000000       -0.0000000000        0.0000000000
N             0.3333333330        0.6666666670        0.0000000000



     Writing config-only to output data dir ./tmp/hBN.save/
     NEW-OLD atomic charge density approx. for the potential

     negative rho (up, down):  1.423E-06 0.000E+00


     -----------------------------------------------
     Non-local corr. energy    =       0.10812920 Ry
     -----------------------------------------------

     extrapolated charge    8.17079, renormalised to    8.00000

     total cpu time spent up to now is       24.5 secs

     Self-consistent Calculation

     iteration #  1     ecut=   100.00 Ry     beta= 0.70
     Davidson diagonalization with overlap

---- Real-time Memory Report at c_bands before calling an iterative solver
             0 MiB given to the printing process from OS
             0 MiB allocation reported by mallinfo(arena+hblkhd)
             0 MiB available memory on the node where the printing process lives
------------------
     c_bands:  1 eigenvalues not converged
     c_bands:  1 eigenvalues not converged
     c_bands:  1 eigenvalues not converged
     c_bands:  2 eigenvalues not converged
     c_bands:  1 eigenvalues not converged
     ethr =  1.00E-06,  avg # of iterations = 12.1


     -----------------------------------------------
     Non-local corr. energy    =       0.10192178 Ry
     -----------------------------------------------


     total cpu time spent up to now is       27.0 secs

     total energy              =     -26.38251484 Ry
     estimated scf accuracy    <       0.38967860 Ry

     iteration #  2     ecut=   100.00 Ry     beta= 0.70
     Davidson diagonalization with overlap

---- Real-time Memory Report at c_bands before calling an iterative solver
             0 MiB given to the printing process from OS
             0 MiB allocation reported by mallinfo(arena+hblkhd)
             0 MiB available memory on the node where the printing process lives
------------------
     ethr =  4.87E-03,  avg # of iterations =  6.2


     -----------------------------------------------
     Non-local corr. energy    =       0.10630554 Ry
     -----------------------------------------------


     total cpu time spent up to now is       28.3 secs

     total energy              =     -26.87602545 Ry
     estimated scf accuracy    <       0.39319997 Ry

     iteration #  3     ecut=   100.00 Ry     beta= 0.70
     Davidson diagonalization with overlap

---- Real-time Memory Report at c_bands before calling an iterative solver
             0 MiB given to the printing process from OS
             0 MiB allocation reported by mallinfo(arena+hblkhd)
             0 MiB available memory on the node where the printing process lives
------------------
     ethr =  4.87E-03,  avg # of iterations =  1.8


     -----------------------------------------------
     Non-local corr. energy    =       0.10667103 Ry
     -----------------------------------------------


     total cpu time spent up to now is       29.0 secs

     total energy              =     -26.87561726 Ry
     estimated scf accuracy    <       0.07841272 Ry

     iteration #  4     ecut=   100.00 Ry     beta= 0.70
     Davidson diagonalization with overlap

---- Real-time Memory Report at c_bands before calling an iterative solver
             0 MiB given to the printing process from OS
             0 MiB allocation reported by mallinfo(arena+hblkhd)
             0 MiB available memory on the node where the printing process lives
------------------
     ethr =  9.80E-04,  avg # of iterations =  3.8


     -----------------------------------------------
     Non-local corr. energy    =       0.10644109 Ry
     -----------------------------------------------


     total cpu time spent up to now is       29.9 secs

     total energy              =     -26.85888738 Ry
     estimated scf accuracy    <       0.04297528 Ry

     iteration #  5     ecut=   100.00 Ry     beta= 0.70
     Davidson diagonalization with overlap

---- Real-time Memory Report at c_bands before calling an iterative solver
             0 MiB given to the printing process from OS
             0 MiB allocation reported by mallinfo(arena+hblkhd)
             0 MiB available memory on the node where the printing process lives
------------------
     ethr =  5.37E-04,  avg # of iterations =  3.4


     -----------------------------------------------
     Non-local corr. energy    =       0.10639537 Ry
     -----------------------------------------------


     total cpu time spent up to now is       30.7 secs

     total energy              =     -26.85786342 Ry
     estimated scf accuracy    <       0.01847533 Ry

     iteration #  6     ecut=   100.00 Ry     beta= 0.70
     Davidson diagonalization with overlap

---- Real-time Memory Report at c_bands before calling an iterative solver
             0 MiB given to the printing process from OS
             0 MiB allocation reported by mallinfo(arena+hblkhd)
             0 MiB available memory on the node where the printing process lives
------------------
     ethr =  2.31E-04,  avg # of iterations =  2.0


     -----------------------------------------------
     Non-local corr. energy    =       0.10648519 Ry
     -----------------------------------------------


     total cpu time spent up to now is       31.4 secs

     total energy              =     -26.86202945 Ry
     estimated scf accuracy    <       0.01674418 Ry

     iteration #  7     ecut=   100.00 Ry     beta= 0.70
     Davidson diagonalization with overlap

---- Real-time Memory Report at c_bands before calling an iterative solver
             0 MiB given to the printing process from OS
             0 MiB allocation reported by mallinfo(arena+hblkhd)
             0 MiB available memory on the node where the printing process lives
------------------
     ethr =  2.09E-04,  avg # of iterations =  2.1


     -----------------------------------------------
     Non-local corr. energy    =       0.10660904 Ry
     -----------------------------------------------


     total cpu time spent up to now is       32.2 secs

     total energy              =     -26.84751708 Ry
     estimated scf accuracy    <       0.02115324 Ry

     iteration #  8     ecut=   100.00 Ry     beta= 0.70
     Davidson diagonalization with overlap

---- Real-time Memory Report at c_bands before calling an iterative solver
             0 MiB given to the printing process from OS
             0 MiB allocation reported by mallinfo(arena+hblkhd)
             0 MiB available memory on the node where the printing process lives
------------------
     ethr =  2.09E-04,  avg # of iterations =  6.6


     -----------------------------------------------
     Non-local corr. energy    =       0.10668271 Ry
     -----------------------------------------------


     total cpu time spent up to now is       33.2 secs

     total energy              =     -26.84869846 Ry
     estimated scf accuracy    <       0.00208010 Ry

     iteration #  9     ecut=   100.00 Ry     beta= 0.70
     Davidson diagonalization with overlap

---- Real-time Memory Report at c_bands before calling an iterative solver
             0 MiB given to the printing process from OS
             0 MiB allocation reported by mallinfo(arena+hblkhd)
             0 MiB available memory on the node where the printing process lives
------------------
     ethr =  2.60E-05,  avg # of iterations =  5.7


     -----------------------------------------------
     Non-local corr. energy    =       0.10643497 Ry
     -----------------------------------------------


     total cpu time spent up to now is       34.3 secs

     total energy              =     -26.84659091 Ry
     estimated scf accuracy    <       0.00261974 Ry

     iteration # 10     ecut=   100.00 Ry     beta= 0.70
     Davidson diagonalization with overlap

---- Real-time Memory Report at c_bands before calling an iterative solver
             0 MiB given to the printing process from OS
             0 MiB allocation reported by mallinfo(arena+hblkhd)
             0 MiB available memory on the node where the printing process lives
------------------
     ethr =  2.60E-05,  avg # of iterations =  7.4

     negative rho (up, down):  2.674E-06 0.000E+00


     -----------------------------------------------
     Non-local corr. energy    =       0.10656139 Ry
     -----------------------------------------------


     total cpu time spent up to now is       35.5 secs

     total energy              =     -26.84627782 Ry
     estimated scf accuracy    <       0.00112855 Ry

     iteration # 11     ecut=   100.00 Ry     beta= 0.70
     Davidson diagonalization with overlap

---- Real-time Memory Report at c_bands before calling an iterative solver
             0 MiB given to the printing process from OS
             0 MiB allocation reported by mallinfo(arena+hblkhd)
             0 MiB available memory on the node where the printing process lives
------------------
     ethr =  1.41E-05,  avg # of iterations =  5.9

     negative rho (up, down):  2.650E-06 0.000E+00


     -----------------------------------------------
     Non-local corr. energy    =       0.10655774 Ry
     -----------------------------------------------


     total cpu time spent up to now is       36.6 secs

     total energy              =     -26.84637019 Ry
     estimated scf accuracy    <       0.00000642 Ry

     iteration # 12     ecut=   100.00 Ry     beta= 0.70
     Davidson diagonalization with overlap

---- Real-time Memory Report at c_bands before calling an iterative solver
             0 MiB given to the printing process from OS
             0 MiB allocation reported by mallinfo(arena+hblkhd)
             0 MiB available memory on the node where the printing process lives
------------------
     ethr =  8.02E-08,  avg # of iterations =  4.0

     negative rho (up, down):  4.883E-06 0.000E+00


     -----------------------------------------------
     Non-local corr. energy    =       0.10656489 Ry
     -----------------------------------------------


     total cpu time spent up to now is       37.5 secs

     total energy              =     -26.84637265 Ry
     estimated scf accuracy    <       0.00000190 Ry

     iteration # 13     ecut=   100.00 Ry     beta= 0.70
     Davidson diagonalization with overlap

---- Real-time Memory Report at c_bands before calling an iterative solver
             0 MiB given to the printing process from OS
             0 MiB allocation reported by mallinfo(arena+hblkhd)
             0 MiB available memory on the node where the printing process lives
------------------
     ethr =  2.38E-08,  avg # of iterations =  1.3

     negative rho (up, down):  2.517E-06 0.000E+00


     -----------------------------------------------
     Non-local corr. energy    =       0.10655227 Ry
     -----------------------------------------------


     total cpu time spent up to now is       38.2 secs

     total energy              =     -26.84637167 Ry
     estimated scf accuracy    <       0.00000194 Ry

     iteration # 14     ecut=   100.00 Ry     beta= 0.70
     Davidson diagonalization with overlap

---- Real-time Memory Report at c_bands before calling an iterative solver
             0 MiB given to the printing process from OS
             0 MiB allocation reported by mallinfo(arena+hblkhd)
             0 MiB available memory on the node where the printing process lives
------------------
     ethr =  2.38E-08,  avg # of iterations =  1.0

     negative rho (up, down):  4.644E-08 0.000E+00


     -----------------------------------------------
     Non-local corr. energy    =       0.10654938 Ry
     -----------------------------------------------


     total cpu time spent up to now is       38.9 secs

     total energy              =     -26.84637183 Ry
     estimated scf accuracy    <       0.00000175 Ry

     iteration # 15     ecut=   100.00 Ry     beta= 0.70
     Davidson diagonalization with overlap

---- Real-time Memory Report at c_bands before calling an iterative solver
             0 MiB given to the printing process from OS
             0 MiB allocation reported by mallinfo(arena+hblkhd)
             0 MiB available memory on the node where the printing process lives
------------------
     ethr =  2.19E-08,  avg # of iterations =  2.5


     -----------------------------------------------
     Non-local corr. energy    =       0.10654780 Ry
     -----------------------------------------------


     total cpu time spent up to now is       39.6 secs

     total energy              =     -26.84637196 Ry
     estimated scf accuracy    <       0.00000165 Ry

     iteration # 16     ecut=   100.00 Ry     beta= 0.70
     Davidson diagonalization with overlap

---- Real-time Memory Report at c_bands before calling an iterative solver
             0 MiB given to the printing process from OS
             0 MiB allocation reported by mallinfo(arena+hblkhd)
             0 MiB available memory on the node where the printing process lives
------------------
     ethr =  2.07E-08,  avg # of iterations =  1.1


     -----------------------------------------------
     Non-local corr. energy    =       0.10654667 Ry
     -----------------------------------------------


     total cpu time spent up to now is       40.3 secs

     total energy              =     -26.84637187 Ry
     estimated scf accuracy    <       0.00000143 Ry

     iteration # 17     ecut=   100.00 Ry     beta= 0.70
     Davidson diagonalization with overlap

---- Real-time Memory Report at c_bands before calling an iterative solver
             0 MiB given to the printing process from OS
             0 MiB allocation reported by mallinfo(arena+hblkhd)
             0 MiB available memory on the node where the printing process lives
------------------
     ethr =  1.79E-08,  avg # of iterations =  1.0


     -----------------------------------------------
     Non-local corr. energy    =       0.10654655 Ry
     -----------------------------------------------


     total cpu time spent up to now is       41.0 secs

     total energy              =     -26.84637169 Ry
     estimated scf accuracy    <       0.00000103 Ry

     iteration # 18     ecut=   100.00 Ry     beta= 0.70
     Davidson diagonalization with overlap

---- Real-time Memory Report at c_bands before calling an iterative solver
             0 MiB given to the printing process from OS
             0 MiB allocation reported by mallinfo(arena+hblkhd)
             0 MiB available memory on the node where the printing process lives
------------------
     ethr =  1.29E-08,  avg # of iterations =  3.7


     -----------------------------------------------
     Non-local corr. energy    =       0.10655232 Ry
     -----------------------------------------------


     total cpu time spent up to now is       41.8 secs

     End of self-consistent calculation

          k = 0.0000 0.0000 0.0000 (  8807 PWs)   bands (ev):

   -21.2940  -8.8948  -4.8241  -4.8241   0.8642   1.9715   2.7466   4.5713

     occupation numbers 
     1.0000   1.0000   1.0000   1.0000   0.0000   0.0000   0.0000   0.0000

          k = 0.0000 0.0714 0.0000 (  8797 PWs)   bands (ev):

   -21.2173  -8.7907  -5.1458  -4.9769   0.9961   2.0911   2.8749   4.6863

     occupation numbers 
     1.0000   1.0000   1.0000   1.0000   0.0000   0.0000   0.0000   0.0000

          k = 0.0000 0.1428 0.0000 (  8769 PWs)   bands (ev):

   -20.9894  -8.4811  -6.0162  -5.3822   1.3818   2.4464   3.2575   5.0225

     occupation numbers 
     1.0000   1.0000   1.0000   1.0000   0.0000   0.0000   0.0000   0.0000

          k = 0.0000 0.2142 0.0000 (  8765 PWs)   bands (ev):

   -20.6177  -7.9743  -7.2346  -5.9225   2.0069   3.0211   3.8909   5.5230

     occupation numbers 
     1.0000   1.0000   1.0000   1.0000   0.0000   0.0000   0.0000   0.0000

          k = 0.0000 0.2856 0.0000 (  8741 PWs)   bands (ev):

   -20.1178  -8.6080  -7.2881  -6.4839   2.8621   3.7328   4.7712   5.7965

     occupation numbers 
     1.0000   1.0000   1.0000   1.0000   0.0000   0.0000   0.0000   0.0000

          k = 0.0000 0.3570 0.0000 (  8773 PWs)   bands (ev):

   -19.5206  -9.9810  -6.9840  -6.4579   3.9296   3.9337   5.6934   5.8866

     occupation numbers 
     1.0000   1.0000   1.0000   1.0000   0.0000   0.0000   0.0000   0.0000

          k = 0.0000 0.4284 0.0000 (  8719 PWs)   bands (ev):

   -18.8896 -11.2114  -7.3706  -5.5593   2.9191   5.1709   6.6956   7.0939

     occupation numbers 
     1.0000   1.0000   1.0000   1.0000   0.0000   0.0000   0.0000   0.0000

          k = 0.0000 0.4998 0.0000 (  8704 PWs)   bands (ev):

   -18.3551 -12.1218  -7.6131  -4.7656   1.8626   6.2914   7.7442   8.1691

     occupation numbers 
     1.0000   1.0000   1.0000   1.0000   0.0000   0.0000   0.0000   0.0000

          k =-0.0000-0.5712 0.0000 (  8720 PWs)   bands (ev):

   -18.1315 -12.4732  -7.6956  -4.4177   1.4105   6.6432   8.8263   9.3393

     occupation numbers 
     1.0000   1.0000   1.0000   1.0000   0.0000   0.0000   0.0000   0.0000

          k = 0.0618 0.1071 0.0000 (  8789 PWs)   bands (ev):

   -21.0650  -8.5838  -5.7173  -5.2805   1.2549   2.3286   3.1304   4.9123

     occupation numbers 
     1.0000   1.0000   1.0000   1.0000   0.0000   0.0000   0.0000   0.0000

          k = 0.0618 0.1785 0.0000 (  8741 PWs)   bands (ev):

   -20.7649  -8.1754  -6.7126  -5.8024   1.7611   2.7949   3.6389   5.3371

     occupation numbers 
     1.0000   1.0000   1.0000   1.0000   0.0000   0.0000   0.0000   0.0000

          k = 0.0618 0.2499 0.0000 (  8749 PWs)   bands (ev):

   -20.3283  -7.9678  -7.5780  -6.3943   2.5037   3.4521   4.3972   5.7884

     occupation numbers 
     1.0000   1.0000   1.0000   1.0000   0.0000   0.0000   0.0000   0.0000

          k = 0.0618 0.3213 0.0000 (  8748 PWs)   bands (ev):

   -19.7771  -9.3162  -6.9515  -6.8167   3.4736   4.0363   5.4003   5.6564

     occupation numbers 
     1.0000   1.0000   1.0000   1.0000   0.0000   0.0000   0.0000   0.0000

          k = 0.0618 0.3927 0.0000 (  8733 PWs)   bands (ev):

   -19.1556 -10.6087  -7.4100  -5.9428   3.4778   4.6496   6.1701   6.6252

     occupation numbers 
     1.0000   1.0000   1.0000   1.0000   0.0000   0.0000   0.0000   0.0000

          k = 0.0618 0.4641 0.0000 (  8718 PWs)   bands (ev):

   -18.5551 -11.6876  -7.7324  -5.0703   2.3491   5.9398   7.4752   7.6703

     occupation numbers 
     1.0000   1.0000   1.0000   1.0000   0.0000   0.0000   0.0000   0.0000

          k = 0.0618 0.5355 0.0000 (  8736 PWs)   bands (ev):

   -18.1510 -12.3395  -7.8982  -4.4531   1.5443   6.8413   8.4148   9.0331

     occupation numbers 
     1.0000   1.0000   1.0000   1.0000   0.0000   0.0000   0.0000   0.0000

          k = 0.1237 0.2142 0.0000 (  8751 PWs)   bands (ev):

   -20.3994  -7.6757  -7.6575  -6.4635   2.3865   3.3499   4.2732   5.7493

     occupation numbers 
     1.0000   1.0000   1.0000   1.0000   0.0000   0.0000   0.0000   0.0000

          k = 0.1237 0.2856 0.0000 (  8767 PWs)   bands (ev):

   -19.9089  -8.7892  -7.1512  -7.0002   3.2491   3.9764   5.1575   5.7643

     occupation numbers 
     1.0000   1.0000   1.0000   1.0000   0.0000   0.0000   0.0000   0.0000

          k = 0.1237 0.3570 0.0000 (  8742 PWs)   bands (ev):

   -19.3250  -9.9975  -7.7329  -6.1852   3.8725   4.3378   5.9143   6.2863

     occupation numbers 
     1.0000   1.0000   1.0000   1.0000   0.0000   0.0000   0.0000   0.0000

          k = 0.1237 0.4284 0.0000 (  8736 PWs)   bands (ev):

   -18.7117 -11.1229  -8.1631  -5.3066   2.8612   5.6263   7.0067   7.6299

     occupation numbers 
     1.0000   1.0000   1.0000   1.0000   0.0000   0.0000   0.0000   0.0000

          k = 0.1237 0.4998 0.0000 (  8717 PWs)   bands (ev):

   -18.1966 -11.9696  -8.4260  -4.5349   1.8812   6.9918   8.4374   8.5930

     occupation numbers 
     1.0000   1.0000   1.0000   1.0000   0.0000   0.0000   0.0000   0.0000

          k = 0.1237 0.5712 0.0000 (  8744 PWs)   bands (ev):

   -17.9829 -12.2975  -8.5143  -4.1986   1.4620   7.7066   9.1619   9.6252

     occupation numbers 
     1.0000   1.0000   1.0000   1.0000   0.0000   0.0000   0.0000   0.0000

          k = 0.1855 0.3213 0.0000 (  8743 PWs)   bands (ev):

   -19.3831  -9.6809  -7.9657  -6.2679   4.0057   4.2328   5.8555   6.1685

     occupation numbers 
     1.0000   1.0000   1.0000   1.0000   0.0000   0.0000   0.0000   0.0000

          k = 0.1855 0.3927 0.0000 (  8746 PWs)   bands (ev):

   -18.7969 -10.6206  -8.6306  -5.4342   3.2024   5.4403   6.7742   7.4239

     occupation numbers 
     1.0000   1.0000   1.0000   1.0000   0.0000   0.0000   0.0000   0.0000

          k = 0.1855 0.4641 0.0000 (  8712 PWs)   bands (ev):

   -18.2404 -11.4747  -9.0683  -4.6122   2.2444   6.8391   8.0424   8.8906

     occupation numbers 
     1.0000   1.0000   1.0000   1.0000   0.0000   0.0000   0.0000   0.0000

          k = 0.1855 0.5355 0.0000 (  8706 PWs)   bands (ev):

   -17.8740 -12.0108  -9.2818  -4.0397   1.5749   8.2649   9.2359   9.6389

     occupation numbers 
     1.0000   1.0000   1.0000   1.0000   0.0000   0.0000   0.0000   0.0000

          k = 0.2473 0.4284 0.0000 (  8733 PWs)   bands (ev):

   -18.2581 -11.1801  -9.4213  -4.6429   2.4052   6.7579   7.9009   8.8031

     occupation numbers 
     1.0000   1.0000   1.0000   1.0000   0.0000   0.0000   0.0000   0.0000

          k = 0.2473 0.4998 0.0000 (  8707 PWs)   bands (ev):

   -17.8239 -11.6283  -9.9315  -3.9706   1.7205   8.2340   8.8638  10.3311

     occupation numbers 
     1.0000   1.0000   1.0000   1.0000   0.0000   0.0000   0.0000   0.0000

          k = 0.2473 0.5712 0.0000 (  8702 PWs)   bands (ev):

   -17.6505 -11.8127 -10.1011  -3.6870   1.4317   9.1095   9.3940  10.2116

     occupation numbers 
     1.0000   1.0000   1.0000   1.0000   0.0000   0.0000   0.0000   0.0000

          k = 0.3091 0.5355 0.0000 (  8676 PWs)   bands (ev):

   -17.5710 -11.6017 -10.5327  -3.5593   1.3972   8.9045   9.6002  10.8927

     occupation numbers 
     1.0000   1.0000   1.0000   1.0000   0.0000   0.0000   0.0000   0.0000

     the Fermi energy is    -1.0072 ev

!    total energy              =     -26.84637133 Ry
     estimated scf accuracy    <       0.00000054 Ry
     smearing contrib. (-TS)   =       0.00000000 Ry
     internal energy E=F+TS    =     -26.84637133 Ry

     The total energy is F=E-TS. E is the sum of the following terms:
     one-electron contribution =    -154.99303191 Ry
     hartree contribution      =      79.28636502 Ry
     xc contribution           =      -8.73408182 Ry
     ewald contribution        =      57.59437737 Ry

     convergence has been achieved in  18 iterations


     -----------------------------------------------
     Non-local corr. energy    =       0.10655232 Ry
     -----------------------------------------------


     Forces acting on atoms (cartesian axes, Ry/au):

     atom    1 type  2   force =    -0.00000000   -0.00000000    0.00000000
     atom    2 type  1   force =     0.00000000    0.00000000    0.00000000
     The non-local contrib.  to forces
     atom    1 type  2   force =     0.00000000    0.00000000    0.00000000
     atom    2 type  1   force =     0.00000000    0.00000000    0.00000000
     The ionic contribution  to forces
     atom    1 type  2   force =    -0.00000001    0.00000000   -0.00000000
     atom    2 type  1   force =     0.00000001   -0.00000000   -0.00000000
     The local contribution  to forces
     atom    1 type  2   force =     0.00000000   -0.00000000   -0.00000000
     atom    2 type  1   force =     0.00000003   -0.00000002   -0.00000000
     The core correction contribution to forces
     atom    1 type  2   force =    -0.00000000    0.00000000    0.00000000
     atom    2 type  1   force =    -0.00000000    0.00000000   -0.00000000
     The Hubbard contrib.    to forces
     atom    1 type  2   force =     0.00000000    0.00000000    0.00000000
     atom    2 type  1   force =     0.00000000    0.00000000    0.00000000
     The SCF correction term to forces
     atom    1 type  2   force =     0.00000000   -0.00000000   -0.00000000
     atom    2 type  1   force =    -0.00000000    0.00000000    0.00000000

     Total force =     0.000000     Total SCF correction =     0.000000


     Computing stress (Cartesian axis) and pressure



     -----------------------------------------------
     Non-local corr. energy    =       0.10655232 Ry
     -----------------------------------------------

          total   stress  (Ry/bohr**3)                   (kbar)     P=       22.49
   0.00022871   0.00000000  -0.00000000           33.64        0.00       -0.00
   0.00000000   0.00022871  -0.00000000            0.00       33.64       -0.00
  -0.00000000  -0.00000000   0.00000123           -0.00       -0.00        0.18

     kinetic stress (kbar)   3409.48      0.00      0.00
                                0.00   3409.48      0.00
                                0.00      0.00   3685.92

     local   stress (kbar) -45232.50      0.00      0.00
                                0.00 -45232.50     -0.00
                                0.00     -0.00  45781.93

     nonloc. stress (kbar)   -567.84      0.00     -0.00
                                0.00   -567.84      0.00
                               -0.00      0.00   -542.94

     hartree stress (kbar)  21489.78     -0.00     -0.00
                               -0.00  21489.78      0.00
                               -0.00      0.00 -20918.70

     exc-cor stress (kbar)   -341.91     -0.00      0.00
                               -0.00   -341.91      0.00
                                0.00      0.00   -376.87

     corecor stress (kbar)   -379.02      0.00      0.00
                                0.00   -379.02     -0.00
                                0.00     -0.00   -370.19

     ewald   stress (kbar)  21652.85     -0.00     -0.00
                               -0.00  21652.85     -0.00
                               -0.00     -0.00 -27280.47

     hubbard stress (kbar)      0.00      0.00      0.00
                                0.00      0.00      0.00
                                0.00      0.00      0.00

     DFT-D   stress (kbar)      0.00      0.00      0.00
                                0.00      0.00      0.00
                                0.00      0.00      0.00

     XDM     stress (kbar)      0.00      0.00      0.00
                                0.00      0.00      0.00
                                0.00      0.00      0.00

     dft-nl  stress (kbar)      2.80      0.00      0.00
                                0.00      2.80     -0.00
                                0.00     -0.00     21.49

     TS-vdW  stress (kbar)      0.00      0.00      0.00
                                0.00      0.00      0.00
                                0.00      0.00      0.00

     MDB     stress (kbar)      0.00      0.00      0.00
                                0.00      0.00      0.00
                                0.00      0.00      0.00

     3D-RISM stress (kbar)      0.00      0.00      0.00
                                0.00      0.00      0.00
                                0.00      0.00      0.00

     Energy error            =      3.7E-03 Ry
     Gradient error          =      2.7E-25 Ry/Bohr
     Cell gradient error     =      3.4E+01 kbar

     number of scf cycles    =   2
     number of bfgs steps    =   1

     enthalpy           old  =     -26.8426745584 Ry
     enthalpy           new  =     -26.8463713299 Ry

     CASE: enthalpy          _new < enthalpy          _old

     new trust radius        =       0.0542308052 bohr
     new conv_thr            =       0.0000000100 Ry

     new unit-cell volume =    541.27129 a.u.^3 (    80.20813 Ang^3 )
     density =      0.51359 g/cm^3

CELL_PARAMETERS (alat=  4.63500000)
   1.022757359  -0.000000000   0.000000000
  -0.511378680   0.885733855  -0.000000000
  -0.000000000  -0.000000000   6.000534263

ATOMIC_POSITIONS (crystal)
B            -0.0000000000       -0.0000000000        0.0000000000
N             0.3333333330        0.6666666670       -0.0000000000



     Writing config-only to output data dir ./tmp/hBN.save/
     NEW-OLD atomic charge density approx. for the potential

     negative rho (up, down):  1.663E-06 0.000E+00


     -----------------------------------------------
     Non-local corr. energy    =       0.10876517 Ry
     -----------------------------------------------

     extrapolated charge    8.18590, renormalised to    8.00000

     total cpu time spent up to now is       45.1 secs

     Self-consistent Calculation

     iteration #  1     ecut=   100.00 Ry     beta= 0.70
     Davidson diagonalization with overlap

---- Real-time Memory Report at c_bands before calling an iterative solver
             0 MiB given to the printing process from OS
             0 MiB allocation reported by mallinfo(arena+hblkhd)
             0 MiB available memory on the node where the printing process lives
------------------
     c_bands:  1 eigenvalues not converged
     c_bands:  1 eigenvalues not converged
     c_bands:  1 eigenvalues not converged
     c_bands:  1 eigenvalues not converged
     ethr =  1.00E-06,  avg # of iterations = 12.3


     -----------------------------------------------
     Non-local corr. energy    =       0.10124903 Ry
     -----------------------------------------------


     total cpu time spent up to now is       47.4 secs

     total energy              =     -25.96459810 Ry
     estimated scf accuracy    <       0.79004000 Ry

     iteration #  2     ecut=   100.00 Ry     beta= 0.70
     Davidson diagonalization with overlap

---- Real-time Memory Report at c_bands before calling an iterative solver
             0 MiB given to the printing process from OS
             0 MiB allocation reported by mallinfo(arena+hblkhd)
             0 MiB available memory on the node where the printing process lives
------------------
     ethr =  9.88E-03,  avg # of iterations =  5.4


     -----------------------------------------------
     Non-local corr. energy    =       0.10660983 Ry
     -----------------------------------------------


     total cpu time spent up to now is       48.6 secs

     total energy              =     -26.92315536 Ry
     estimated scf accuracy    <       0.72602877 Ry

     iteration #  3     ecut=   100.00 Ry     beta= 0.70
     Davidson diagonalization with overlap

---- Real-time Memory Report at c_bands before calling an iterative solver
             0 MiB given to the printing process from OS
             0 MiB allocation reported by mallinfo(arena+hblkhd)
             0 MiB available memory on the node where the printing process lives
------------------
     ethr =  9.08E-03,  avg # of iterations =  1.1


     -----------------------------------------------
     Non-local corr. energy    =       0.10700262 Ry
     -----------------------------------------------


     total cpu time spent up to now is       49.3 secs

     total energy              =     -26.90931766 Ry
     estimated scf accuracy    <       0.15568168 Ry

     iteration #  4     ecut=   100.00 Ry     beta= 0.70
     Davidson diagonalization with overlap

---- Real-time Memory Report at c_bands before calling an iterative solver
             0 MiB given to the printing process from OS
             0 MiB allocation reported by mallinfo(arena+hblkhd)
             0 MiB available memory on the node where the printing process lives
------------------
     ethr =  1.95E-03,  avg # of iterations =  3.0


     -----------------------------------------------
     Non-local corr. energy    =       0.10745104 Ry
     -----------------------------------------------


     total cpu time spent up to now is       50.1 secs

     total energy              =     -26.87432288 Ry
     estimated scf accuracy    <       0.08686670 Ry

     iteration #  5     ecut=   100.00 Ry     beta= 0.70
     Davidson diagonalization with overlap

---- Real-time Memory Report at c_bands before calling an iterative solver
             0 MiB given to the printing process from OS
             0 MiB allocation reported by mallinfo(arena+hblkhd)
             0 MiB available memory on the node where the printing process lives
------------------
     ethr =  1.09E-03,  avg # of iterations =  3.7


     -----------------------------------------------
     Non-local corr. energy    =       0.10715972 Ry
     -----------------------------------------------


     total cpu time spent up to now is       51.0 secs

     total energy              =     -26.86979607 Ry
     estimated scf accuracy    <       0.03712555 Ry

     iteration #  6     ecut=   100.00 Ry     beta= 0.70
     Davidson diagonalization with overlap

---- Real-time Memory Report at c_bands before calling an iterative solver
             0 MiB given to the printing process from OS
             0 MiB allocation reported by mallinfo(arena+hblkhd)
             0 MiB available memory on the node where the printing process lives
------------------
     ethr =  4.64E-04,  avg # of iterations =  2.4


     -----------------------------------------------
     Non-local corr. energy    =       0.10753125 Ry
     -----------------------------------------------


     total cpu time spent up to now is       51.8 secs

     total energy              =     -26.85014646 Ry
     estimated scf accuracy    <       0.02929023 Ry

     iteration #  7     ecut=   100.00 Ry     beta= 0.70
     Davidson diagonalization with overlap

---- Real-time Memory Report at c_bands before calling an iterative solver
             0 MiB given to the printing process from OS
             0 MiB allocation reported by mallinfo(arena+hblkhd)
             0 MiB available memory on the node where the printing process lives
------------------
     ethr =  3.66E-04,  avg # of iterations =  7.8


     -----------------------------------------------
     Non-local corr. energy    =       0.10750322 Ry
     -----------------------------------------------


     total cpu time spent up to now is       53.2 secs

     total energy              =     -26.84997574 Ry
     estimated scf accuracy    <       0.00450869 Ry

     iteration #  8     ecut=   100.00 Ry     beta= 0.70
     Davidson diagonalization with overlap

---- Real-time Memory Report at c_bands before calling an iterative solver
             0 MiB given to the printing process from OS
             0 MiB allocation reported by mallinfo(arena+hblkhd)
             0 MiB available memory on the node where the printing process lives
------------------
     c_bands:  1 eigenvalues not converged
     ethr =  5.64E-05,  avg # of iterations = 10.1


     -----------------------------------------------
     Non-local corr. energy    =       0.10714207 Ry
     -----------------------------------------------


     total cpu time spent up to now is       54.8 secs

     total energy              =     -26.85030243 Ry
     estimated scf accuracy    <       0.00644185 Ry

     iteration #  9     ecut=   100.00 Ry     beta= 0.70
     Davidson diagonalization with overlap

---- Real-time Memory Report at c_bands before calling an iterative solver
             0 MiB given to the printing process from OS
             0 MiB allocation reported by mallinfo(arena+hblkhd)
             0 MiB available memory on the node where the printing process lives
------------------
     ethr =  5.64E-05,  avg # of iterations =  6.3


     -----------------------------------------------
     Non-local corr. energy    =       0.10711142 Ry
     -----------------------------------------------


     total cpu time spent up to now is       56.1 secs

     total energy              =     -26.84742176 Ry
     estimated scf accuracy    <       0.00237755 Ry

     iteration # 10     ecut=   100.00 Ry     beta= 0.70
     Davidson diagonalization with overlap

---- Real-time Memory Report at c_bands before calling an iterative solver
             0 MiB given to the printing process from OS
             0 MiB allocation reported by mallinfo(arena+hblkhd)
             0 MiB available memory on the node where the printing process lives
------------------
     ethr =  2.97E-05,  avg # of iterations = 10.8

     negative rho (up, down):  1.412E-04 0.000E+00


     -----------------------------------------------
     Non-local corr. energy    =       0.10704497 Ry
     -----------------------------------------------


     total cpu time spent up to now is       57.5 secs

     total energy              =     -26.84784622 Ry
     estimated scf accuracy    <       0.00076367 Ry

     iteration # 11     ecut=   100.00 Ry     beta= 0.70
     Davidson diagonalization with overlap

---- Real-time Memory Report at c_bands before calling an iterative solver
             0 MiB given to the printing process from OS
             0 MiB allocation reported by mallinfo(arena+hblkhd)
             0 MiB available memory on the node where the printing process lives
------------------
     ethr =  9.55E-06,  avg # of iterations =  9.2

     negative rho (up, down):  1.036E-04 0.000E+00


     -----------------------------------------------
     Non-local corr. energy    =       0.10702105 Ry
     -----------------------------------------------


     total cpu time spent up to now is       58.9 secs

     total energy              =     -26.84791838 Ry
     estimated scf accuracy    <       0.00000349 Ry

     iteration # 12     ecut=   100.00 Ry     beta= 0.70
     Davidson diagonalization with overlap

---- Real-time Memory Report at c_bands before calling an iterative solver
             0 MiB given to the printing process from OS
             0 MiB allocation reported by mallinfo(arena+hblkhd)
             0 MiB available memory on the node where the printing process lives
------------------
     ethr =  4.36E-08,  avg # of iterations =  4.1

     negative rho (up, down):  7.698E-05 0.000E+00


     -----------------------------------------------
     Non-local corr. energy    =       0.10701891 Ry
     -----------------------------------------------


     total cpu time spent up to now is       59.9 secs

     total energy              =     -26.84792043 Ry
     estimated scf accuracy    <       0.00000036 Ry

     iteration # 13     ecut=   100.00 Ry     beta= 0.70
     Davidson diagonalization with overlap

---- Real-time Memory Report at c_bands before calling an iterative solver
             0 MiB given to the printing process from OS
             0 MiB allocation reported by mallinfo(arena+hblkhd)
             0 MiB available memory on the node where the printing process lives
------------------
     ethr =  4.50E-09,  avg # of iterations =  3.9

     negative rho (up, down):  4.865E-07 0.000E+00


     -----------------------------------------------
     Non-local corr. energy    =       0.10701298 Ry
     -----------------------------------------------


     total cpu time spent up to now is       60.8 secs

     total energy              =     -26.84791772 Ry
     estimated scf accuracy    <       0.00000024 Ry

     iteration # 14     ecut=   100.00 Ry     beta= 0.70
     Davidson diagonalization with overlap

---- Real-time Memory Report at c_bands before calling an iterative solver
             0 MiB given to the printing process from OS
             0 MiB allocation reported by mallinfo(arena+hblkhd)
             0 MiB available memory on the node where the printing process lives
------------------
     ethr =  3.00E-09,  avg # of iterations =  3.1

     negative rho (up, down):  4.783E-08 0.000E+00


     -----------------------------------------------
     Non-local corr. energy    =       0.10702100 Ry
     -----------------------------------------------


     total cpu time spent up to now is       61.8 secs

     total energy              =     -26.84792097 Ry
     estimated scf accuracy    <       0.00000105 Ry

     iteration # 15     ecut=   100.00 Ry     beta= 0.70
     Davidson diagonalization with overlap

---- Real-time Memory Report at c_bands before calling an iterative solver
             0 MiB given to the printing process from OS
             0 MiB allocation reported by mallinfo(arena+hblkhd)
             0 MiB available memory on the node where the printing process lives
------------------
     ethr =  3.00E-09,  avg # of iterations =  3.2


     -----------------------------------------------
     Non-local corr. energy    =       0.10702010 Ry
     -----------------------------------------------


     total cpu time spent up to now is       62.8 secs

[...]

     iteration #  4     ecut=   100.00 Ry     beta= 0.70
     Davidson diagonalization with overlap

---- Real-time Memory Report at c_bands before calling an iterative solver
             0 MiB given to the printing process from OS
             0 MiB allocation reported by mallinfo(arena+hblkhd)
             0 MiB available memory on the node where the printing process lives
------------------
     ethr =  2.17E-05,  avg # of iterations =  8.9


     -----------------------------------------------
     Non-local corr. energy    =       0.10702951 Ry
     -----------------------------------------------


     total cpu time spent up to now is       87.1 secs

     total energy              =     -26.84776015 Ry
     estimated scf accuracy    <       0.00097236 Ry

     iteration #  5     ecut=   100.00 Ry     beta= 0.70
     Davidson diagonalization with overlap

---- Real-time Memory Report at c_bands before calling an iterative solver
             0 MiB given to the printing process from OS
             0 MiB allocation reported by mallinfo(arena+hblkhd)
             0 MiB available memory on the node where the printing process lives
------------------
     ethr =  1.22E-05,  avg # of iterations =  1.8


     -----------------------------------------------
     Non-local corr. energy    =       0.10707632 Ry
     -----------------------------------------------


     total cpu time spent up to now is       87.8 secs

     total energy              =     -26.84793690 Ry
     estimated scf accuracy    <       0.00000958 Ry

     iteration #  6     ecut=   100.00 Ry     beta= 0.70
     Davidson diagonalization with overlap

---- Real-time Memory Report at c_bands before calling an iterative solver
             0 MiB given to the printing process from OS
             0 MiB allocation reported by mallinfo(arena+hblkhd)
             0 MiB available memory on the node where the printing process lives
------------------
     ethr =  1.20E-07,  avg # of iterations =  5.2


     -----------------------------------------------
     Non-local corr. energy    =       0.10707583 Ry
     -----------------------------------------------


     total cpu time spent up to now is       88.8 secs

     total energy              =     -26.84794391 Ry
     estimated scf accuracy    <       0.00001674 Ry

     iteration #  7     ecut=   100.00 Ry     beta= 0.70
     Davidson diagonalization with overlap

---- Real-time Memory Report at c_bands before calling an iterative solver
             0 MiB given to the printing process from OS
             0 MiB allocation reported by mallinfo(arena+hblkhd)
             0 MiB available memory on the node where the printing process lives
------------------
     ethr =  1.20E-07,  avg # of iterations =  2.0


     -----------------------------------------------
     Non-local corr. energy    =       0.10707828 Ry
     -----------------------------------------------


     total cpu time spent up to now is       89.5 secs

     total energy              =     -26.84794520 Ry
     estimated scf accuracy    <       0.00000096 Ry

     iteration #  8     ecut=   100.00 Ry     beta= 0.70
     Davidson diagonalization with overlap

---- Real-time Memory Report at c_bands before calling an iterative solver
             0 MiB given to the printing process from OS
             0 MiB allocation reported by mallinfo(arena+hblkhd)
             0 MiB available memory on the node where the printing process lives
------------------
     ethr =  1.21E-08,  avg # of iterations =  3.4


     -----------------------------------------------
     Non-local corr. energy    =       0.10707771 Ry
     -----------------------------------------------


     total cpu time spent up to now is       90.3 secs

     total energy              =     -26.84794567 Ry
     estimated scf accuracy    <       0.00000026 Ry

     iteration #  9     ecut=   100.00 Ry     beta= 0.70
     Davidson diagonalization with overlap

---- Real-time Memory Report at c_bands before calling an iterative solver
             0 MiB given to the printing process from OS
             0 MiB allocation reported by mallinfo(arena+hblkhd)
             0 MiB available memory on the node where the printing process lives
------------------
     ethr =  3.28E-09,  avg # of iterations =  1.6


     -----------------------------------------------
     Non-local corr. energy    =       0.10707833 Ry
     -----------------------------------------------


     total cpu time spent up to now is       90.9 secs

     End of self-consistent calculation

          k = 0.0000 0.0000 0.0000 (  9179 PWs)   bands (ev):

   -21.1527  -8.7834  -4.9603  -4.9603   0.8141   1.9293   2.8054   4.5523

     occupation numbers 
     1.0000   1.0000   1.0000   1.0000   0.0000   0.0000   0.0000   0.0000

          k = 0.0000 0.0705 0.0000 (  9197 PWs)   bands (ev):

   -21.0782  -8.6827  -5.2771  -5.1069   0.9438   2.0450   2.9307   4.6622

     occupation numbers 
     1.0000   1.0000   1.0000   1.0000   0.0000   0.0000   0.0000   0.0000

          k = 0.0000 0.1409 0.0000 (  9223 PWs)   bands (ev):

   -20.8569  -8.3832  -6.1320  -5.4961   1.3218   2.3885   3.3039   4.9805

     occupation numbers 
     1.0000   1.0000   1.0000   1.0000   0.0000   0.0000   0.0000   0.0000

          k = 0.0000 0.2114 0.0000 (  9209 PWs)   bands (ev):

   -20.4963  -7.8932  -7.3251  -6.0158   1.9316   2.9413   3.9203   5.4327

     occupation numbers 
     1.0000   1.0000   1.0000   1.0000   0.0000   0.0000   0.0000   0.0000

          k = 0.0000 0.2819 0.0000 (  9209 PWs)   bands (ev):

   -20.0122  -8.6659  -7.2302  -6.5567   2.7624   3.6067   4.7740   5.5691

     occupation numbers 
     1.0000   1.0000   1.0000   1.0000   0.0000   0.0000   0.0000   0.0000

          k = 0.0000 0.3523 0.0000 (  9191 PWs)   bands (ev):

   -19.4356 -10.0022  -7.0390  -6.4293   3.6851   3.7966   5.5189   5.8421

     occupation numbers 
     1.0000   1.0000   1.0000   1.0000   0.0000   0.0000   0.0000   0.0000

          k = 0.0000 0.4228 0.0000 (  9159 PWs)   bands (ev):

   -18.8293 -11.1947  -7.4123  -5.5646   2.6794   4.9658   6.5283   6.8063

     occupation numbers 
     1.0000   1.0000   1.0000   1.0000   0.0000   0.0000   0.0000   0.0000

          k = 0.0000 0.4933 0.0000 (  9143 PWs)   bands (ev):

   -18.3197 -12.0718  -7.6465  -4.8038   1.6672   5.9156   7.4194   7.9606

     occupation numbers 
     1.0000   1.0000   1.0000   1.0000   0.0000   0.0000   0.0000   0.0000

          k =-0.0000-0.5637-0.0000 (  9142 PWs)   bands (ev):

   -18.1082 -12.4083  -7.7262  -4.4719   1.2365   6.1638   8.5714   9.0650

     occupation numbers 
     1.0000   1.0000   1.0000   1.0000   0.0000   0.0000   0.0000   0.0000

          k = 0.0610 0.1057 0.0000 (  9215 PWs)   bands (ev):

   -20.9302  -8.4826  -5.8391  -5.3986   1.1977   2.2748   3.1800   4.8768

     occupation numbers 
     1.0000   1.0000   1.0000   1.0000   0.0000   0.0000   0.0000   0.0000

          k = 0.0610 0.1762 0.0000 (  9196 PWs)   bands (ev):

   -20.6391  -8.0876  -6.8152  -5.9011   1.6924   2.7244   3.6755   5.2706

     occupation numbers 
     1.0000   1.0000   1.0000   1.0000   0.0000   0.0000   0.0000   0.0000

          k = 0.0610 0.2466 0.0000 (  9209 PWs)   bands (ev):

   -20.2159  -8.0418  -7.5102  -6.4723   2.4157   3.3500   4.4128   5.6227

     occupation numbers 
     1.0000   1.0000   1.0000   1.0000   0.0000   0.0000   0.0000   0.0000

          k = 0.0610 0.3171 0.0000 (  9191 PWs)   bands (ev):

   -19.6829  -9.3554  -7.0108  -6.7752   3.3563   3.8449   5.3840   5.4319

     occupation numbers 
     1.0000   1.0000   1.0000   1.0000   0.0000   0.0000   0.0000   0.0000

          k = 0.0610 0.3876 0.0000 (  9179 PWs)   bands (ev):

   -19.0843 -10.6103  -7.4543  -5.9331   3.2190   4.4873   6.0109   6.5380

     occupation numbers 
     1.0000   1.0000   1.0000   1.0000   0.0000   0.0000   0.0000   0.0000

          k = 0.0610 0.4580 0.0000 (  9150 PWs)   bands (ev):

   -18.5098 -11.6523  -7.7664  -5.0951   2.1303   5.6832   7.2839   7.2868

     occupation numbers 
     1.0000   1.0000   1.0000   1.0000   0.0000   0.0000   0.0000   0.0000

          k = 0.0610 0.5285 0.0000 (  9143 PWs)   bands (ev):

   -18.1263 -12.2779  -7.9269  -4.5051   1.3620   6.3953   8.1297   8.7946

     occupation numbers 
     1.0000   1.0000   1.0000   1.0000   0.0000   0.0000   0.0000   0.0000

          k = 0.1220 0.2114 0.0000 (  9187 PWs)   bands (ev):

   -20.2848  -7.7400  -7.6046  -6.5404   2.3026   3.2543   4.2933   5.6076

     occupation numbers 
     1.0000   1.0000   1.0000   1.0000   0.0000   0.0000   0.0000   0.0000

          k = 0.1220 0.2819 0.0000 (  9210 PWs)   bands (ev):

   -19.8102  -8.8429  -7.2079  -6.9522   3.1422   3.8181   5.1532   5.5181

     occupation numbers 
     1.0000   1.0000   1.0000   1.0000   0.0000   0.0000   0.0000   0.0000

          k = 0.1220 0.3523 0.0000 (  9164 PWs)   bands (ev):

   -19.2472 -10.0155  -7.7740  -6.1663   3.6068   4.1981   5.7481   6.2464

     occupation numbers 
     1.0000   1.0000   1.0000   1.0000   0.0000   0.0000   0.0000   0.0000

          k = 0.1220 0.4228 0.0000 (  9150 PWs)   bands (ev):

   -18.6589 -11.1031  -8.1931  -5.3212   2.6155   5.4370   6.8299   7.5045

     occupation numbers 
     1.0000   1.0000   1.0000   1.0000   0.0000   0.0000   0.0000   0.0000

          k = 0.1220 0.4933 0.0000 (  9137 PWs)   bands (ev):

   -18.1688 -11.9164  -8.4492  -4.5819   1.6777   6.6937   8.1819   8.2171

     occupation numbers 
     1.0000   1.0000   1.0000   1.0000   0.0000   0.0000   0.0000   0.0000

          k = 0.1220 0.5637 0.0000 (  9124 PWs)   bands (ev):

   -17.9672 -12.2295  -8.5353  -4.2611   1.2787   7.2469   8.8937   9.3524

     occupation numbers 
     1.0000   1.0000   1.0000   1.0000   0.0000   0.0000   0.0000   0.0000

          k = 0.1831 0.3171 0.0000 (  9161 PWs)   bands (ev):

   -19.3030  -9.7078  -8.0024  -6.2459   3.7417   4.0996   5.6813   6.1369

     occupation numbers 
     1.0000   1.0000   1.0000   1.0000   0.0000   0.0000   0.0000   0.0000

          k = 0.1831 0.3876 0.0000 (  9158 PWs)   bands (ev):

   -18.7402 -10.6131  -8.6543  -5.4434   2.9376   5.2714   6.6019   7.3542

     occupation numbers 
     1.0000   1.0000   1.0000   1.0000   0.0000   0.0000   0.0000   0.0000

          k = 0.1831 0.4580 0.0000 (  9144 PWs)   bands (ev):

   -18.2098 -11.4309  -9.0848  -4.6546   2.0167   6.6177   7.8330   8.7294

     occupation numbers 
     1.0000   1.0000   1.0000   1.0000   0.0000   0.0000   0.0000   0.0000

          k = 0.1831 0.5285 0.0000 (  9127 PWs)   bands (ev):

   -17.8637 -11.9409  -9.2950  -4.1079   1.3782   7.9275   8.9802   9.2432

     occupation numbers 
     1.0000   1.0000   1.0000   1.0000   0.0000   0.0000   0.0000   0.0000

          k = 0.2441 0.4228 0.0000 (  9132 PWs)   bands (ev):

   -18.2263 -11.1400  -9.4350  -4.6836   2.1661   6.5499   7.6955   8.6911

     occupation numbers 
     1.0000   1.0000   1.0000   1.0000   0.0000   0.0000   0.0000   0.0000

          k = 0.2441 0.4933 0.0000 (  9120 PWs)   bands (ev):

   -17.8159 -11.5547  -9.9435  -4.0406   1.5095   7.9669   8.6257  10.0377

     occupation numbers 
     1.0000   1.0000   1.0000   1.0000   0.0000   0.0000   0.0000   0.0000

          k = 0.2441 0.5637 0.0000 (  9136 PWs)   bands (ev):

   -17.6532 -11.7239 -10.1136  -3.7704   1.2341   8.8685   9.0100   9.9121

     occupation numbers 
     1.0000   1.0000   1.0000   1.0000   0.0000   0.0000   0.0000   0.0000

          k = 0.3051 0.5285 0.0000 (  9146 PWs)   bands (ev):

   -17.5785 -11.4881 -10.5629  -3.6482   1.1976   8.6782   9.2426  10.5228

     occupation numbers 
     1.0000   1.0000   1.0000   1.0000   0.0000   0.0000   0.0000   0.0000

     the Fermi energy is    -1.1855 ev

!    total energy              =     -26.84794569 Ry
     estimated scf accuracy    <          9.6E-09 Ry
     smearing contrib. (-TS)   =       0.00000000 Ry
     internal energy E=F+TS    =     -26.84794569 Ry

     The total energy is F=E-TS. E is the sum of the following terms:
     one-electron contribution =    -151.02460642 Ry
     hartree contribution      =      77.26859570 Ry
     xc contribution           =      -8.68145183 Ry
     ewald contribution        =      55.58951686 Ry

     convergence has been achieved in   9 iterations


     -----------------------------------------------
     Non-local corr. energy    =       0.10707833 Ry
     -----------------------------------------------


     Forces acting on atoms (cartesian axes, Ry/au):

     atom    1 type  2   force =    -0.00000000   -0.00000000   -0.00000000
     atom    2 type  1   force =     0.00000000    0.00000000    0.00000000
     The non-local contrib.  to forces
     atom    1 type  2   force =    -0.00000000   -0.00000000   -0.00000000
     atom    2 type  1   force =     0.00000000   -0.00000000   -0.00000000
     The ionic contribution  to forces
     atom    1 type  2   force =    -0.00000001    0.00000000   -0.00000000
     atom    2 type  1   force =     0.00000001   -0.00000000    0.00000000
     The local contribution  to forces
     atom    1 type  2   force =    -0.00000000   -0.00000000   -0.00000000
     atom    2 type  1   force =     0.00000003   -0.00000002    0.00000000
     The core correction contribution to forces
     atom    1 type  2   force =    -0.00000000    0.00000000    0.00000000
     atom    2 type  1   force =    -0.00000000    0.00000000   -0.00000000
     The Hubbard contrib.    to forces
     atom    1 type  2   force =     0.00000000    0.00000000    0.00000000
     atom    2 type  1   force =     0.00000000    0.00000000    0.00000000
     The SCF correction term to forces
     atom    1 type  2   force =    -0.00000000   -0.00000000   -0.00000000
     atom    2 type  1   force =    -0.00000000   -0.00000000   -0.00000000

     Total force =     0.000000     Total SCF correction =     0.000000


     Computing stress (Cartesian axis) and pressure



     -----------------------------------------------
     Non-local corr. energy    =       0.10707833 Ry
     -----------------------------------------------

          total   stress  (Ry/bohr**3)                   (kbar)     P=        0.13
   0.00000143  -0.00000000  -0.00000000            0.21       -0.00       -0.00
  -0.00000000   0.00000143  -0.00000000           -0.00        0.21       -0.00
  -0.00000000   0.00000000  -0.00000011           -0.00        0.00       -0.02

     kinetic stress (kbar)   3277.77      0.00      0.00
                                0.00   3277.77      0.00
                                0.00      0.00   3566.63

     local   stress (kbar) -42891.25      0.00     -0.00
                                0.00 -42891.25      0.00
                               -0.00      0.00  43348.34

     nonloc. stress (kbar)   -540.75     -0.00     -0.00
                               -0.00   -540.75     -0.00
                               -0.00     -0.00   -522.46

     hartree stress (kbar)  20372.82     -0.00      0.00
                               -0.00  20372.82     -0.00
                                0.00     -0.00 -19804.15

     exc-cor stress (kbar)   -329.18     -0.00      0.00
                               -0.00   -329.18      0.00
                                0.00      0.00   -362.71

     corecor stress (kbar)   -368.10      0.00     -0.00
                                0.00   -368.10      0.00
                               -0.00      0.00   -360.12

     ewald   stress (kbar)  20476.14     -0.00     -0.00
                               -0.00  20476.14     -0.00
                               -0.00     -0.00 -25886.29

     hubbard stress (kbar)      0.00      0.00      0.00
                                0.00      0.00      0.00
                                0.00      0.00      0.00

     DFT-D   stress (kbar)      0.00      0.00      0.00
                                0.00      0.00      0.00
                                0.00      0.00      0.00

     XDM     stress (kbar)      0.00      0.00      0.00
                                0.00      0.00      0.00
                                0.00      0.00      0.00

     dft-nl  stress (kbar)      2.76      0.00      0.00
                                0.00      2.76      0.00
                                0.00      0.00     20.76

     TS-vdW  stress (kbar)      0.00      0.00      0.00
                                0.00      0.00      0.00
                                0.00      0.00      0.00

     MDB     stress (kbar)      0.00      0.00      0.00
                                0.00      0.00      0.00
                                0.00      0.00      0.00

     3D-RISM stress (kbar)      0.00      0.00      0.00
                                0.00      0.00      0.00
                                0.00      0.00      0.00


     Writing all to output data dir ./tmp/hBN.save/

     init_run     :     11.85s CPU     11.97s WALL (       2 calls)
     electrons    :     63.25s CPU     66.29s WALL (       5 calls)
     update_pot   :      3.02s CPU      3.07s WALL (       3 calls)
     forces       :      3.17s CPU      3.24s WALL (       5 calls)
     stress       :      7.93s CPU      8.60s WALL (       5 calls)

     Called by init_run:
     wfcinit      :      0.45s CPU      0.47s WALL (       2 calls)
     wfcinit:atom :      0.01s CPU      0.01s WALL (      60 calls)
     wfcinit:wfcr :      0.40s CPU      0.41s WALL (      60 calls)
     potinit      :      9.98s CPU     10.07s WALL (       2 calls)
     hinit0       :      1.25s CPU      1.26s WALL (       2 calls)

     Called by electrons:
     c_bands      :     51.32s CPU     53.46s WALL (      63 calls)
     sum_band     :      6.12s CPU      6.28s WALL (      63 calls)
     v_of_rho     :     15.27s CPU     15.94s WALL (      68 calls)
     v_h          :      0.06s CPU      0.06s WALL (      68 calls)
     v_xc         :     16.10s CPU     17.00s WALL (      78 calls)
     mix_rho      :      0.26s CPU      0.41s WALL (      63 calls)
     vdW_kernel   :      9.36s CPU      9.43s WALL (       1 calls)

     Called by c_bands:
     init_us_2    :      1.04s CPU      1.06s WALL (    4140 calls)
     init_us_2:cp :      1.03s CPU      1.04s WALL (    4140 calls)
     cegterg      :     49.75s CPU     51.82s WALL (    1890 calls)

     Called by sum_band:
     sum_band:wei :      0.00s CPU      0.00s WALL (      63 calls)
     sum_band:loo :      5.98s CPU      6.13s WALL (      63 calls)
     sum_band:buf :      0.08s CPU      0.08s WALL (    1890 calls)
     sum_band:ini :      0.46s CPU      0.47s WALL (    1890 calls)

     Called by *egterg:
     cdiaghg      :      1.18s CPU      1.20s WALL (   10465 calls)
     cegterg:over :      2.63s CPU      2.70s WALL (    8665 calls)
     cegterg:upda :      2.16s CPU      2.60s WALL (    8665 calls)
     cegterg:last :      2.50s CPU      2.49s WALL (    5316 calls)
     h_psi        :     39.69s CPU     40.92s WALL (   10615 calls)
     g_psi        :      0.29s CPU      0.40s WALL (    8665 calls)

     Called by h_psi:
     h_psi:calbec :      2.10s CPU      2.16s WALL (   10615 calls)
     vloc_psi     :     35.31s CPU     36.26s WALL (   10615 calls)
     add_vuspsi   :      1.98s CPU      2.13s WALL (   10615 calls)

     General routines
     calbec       :      2.55s CPU      2.60s WALL (   11365 calls)
     fft          :      3.34s CPU      3.41s WALL (    4923 calls)
     ffts         :      0.03s CPU      0.04s WALL (      63 calls)
     fftw         :     36.38s CPU     37.18s WALL (  115350 calls)

     Parallel routines

     PWSCF        :   1m29.35s CPU   1m33.36s WALL


   This run was terminated on:  12:28: 5   4Apr2024            

=------------------------------------------------------------------------------=
   JOB DONE.
=------------------------------------------------------------------------------=
