
     Program PWSCF v.7.2 starts on  3Apr2024 at 12:35:48 

     This program is part of the open-source Quantum ESPRESSO suite
     for quantum simulation of materials; please cite
         "P. Giannozzi et al., J. Phys.:Condens. Matter 21 395502 (2009);
         "P. Giannozzi et al., J. Phys.:Condens. Matter 29 465901 (2017);
         "P. Giannozzi et al., J. Chem. Phys. 152 154105 (2020);
          URL http://www.quantum-espresso.org", 
     in publications or presentations arising from this work. More details at
     http://www.quantum-espresso.org/quote

     Parallel version (MPI & OpenMP), running on       1 processor cores
     Number of MPI processes:                 1
     Threads/MPI process:                     1

     MPI processes distributed on     1 nodes
     0 MiB available memory on the printing compute node when the environment starts

     Waiting for input...
     Reading input from standard input

     Current dimensions of program PWSCF are:
     Max number of different atomic species (ntypx) = 10
     Max number of k-points (npk) =  40000
     Max angular momentum in pseudopotentials (lmaxx) =  4

     IMPORTANT: XC functional enforced from input :
     Exchange-correlation= VDW-DF2-B86R
                           (   1   4  26   0   2   0   0)
     Any further DFT definition will be discarded
     Please, verify this is what you really want


     Subspace diagonalization in iterative solution of the eigenvalue problem:
     a serial algorithm will be used


     G-vector sticks info
     --------------------
     sticks:   dense  smooth     PW     G-vecs:    dense   smooth      PW
     Sum         475     475    151                50025    50025    8409

     Using Slab Decomposition



     bravais-lattice index     =            4
     lattice parameter (alat)  =       4.6350  a.u.
     unit-cell volume          =     517.4056 (a.u.)^3
     number of atoms/cell      =            2
     number of atomic types    =            1
     number of electrons       =         8.00
     number of Kohn-Sham states=            8
     kinetic-energy cutoff     =      80.0000  Ry
     charge density cutoff     =     320.0000  Ry
     scf convergence threshold =      1.0E-06
     mixing beta               =       0.7000
     number of iterations used =            8  plain     mixing
     energy convergence thresh.=      1.0E-04
     force convergence thresh. =      1.0E-03
     press convergence thresh. =      5.0E-01
     Exchange-correlation= VDW-DF2-B86R
                           (   1   4  26   0   2   0   0)
     nstep                     =           50


     celldm(1)=   4.635000  celldm(2)=   0.000000  celldm(3)=   6.000000
     celldm(4)=   0.000000  celldm(5)=   0.000000  celldm(6)=   0.000000

     crystal axes: (cart. coord. in units of alat)
               a(1) = (   1.000000   0.000000   0.000000 )  
               a(2) = (  -0.500000   0.866025   0.000000 )  
               a(3) = (   0.000000   0.000000   6.000000 )  

     reciprocal axes: (cart. coord. in units 2 pi/alat)
               b(1) = (  1.000000  0.577350 -0.000000 )  
               b(2) = (  0.000000  1.154701  0.000000 )  
               b(3) = (  0.000000 -0.000000  0.166667 )  


     PseudoPot. # 1 for C  read from file:
     ../../../Pseudo/PBE/C.upf
     MD5 check sum: 34a24e64c0a39f27c6c36b90a16ac686
     Pseudo is Norm-conserving + core correction, Zval =  4.0
     Generated using ONCVPSP code by D. R. Hamann
     Using radial grid of 1248 points,  4 beta functions with: 
                l(1) =   0
                l(2) =   0
                l(3) =   1
                l(4) =   1

     atomic species   valence    mass     pseudopotential
        C              4.00    12.01100     C ( 1.00)

     24 Sym. Ops., with inversion, found (12 have fractional translation)


                                    s                        frac. trans.

      isym =  1     identity                                     

 cryst.   s( 1) = (     1          0          0      )
                  (     0          1          0      )
                  (     0          0          1      )

 cart.    s( 1) = (  1.0000000  0.0000000  0.0000000 )
                  (  0.0000000  1.0000000  0.0000000 )
                  (  0.0000000  0.0000000  1.0000000 )


      isym =  2     180 deg rotation - cart. axis [0,0,1]        

 cryst.   s( 2) = (    -1          0          0      )    f =( -0.3333333 )
                  (     0         -1          0      )       (  0.3333333 )
                  (     0          0          1      )       (  0.0000000 )

 cart.    s( 2) = ( -1.0000000  0.0000000  0.0000000 )    f =( -0.5000000 )
                  (  0.0000000 -1.0000000  0.0000000 )       (  0.2886751 )
                  (  0.0000000  0.0000000  1.0000000 )       (  0.0000000 )


      isym =  3     180 deg rotation - cart. axis [0,1,0]        

 cryst.   s( 3) = (    -1          0          0      )
                  (     1          1          0      )
                  (     0          0         -1      )

 cart.    s( 3) = ( -1.0000000  0.0000000  0.0000000 )
                  (  0.0000000  1.0000000  0.0000000 )
                  (  0.0000000  0.0000000 -1.0000000 )


      isym =  4     180 deg rotation - cart. axis [1,0,0]        

 cryst.   s( 4) = (     1          0          0      )    f =( -0.3333333 )
                  (    -1         -1          0      )       (  0.3333333 )
                  (     0          0         -1      )       (  0.0000000 )

 cart.    s( 4) = (  1.0000000  0.0000000  0.0000000 )    f =( -0.5000000 )
                  (  0.0000000 -1.0000000  0.0000000 )       (  0.2886751 )
                  (  0.0000000  0.0000000 -1.0000000 )       (  0.0000000 )


      isym =  5      60 deg rotation - cryst. axis [0,0,1]       

 cryst.   s( 5) = (     1          1          0      )    f =( -0.3333333 )
                  (    -1          0          0      )       (  0.3333333 )
                  (     0          0          1      )       (  0.0000000 )

 cart.    s( 5) = (  0.5000000 -0.8660254  0.0000000 )    f =( -0.5000000 )
                  (  0.8660254  0.5000000  0.0000000 )       (  0.2886751 )
                  (  0.0000000  0.0000000  1.0000000 )       (  0.0000000 )


      isym =  6      60 deg rotation - cryst. axis [0,0,-1]      

 cryst.   s( 6) = (     0         -1          0      )    f =( -0.3333333 )
                  (     1          1          0      )       (  0.3333333 )
                  (     0          0          1      )       (  0.0000000 )

 cart.    s( 6) = (  0.5000000  0.8660254  0.0000000 )    f =( -0.5000000 )
                  ( -0.8660254  0.5000000  0.0000000 )       (  0.2886751 )
                  (  0.0000000  0.0000000  1.0000000 )       (  0.0000000 )


      isym =  7     120 deg rotation - cryst. axis [0,0,1]       

 cryst.   s( 7) = (     0          1          0      )
                  (    -1         -1          0      )
                  (     0          0          1      )

 cart.    s( 7) = ( -0.5000000 -0.8660254  0.0000000 )
                  (  0.8660254 -0.5000000  0.0000000 )
                  (  0.0000000  0.0000000  1.0000000 )


      isym =  8     120 deg rotation - cryst. axis [0,0,-1]      

 cryst.   s( 8) = (    -1         -1          0      )
                  (     1          0          0      )
                  (     0          0          1      )

 cart.    s( 8) = ( -0.5000000  0.8660254  0.0000000 )
                  ( -0.8660254 -0.5000000  0.0000000 )
                  (  0.0000000  0.0000000  1.0000000 )


      isym =  9     180 deg rotation - cryst. axis [1,-1,0]      

 cryst.   s( 9) = (     0         -1          0      )
                  (    -1          0          0      )
                  (     0          0         -1      )

 cart.    s( 9) = (  0.5000000 -0.8660254  0.0000000 )
                  ( -0.8660254 -0.5000000  0.0000000 )
                  (  0.0000000  0.0000000 -1.0000000 )


      isym = 10     180 deg rotation - cryst. axis [2,1,0]       

 cryst.   s(10) = (     1          1          0      )
                  (     0         -1          0      )
                  (     0          0         -1      )

 cart.    s(10) = (  0.5000000  0.8660254  0.0000000 )
                  (  0.8660254 -0.5000000  0.0000000 )
                  (  0.0000000  0.0000000 -1.0000000 )


      isym = 11     180 deg rotation - cryst. axis [0,1,0]       

 cryst.   s(11) = (    -1         -1          0      )    f =( -0.3333333 )
                  (     0          1          0      )       (  0.3333333 )
                  (     0          0         -1      )       (  0.0000000 )

 cart.    s(11) = ( -0.5000000 -0.8660254  0.0000000 )    f =( -0.5000000 )
                  ( -0.8660254  0.5000000  0.0000000 )       (  0.2886751 )
                  (  0.0000000  0.0000000 -1.0000000 )       (  0.0000000 )


      isym = 12     180 deg rotation - cryst. axis [1,1,0]       

 cryst.   s(12) = (     0          1          0      )    f =( -0.3333333 )
                  (     1          0          0      )       (  0.3333333 )
                  (     0          0         -1      )       (  0.0000000 )

 cart.    s(12) = ( -0.5000000  0.8660254  0.0000000 )    f =( -0.5000000 )
                  (  0.8660254  0.5000000  0.0000000 )       (  0.2886751 )
                  (  0.0000000  0.0000000 -1.0000000 )       (  0.0000000 )


      isym = 13     inversion                                    

 cryst.   s(13) = (    -1          0          0      )    f =( -0.3333333 )
                  (     0         -1          0      )       (  0.3333333 )
                  (     0          0         -1      )       (  0.0000000 )

 cart.    s(13) = ( -1.0000000  0.0000000  0.0000000 )    f =( -0.5000000 )
                  (  0.0000000 -1.0000000  0.0000000 )       (  0.2886751 )
                  (  0.0000000  0.0000000 -1.0000000 )       (  0.0000000 )


      isym = 14     inv. 180 deg rotation - cart. axis [0,0,1]   

 cryst.   s(14) = (     1          0          0      )
                  (     0          1          0      )
                  (     0          0         -1      )

 cart.    s(14) = (  1.0000000  0.0000000  0.0000000 )
                  (  0.0000000  1.0000000  0.0000000 )
                  (  0.0000000  0.0000000 -1.0000000 )


      isym = 15     inv. 180 deg rotation - cart. axis [0,1,0]   

 cryst.   s(15) = (     1          0          0      )    f =( -0.3333333 )
                  (    -1         -1          0      )       (  0.3333333 )
                  (     0          0          1      )       (  0.0000000 )

 cart.    s(15) = (  1.0000000  0.0000000  0.0000000 )    f =( -0.5000000 )
                  (  0.0000000 -1.0000000  0.0000000 )       (  0.2886751 )
                  (  0.0000000  0.0000000  1.0000000 )       (  0.0000000 )


      isym = 16     inv. 180 deg rotation - cart. axis [1,0,0]   

 cryst.   s(16) = (    -1          0          0      )
                  (     1          1          0      )
                  (     0          0          1      )

 cart.    s(16) = ( -1.0000000  0.0000000  0.0000000 )
                  (  0.0000000  1.0000000  0.0000000 )
                  (  0.0000000  0.0000000  1.0000000 )


      isym = 17     inv.  60 deg rotation - cryst. axis [0,0,1]  

 cryst.   s(17) = (    -1         -1          0      )
                  (     1          0          0      )
                  (     0          0         -1      )

 cart.    s(17) = ( -0.5000000  0.8660254  0.0000000 )
                  ( -0.8660254 -0.5000000  0.0000000 )
                  (  0.0000000  0.0000000 -1.0000000 )


      isym = 18     inv.  60 deg rotation - cryst. axis [0,0,-1] 

 cryst.   s(18) = (     0          1          0      )
                  (    -1         -1          0      )
                  (     0          0         -1      )

 cart.    s(18) = ( -0.5000000 -0.8660254  0.0000000 )
                  (  0.8660254 -0.5000000  0.0000000 )
                  (  0.0000000  0.0000000 -1.0000000 )


      isym = 19     inv. 120 deg rotation - cryst. axis [0,0,1]  

 cryst.   s(19) = (     0         -1          0      )    f =( -0.3333333 )
                  (     1          1          0      )       (  0.3333333 )
                  (     0          0         -1      )       (  0.0000000 )

 cart.    s(19) = (  0.5000000  0.8660254  0.0000000 )    f =( -0.5000000 )
                  ( -0.8660254  0.5000000  0.0000000 )       (  0.2886751 )
                  (  0.0000000  0.0000000 -1.0000000 )       (  0.0000000 )


      isym = 20     inv. 120 deg rotation - cryst. axis [0,0,-1] 

 cryst.   s(20) = (     1          1          0      )    f =( -0.3333333 )
                  (    -1          0          0      )       (  0.3333333 )
                  (     0          0         -1      )       (  0.0000000 )

 cart.    s(20) = (  0.5000000 -0.8660254  0.0000000 )    f =( -0.5000000 )
                  (  0.8660254  0.5000000  0.0000000 )       (  0.2886751 )
                  (  0.0000000  0.0000000 -1.0000000 )       (  0.0000000 )


      isym = 21     inv. 180 deg rotation - cryst. axis [1,-1,0] 

 cryst.   s(21) = (     0          1          0      )    f =( -0.3333333 )
                  (     1          0          0      )       (  0.3333333 )
                  (     0          0          1      )       (  0.0000000 )

 cart.    s(21) = ( -0.5000000  0.8660254  0.0000000 )    f =( -0.5000000 )
                  (  0.8660254  0.5000000  0.0000000 )       (  0.2886751 )
                  (  0.0000000  0.0000000  1.0000000 )       (  0.0000000 )


      isym = 22     inv. 180 deg rotation - cryst. axis [2,1,0]  

 cryst.   s(22) = (    -1         -1          0      )    f =( -0.3333333 )
                  (     0          1          0      )       (  0.3333333 )
                  (     0          0          1      )       (  0.0000000 )

 cart.    s(22) = ( -0.5000000 -0.8660254  0.0000000 )    f =( -0.5000000 )
                  ( -0.8660254  0.5000000  0.0000000 )       (  0.2886751 )
                  (  0.0000000  0.0000000  1.0000000 )       (  0.0000000 )


      isym = 23     inv. 180 deg rotation - cryst. axis [0,1,0]  

 cryst.   s(23) = (     1          1          0      )
                  (     0         -1          0      )
                  (     0          0          1      )

 cart.    s(23) = (  0.5000000  0.8660254  0.0000000 )
                  (  0.8660254 -0.5000000  0.0000000 )
                  (  0.0000000  0.0000000  1.0000000 )


      isym = 24     inv. 180 deg rotation - cryst. axis [1,1,0]  

 cryst.   s(24) = (     0         -1          0      )
                  (    -1          0          0      )
                  (     0          0          1      )

 cart.    s(24) = (  0.5000000 -0.8660254  0.0000000 )
                  ( -0.8660254 -0.5000000  0.0000000 )
                  (  0.0000000  0.0000000  1.0000000 )


     point group D_6h(6/mmm)
     there are 12 classes
     the character table:

       E     2C6   2C3   C2    3C2'  3C2'' i     2S3   2S6   s_h   3s_d  3s_v 
A_1g   1.00  1.00  1.00  1.00  1.00  1.00  1.00  1.00  1.00  1.00  1.00  1.00
A_2g   1.00  1.00  1.00  1.00 -1.00 -1.00  1.00  1.00  1.00  1.00 -1.00 -1.00
B_1g   1.00 -1.00  1.00 -1.00  1.00 -1.00  1.00 -1.00  1.00 -1.00  1.00 -1.00
B_2g   1.00 -1.00  1.00 -1.00 -1.00  1.00  1.00 -1.00  1.00 -1.00 -1.00  1.00
E_1g   2.00  1.00 -1.00 -2.00  0.00  0.00  2.00  1.00 -1.00 -2.00  0.00  0.00
E_2g   2.00 -1.00 -1.00  2.00  0.00  0.00  2.00 -1.00 -1.00  2.00  0.00  0.00
A_1u   1.00  1.00  1.00  1.00  1.00  1.00 -1.00 -1.00 -1.00 -1.00 -1.00 -1.00
A_2u   1.00  1.00  1.00  1.00 -1.00 -1.00 -1.00 -1.00 -1.00 -1.00  1.00  1.00
B_1u   1.00 -1.00  1.00 -1.00  1.00 -1.00 -1.00  1.00 -1.00  1.00 -1.00  1.00
B_2u   1.00 -1.00  1.00 -1.00 -1.00  1.00 -1.00  1.00 -1.00  1.00  1.00 -1.00
E_1u   2.00  1.00 -1.00 -2.00  0.00  0.00 -2.00 -1.00  1.00  2.00  0.00  0.00
E_2u   2.00 -1.00 -1.00  2.00  0.00  0.00 -2.00  1.00  1.00 -2.00  0.00  0.00

     the symmetry operations in each class and the name of the first element:

     E        1
          identity                                               
     2C6      5    6
           60 deg rotation - cryst. axis [0,0,1]                 
     2C3      7    8
          120 deg rotation - cryst. axis [0,0,1]                 
     C2       2
          180 deg rotation - cart. axis [0,0,1]                  
     3C2'     4   12   11
          180 deg rotation - cart. axis [1,0,0]                  
     3C2''    3    9   10
          180 deg rotation - cart. axis [0,1,0]                  
     i       13
          inversion                                              
     2S3     17   18
          inv.  60 deg rotation - cryst. axis [0,0,1]            
     2S6     19   20
          inv. 120 deg rotation - cryst. axis [0,0,1]            
     s_h     14
          inv. 180 deg rotation - cart. axis [0,0,1]             
     3s_d    16   24   23
          inv. 180 deg rotation - cart. axis [1,0,0]             
     3s_v    15   21   22
          inv. 180 deg rotation - cart. axis [0,1,0]             

   Cartesian axes

     site n.     atom                  positions (alat units)
         1           C   tau(   1) = (   0.0000000   0.0000000   0.0000000  )
         2           C   tau(   2) = (  -0.0000000   0.5773503   0.0000000  )

   Crystallographic axes

     site n.     atom                  positions (cryst. coord.)
         1           C   tau(   1) = (  0.0000000  0.0000000  0.0000000  )
         2           C   tau(   2) = (  0.3333333  0.6666667  0.0000000  )

     number of k points=    19  Marzari-Vanderbilt smearing, width (Ry)=  0.0050
                       cart. coord. in units 2pi/alat
        k(    1) = (   0.0000000   0.0000000   0.0000000), wk =   0.0138889
        k(    2) = (   0.0000000   0.0962250   0.0000000), wk =   0.0833333
        k(    3) = (   0.0000000   0.1924501   0.0000000), wk =   0.0833333
        k(    4) = (   0.0000000   0.2886751   0.0000000), wk =   0.0833333
        k(    5) = (   0.0000000   0.3849002   0.0000000), wk =   0.0833333
        k(    6) = (   0.0000000   0.4811252   0.0000000), wk =   0.0833333
        k(    7) = (   0.0000000  -0.5773503   0.0000000), wk =   0.0416667
        k(    8) = (   0.0833333   0.1443376   0.0000000), wk =   0.0833333
        k(    9) = (   0.0833333   0.2405626   0.0000000), wk =   0.1666667
        k(   10) = (   0.0833333   0.3367877   0.0000000), wk =   0.1666667
        k(   11) = (   0.0833333   0.4330127   0.0000000), wk =   0.1666667
        k(   12) = (   0.0833333   0.5292377   0.0000000), wk =   0.1666667
        k(   13) = (   0.1666667   0.2886751   0.0000000), wk =   0.0833333
        k(   14) = (   0.1666667   0.3849002   0.0000000), wk =   0.1666667
        k(   15) = (   0.1666667   0.4811252   0.0000000), wk =   0.1666667
        k(   16) = (   0.1666667   0.5773503   0.0000000), wk =   0.0833333
        k(   17) = (   0.2500000   0.4330127   0.0000000), wk =   0.0833333
        k(   18) = (   0.2500000   0.5292377   0.0000000), wk =   0.1666667
        k(   19) = (   0.3333333   0.5773503   0.0000000), wk =   0.0277778

                       cryst. coord.
        k(    1) = (   0.0000000   0.0000000   0.0000000), wk =   0.0138889
        k(    2) = (   0.0000000   0.0833333   0.0000000), wk =   0.0833333
        k(    3) = (   0.0000000   0.1666667   0.0000000), wk =   0.0833333
        k(    4) = (   0.0000000   0.2500000   0.0000000), wk =   0.0833333
        k(    5) = (   0.0000000   0.3333333   0.0000000), wk =   0.0833333
        k(    6) = (   0.0000000   0.4166667   0.0000000), wk =   0.0833333
        k(    7) = (   0.0000000  -0.5000000   0.0000000), wk =   0.0416667
        k(    8) = (   0.0833333   0.0833333   0.0000000), wk =   0.0833333
        k(    9) = (   0.0833333   0.1666667   0.0000000), wk =   0.1666667
        k(   10) = (   0.0833333   0.2500000   0.0000000), wk =   0.1666667
        k(   11) = (   0.0833333   0.3333333   0.0000000), wk =   0.1666667
        k(   12) = (   0.0833333   0.4166667   0.0000000), wk =   0.1666667
        k(   13) = (   0.1666667   0.1666667   0.0000000), wk =   0.0833333
        k(   14) = (   0.1666667   0.2500000   0.0000000), wk =   0.1666667
        k(   15) = (   0.1666667   0.3333333   0.0000000), wk =   0.1666667
        k(   16) = (   0.1666667   0.4166667   0.0000000), wk =   0.0833333
        k(   17) = (   0.2500000   0.2500000   0.0000000), wk =   0.0833333
        k(   18) = (   0.2500000   0.3333333   0.0000000), wk =   0.1666667
        k(   19) = (   0.3333333   0.3333333   0.0000000), wk =   0.0277778

     Dense  grid:    50025 G-vectors     FFT dimensions: (  27,  27, 160)

     Dynamical RAM for                 wfc:       0.76 MB

     Dynamical RAM for     wfc (w. buffer):      15.26 MB

     Dynamical RAM for           str. fact:       0.76 MB

     Dynamical RAM for           local pot:       0.00 MB

     Dynamical RAM for          nlocal pot:       1.53 MB

     Dynamical RAM for                qrad:       0.82 MB

     Dynamical RAM for          rho,v,vnew:       4.96 MB

     Dynamical RAM for               rhoin:       1.65 MB

     Dynamical RAM for            rho*nmix:      12.21 MB

     Dynamical RAM for           G-vectors:       3.24 MB

     Dynamical RAM for          h,s,v(r/c):       0.01 MB

     Dynamical RAM for          <psi|beta>:       0.00 MB

     Dynamical RAM for                 psi:       1.53 MB

     Dynamical RAM for                hpsi:       1.53 MB

     Dynamical RAM for      wfcinit/wfcrot:       1.53 MB

     Estimated static dynamical RAM per process >      34.21 MB

     Estimated max dynamical RAM per process >      49.49 MB

     Initial potential from superposition of free atoms

     starting charge       7.9999, renormalised to       8.0000

     negative rho (up, down):  1.712E-05 0.000E+00


     %%%%%%%%%%%%%%%%%%%%%%%%%%%%%%%%%%%%%%%%%%%%%%%%%%%%%%%%%%%%%%%%%%%%%%%%
     %                                                                      %
     % You are using vdW-DF, which was implemented by the Thonhauser group. %
     % Please cite the following two papers that made this development      %
     % possible and the two reviews that describe the various versions:     %
     %                                                                      %
     %   T. Thonhauser et al., PRL 115, 136402 (2015).                      %
     %   T. Thonhauser et al., PRB 76, 125112 (2007).                       %
     %   K. Berland et al., Rep. Prog. Phys. 78, 066501 (2015).             %
     %   D.C. Langreth et al., J. Phys.: Condens. Matter 21, 084203 (2009). %
     %                                                                      %
     % If you are calculating stress with vdW-DF, please also cite:         %
     %                                                                      %
     %   R. Sabatini et al., J. Phys.: Condens. Matter 24, 424209 (2012).   %
     %                                                                      %
     %%%%%%%%%%%%%%%%%%%%%%%%%%%%%%%%%%%%%%%%%%%%%%%%%%%%%%%%%%%%%%%%%%%%%%%%

     %%%%%%%%%%%%%%%%%%%%%%%%%%%%%%%%%%%%%%%%%%%%%%%%%%%%%%%%%%%%%%%%%%%%%%%%
     %                                                                      %
     %  vdW-DF NEWS:                                                        %
     %                                                                      %
     %  * vdW-DF3 is now available. DOI: 10.1021/acs.jctc.0c00471           %
     %    use with input_dft = 'vdW-DF3-opt1' or 'vdW-DF3-opt2'             %
     %                                                                      %
     %  * Unscreened and range-separated hybrid vdW-DF-cx functionals       %
     %    DOI: 10.1063/1.4986522 and 10.1088/1361-648X/ac2ad2               %
     %    use with input_dft = 'vdW-DF-cx0'    and 'vdW-DF-ahcx'            %
     %  * Unscreened and range-separated hybrid vdW-DF2-b86r functionals    %
     %    DOI: 10.1063/1.4986522 and DOI: 10.1103/PhysRevX.12.041003        %
     %    use with input_dft = 'vdW-DF2-br0' and 'vdW-DF2-ahbr'             %
     %                                                                      %
     %%%%%%%%%%%%%%%%%%%%%%%%%%%%%%%%%%%%%%%%%%%%%%%%%%%%%%%%%%%%%%%%%%%%%%%%


     Carrying out vdW-DF run using the following parameters:
     Nqs    =  20  Npoints =  1024  r_max =  100.000
     q_mesh =  0.00001000  0.04494208  0.09755937  0.15916263
               0.23128650  0.31572767  0.41458969  0.53033537
               0.66584808  0.82450364  1.01025438  1.22772762
               1.48234092  1.78043706  2.12944203  2.53805004
               3.01644009  3.57652955  4.23227104  5.00000000


     -----------------------------------------------
     Non-local corr. energy    =       0.09347127 Ry
     -----------------------------------------------

     Starting wfcs are    8 randomized atomic wfcs

     total cpu time spent up to now is       56.8 secs

     Self-consistent Calculation

     iteration #  1     ecut=    80.00 Ry     beta= 0.70
     Davidson diagonalization with overlap

---- Real-time Memory Report at c_bands before calling an iterative solver
             0 MiB given to the printing process from OS
             0 MiB allocation reported by mallinfo(arena+hblkhd)
             0 MiB available memory on the node where the printing process lives
------------------
     ethr =  1.00E-02,  avg # of iterations =  6.0

     negative rho (up, down):  1.537E-07 0.000E+00


     -----------------------------------------------
     Non-local corr. energy    =       0.10398557 Ry
     -----------------------------------------------


     total cpu time spent up to now is       58.6 secs

     total energy              =     -24.09201818 Ry
     estimated scf accuracy    <       0.20277563 Ry

     iteration #  2     ecut=    80.00 Ry     beta= 0.70
     Davidson diagonalization with overlap

---- Real-time Memory Report at c_bands before calling an iterative solver
             0 MiB given to the printing process from OS
             0 MiB allocation reported by mallinfo(arena+hblkhd)
             0 MiB available memory on the node where the printing process lives
------------------
     ethr =  2.53E-03,  avg # of iterations =  3.4

     negative rho (up, down):  1.040E-08 0.000E+00


     -----------------------------------------------
     Non-local corr. energy    =       0.10368288 Ry
     -----------------------------------------------


     total cpu time spent up to now is       59.9 secs

     total energy              =     -24.12264939 Ry
     estimated scf accuracy    <       0.00239986 Ry

     iteration #  3     ecut=    80.00 Ry     beta= 0.70
     Davidson diagonalization with overlap

---- Real-time Memory Report at c_bands before calling an iterative solver
             0 MiB given to the printing process from OS
             0 MiB allocation reported by mallinfo(arena+hblkhd)
             0 MiB available memory on the node where the printing process lives
------------------
     ethr =  3.00E-05,  avg # of iterations = 10.3


     -----------------------------------------------
     Non-local corr. energy    =       0.10367335 Ry
     -----------------------------------------------


     total cpu time spent up to now is       62.0 secs

     total energy              =     -24.12307893 Ry
     estimated scf accuracy    <       0.00017306 Ry

     iteration #  4     ecut=    80.00 Ry     beta= 0.70
     Davidson diagonalization with overlap

---- Real-time Memory Report at c_bands before calling an iterative solver
             0 MiB given to the printing process from OS
             0 MiB allocation reported by mallinfo(arena+hblkhd)
             0 MiB available memory on the node where the printing process lives
------------------
     ethr =  2.16E-06,  avg # of iterations =  5.4


     -----------------------------------------------
     Non-local corr. energy    =       0.10372996 Ry
     -----------------------------------------------


     total cpu time spent up to now is       63.5 secs

     total energy              =     -24.12309176 Ry
     estimated scf accuracy    <       0.00000237 Ry

     iteration #  5     ecut=    80.00 Ry     beta= 0.70
     Davidson diagonalization with overlap

---- Real-time Memory Report at c_bands before calling an iterative solver
             0 MiB given to the printing process from OS
             0 MiB allocation reported by mallinfo(arena+hblkhd)
             0 MiB available memory on the node where the printing process lives
------------------
     ethr =  2.96E-08,  avg # of iterations =  3.2


     -----------------------------------------------
     Non-local corr. energy    =       0.10372375 Ry
     -----------------------------------------------


     total cpu time spent up to now is       64.8 secs

     End of self-consistent calculation

          k = 0.0000 0.0000 0.0000 (  6307 PWs)   bands (ev):

   -21.3745  -9.4830  -4.8036  -4.8036   1.1561   2.1800   3.0472   4.8535

     occupation numbers 
     1.0000   1.0000   1.0000   1.0000   0.0000   0.0000   0.0000   0.0000

          k = 0.0000 0.0962 0.0000 (  6319 PWs)   bands (ev):

   -21.2094  -9.2838  -5.4552  -5.1467   1.3809   2.4060   3.2769   5.0796

     occupation numbers 
     1.0000   1.0000   1.0000   1.0000   0.0000   0.0000   0.0000   0.0000

          k = 0.0000 0.1925 0.0000 (  6291 PWs)   bands (ev):

   -20.7157  -8.6916  -7.0988  -5.9508   2.0552   3.0823   3.9664   5.7548

     occupation numbers 
     1.0000   1.0000   1.0000   1.0000   0.0000   0.0000   0.0000   0.0000

          k = 0.0000 0.2887 0.0000 (  6279 PWs)   bands (ev):

   -19.8993  -9.2091  -7.7255  -6.8442   3.1774   4.1888   5.1145   5.6448

     occupation numbers 
     1.0000   1.0000   1.0000   1.0000   0.0000   0.0000   0.0000   0.0000

          k = 0.0000 0.3849 0.0000 (  6254 PWs)   bands (ev):

   -18.7718 -11.4279  -7.5893  -6.4361   3.2427   4.7401   5.8121   6.2325

     occupation numbers 
     1.0000   1.0000   1.0000   1.0000   0.0000   0.0000   0.0000   0.0000

          k = 0.0000 0.4811 0.0000 (  6236 PWs)   bands (ev):

   -17.3631 -13.5458  -8.0699  -4.9876   1.0726   5.9824   6.7678   7.7990

     occupation numbers 
     1.0000   1.0000   1.0000   1.0000   0.0000   0.0000   0.0000   0.0000

          k = 0.0000-0.5774 0.0000 (  6230 PWs)   bands (ev):

   -16.0725 -15.0809  -8.2350  -4.1249  -0.0477   5.9109   9.0952   9.2351

     occupation numbers 
     1.0000   1.0000   1.0000   1.0000   0.0000   0.0000   0.0000   0.0000

          k = 0.0833 0.1443 0.0000 (  6309 PWs)   bands (ev):

   -20.8800  -8.8880  -6.4919  -5.8326   1.8307   2.8574   3.7367   5.5308

     occupation numbers 
     1.0000   1.0000   1.0000   1.0000   0.0000   0.0000   0.0000   0.0000

          k = 0.0833 0.2406 0.0000 (  6260 PWs)   bands (ev):

   -20.2250  -8.2098  -8.1077  -6.8432   2.7296   3.7553   4.6561   6.3911

     occupation numbers 
     1.0000   1.0000   1.0000   1.0000   0.0000   0.0000   0.0000   0.0000

          k = 0.0833 0.3368 0.0000 (  6252 PWs)   bands (ev):

   -19.2529 -10.2963  -7.7412  -6.9734   4.0741   4.2660   5.1421   6.0333

     occupation numbers 
     1.0000   1.0000   1.0000   1.0000   0.0000   0.0000   0.0000   0.0000

          k = 0.0833 0.4330 0.0000 (  6232 PWs)   bands (ev):

   -17.9821 -12.4354  -8.3849  -5.5701   2.0407   5.8513   6.8251   6.8924

     occupation numbers 
     1.0000   1.0000   1.0000   1.0000   0.0000   0.0000   0.0000   0.0000

          k = 0.0833 0.5292 0.0000 (  6221 PWs)   bands (ev):

   -16.4850 -14.3978  -8.7181  -4.2352   0.2383   6.6464   8.0741   9.0436

     occupation numbers 
     1.0000   1.0000   1.0000   1.0000   0.0000   0.0000   0.0000   0.0000

          k = 0.1667 0.2887 0.0000 (  6261 PWs)   bands (ev):

   -19.4143  -9.5449  -8.2197  -7.1553   3.8517   4.7506   4.8691   5.8055

     occupation numbers 
     1.0000   1.0000   1.0000   1.0000   0.0000   0.0000   0.0000   0.0000

          k = 0.1667 0.3849 0.0000 (  6247 PWs)   bands (ev):

   -18.2977 -11.2842  -9.2857  -5.8812   2.7713   5.4141   6.4020   7.4121

     occupation numbers 
     1.0000   1.0000   1.0000   1.0000   0.0000   0.0000   0.0000   0.0000

          k = 0.1667 0.4811 0.0000 (  6231 PWs)   bands (ev):

   -16.9093 -13.2125  -9.8660  -4.4288   0.8248   7.3974   8.2694   8.5484

     occupation numbers 
     1.0000   1.0000   1.0000   1.0000   0.0000   0.0000   0.0000   0.0000

          k = 0.1667 0.5774 0.0000 (  6230 PWs)   bands (ev):

   -15.6506 -14.6736 -10.0524  -3.5177  -0.2652   8.4498   9.6737   9.8528

     occupation numbers 
     1.0000   1.0000   1.0000   1.0000   0.0000   0.0000   0.0000   0.0000

          k = 0.2500 0.4330 0.0000 (  6237 PWs)   bands (ev):

   -17.0592 -12.3191 -10.7873  -4.5154   1.1348   7.1793   7.9691   9.2439

     occupation numbers 
     1.0000   1.0000   1.0000   1.0000   0.0000   0.0000   0.0000   0.0000

          k = 0.2500 0.5292 0.0000 (  6245 PWs)   bands (ev):

   -15.6212 -13.7564 -11.4992  -3.1043  -0.4106   8.9936   9.3081  10.6670

     occupation numbers 
     1.0000   1.0000   1.0000   1.0000   0.0000   0.0000   0.0000   0.0000

          k = 0.3333 0.5774 0.0000 (  6234 PWs)   bands (ev):

   -14.3902 -14.3902 -12.4190  -1.7261  -1.7261   8.7769  11.0483  11.0484

     occupation numbers 
     1.0000   1.0000   1.0000   0.5000   0.5000   0.0000   0.0000   0.0000

     the Fermi energy is    -1.7166 ev

!    total energy              =     -24.12309315 Ry
     estimated scf accuracy    <       0.00000006 Ry
     smearing contrib. (-TS)   =      -0.00004558 Ry
     internal energy E=F+TS    =     -24.12304757 Ry

     The total energy is F=E-TS. E is the sum of the following terms:
     one-electron contribution =    -154.84918273 Ry
     hartree contribution      =      78.91113671 Ry
     xc contribution           =      -8.62773763 Ry
     ewald contribution        =      60.44273608 Ry

     convergence has been achieved in   5 iterations


     -----------------------------------------------
     Non-local corr. energy    =       0.10372375 Ry
     -----------------------------------------------


     Forces acting on atoms (cartesian axes, Ry/au):

     atom    1 type  1   force =     0.00000000    0.00000000    0.00000000
     atom    2 type  1   force =    -0.00000000    0.00000000    0.00000000
     The non-local contrib.  to forces
     atom    1 type  1   force =     0.00000000   -0.00000000    0.00000000
     atom    2 type  1   force =    -0.00000000    0.00000000    0.00000000
     The ionic contribution  to forces
     atom    1 type  1   force =    -0.00000001    0.00000000   -0.00000000
     atom    2 type  1   force =     0.00000001   -0.00000000   -0.00000000
     The local contribution  to forces
     atom    1 type  1   force =     0.00000000   -0.00000000    0.00000000
     atom    2 type  1   force =     0.00000001   -0.00000000    0.00000000
     The core correction contribution to forces
     atom    1 type  1   force =     0.00000000   -0.00000000   -0.00000000
     atom    2 type  1   force =    -0.00000000    0.00000000    0.00000000
     The Hubbard contrib.    to forces
     atom    1 type  1   force =     0.00000000    0.00000000    0.00000000
     atom    2 type  1   force =     0.00000000    0.00000000    0.00000000
     The SCF correction term to forces
     atom    1 type  1   force =     0.00000000    0.00000000    0.00000000
     atom    2 type  1   force =    -0.00000000   -0.00000000   -0.00000000

     Total force =     0.000000     Total SCF correction =     0.000000


     Computing stress (Cartesian axis) and pressure



     -----------------------------------------------
     Non-local corr. energy    =       0.10372375 Ry
     -----------------------------------------------

          total   stress  (Ry/bohr**3)                   (kbar)     P=       11.82
   0.00012314   0.00000000   0.00000000           18.11        0.00        0.00
   0.00000000   0.00012314   0.00000000            0.00       18.11        0.00
   0.00000000   0.00000000  -0.00000516            0.00        0.00       -0.76

     kinetic stress (kbar)   3100.12     -0.00     -0.00
                               -0.00   3100.12     -0.00
                               -0.00     -0.00   3398.38

     local   stress (kbar) -47084.35      0.00     -0.00
                                0.00 -47084.35     -0.00
                               -0.00     -0.00  48035.30

     nonloc. stress (kbar)   -320.20      0.00      0.00
                                0.00   -320.20      0.00
                                0.00      0.00   -265.70

     hartree stress (kbar)  22201.23     -0.00      0.00
                               -0.00  22201.23      0.00
                                0.00      0.00 -21967.00

     exc-cor stress (kbar)   -246.72     -0.00      0.00
                               -0.00   -246.72      0.00
                                0.00      0.00   -289.02

     corecor stress (kbar)   -467.36      0.00      0.00
                                0.00   -467.36      0.00
                                0.00      0.00   -454.16

     ewald   stress (kbar)  22833.51     -0.00     -0.00
                               -0.00  22833.51     -0.00
                               -0.00     -0.00 -28482.36

     hubbard stress (kbar)      0.00      0.00      0.00
                                0.00      0.00      0.00
                                0.00      0.00      0.00

     DFT-D   stress (kbar)      0.00      0.00      0.00
                                0.00      0.00      0.00
                                0.00      0.00      0.00

     XDM     stress (kbar)      0.00      0.00      0.00
                                0.00      0.00      0.00
                                0.00      0.00      0.00

     dft-nl  stress (kbar)      1.88      0.00      0.00
                                0.00      1.88      0.00
                                0.00      0.00     23.80

     TS-vdW  stress (kbar)      0.00      0.00      0.00
                                0.00      0.00      0.00
                                0.00      0.00      0.00

     MDB     stress (kbar)      0.00      0.00      0.00
                                0.00      0.00      0.00
                                0.00      0.00      0.00

     3D-RISM stress (kbar)      0.00      0.00      0.00
                                0.00      0.00      0.00
                                0.00      0.00      0.00


     BFGS Geometry Optimization
     Energy error            =      0.0E+00 Ry
     Gradient error          =      1.4E-25 Ry/Bohr
     Cell gradient error     =      1.8E+01 kbar

     number of scf cycles    =   1
     number of bfgs steps    =   0

     enthalpy           new  =     -24.1230931474 Ry

     new trust radius        =       0.0140047259 bohr
     new conv_thr            =       0.0000010000 Ry

     new unit-cell volume =    520.59606 a.u.^3 (    77.14438 Ang^3 )
     density =      0.51708 g/cm^3

CELL_PARAMETERS (alat=  4.63500000)
   1.003078428   0.000000000   0.000000000
  -0.501539214   0.868691401   0.000000000
   0.000000000   0.000000000   6.000000000

ATOMIC_POSITIONS (crystal)
C             0.0000000000        0.0000000000        0.0000000000
C             0.3333333330        0.6666666670        0.0000000000



     Writing config-only to output data dir ./tmp/graphene_PBE-vdW.save/
     NEW-OLD atomic charge density approx. for the potential

     negative rho (up, down):  3.662E-07 0.000E+00


     -----------------------------------------------
     Non-local corr. energy    =       0.10431435 Ry
     -----------------------------------------------

     extrapolated charge    8.04903, renormalised to    8.00000

     total cpu time spent up to now is       71.3 secs

     Self-consistent Calculation

     iteration #  1     ecut=    80.00 Ry     beta= 0.70
     Davidson diagonalization with overlap

---- Real-time Memory Report at c_bands before calling an iterative solver
             0 MiB given to the printing process from OS
             0 MiB allocation reported by mallinfo(arena+hblkhd)
             0 MiB available memory on the node where the printing process lives
------------------
     c_bands:  1 eigenvalues not converged
     ethr =  1.00E-06,  avg # of iterations = 10.1

     negative rho (up, down):  5.867E-08 0.000E+00


     -----------------------------------------------
     Non-local corr. energy    =       0.10318766 Ry
     -----------------------------------------------


     total cpu time spent up to now is       73.6 secs

     total energy              =     -24.12214527 Ry
     estimated scf accuracy    <       0.00064631 Ry

     iteration #  2     ecut=    80.00 Ry     beta= 0.70
     Davidson diagonalization with overlap

---- Real-time Memory Report at c_bands before calling an iterative solver
             0 MiB given to the printing process from OS
             0 MiB allocation reported by mallinfo(arena+hblkhd)
             0 MiB available memory on the node where the printing process lives
------------------
     c_bands:  1 eigenvalues not converged
     ethr =  8.08E-06,  avg # of iterations =  8.3

     negative rho (up, down):  2.781E-08 0.000E+00


     -----------------------------------------------
     Non-local corr. energy    =       0.10354751 Ry
     -----------------------------------------------


     total cpu time spent up to now is       75.6 secs

     total energy              =     -24.12342533 Ry
     estimated scf accuracy    <       0.00065685 Ry

     iteration #  3     ecut=    80.00 Ry     beta= 0.70
     Davidson diagonalization with overlap

---- Real-time Memory Report at c_bands before calling an iterative solver
             0 MiB given to the printing process from OS
             0 MiB allocation reported by mallinfo(arena+hblkhd)
             0 MiB available memory on the node where the printing process lives
------------------
     ethr =  8.08E-06,  avg # of iterations =  1.1


     -----------------------------------------------
     Non-local corr. energy    =       0.10373012 Ry
     -----------------------------------------------


     total cpu time spent up to now is       76.7 secs

     total energy              =     -24.12338924 Ry
     estimated scf accuracy    <       0.00014536 Ry

     iteration #  4     ecut=    80.00 Ry     beta= 0.70
     Davidson diagonalization with overlap

---- Real-time Memory Report at c_bands before calling an iterative solver
             0 MiB given to the printing process from OS
             0 MiB allocation reported by mallinfo(arena+hblkhd)
             0 MiB available memory on the node where the printing process lives
------------------
     ethr =  1.82E-06,  avg # of iterations =  2.6


     -----------------------------------------------
     Non-local corr. energy    =       0.10372201 Ry
     -----------------------------------------------


     total cpu time spent up to now is       77.9 secs

     total energy              =     -24.12340145 Ry
     estimated scf accuracy    <       0.00002511 Ry

     iteration #  5     ecut=    80.00 Ry     beta= 0.70
     Davidson diagonalization with overlap

---- Real-time Memory Report at c_bands before calling an iterative solver
             0 MiB given to the printing process from OS
             0 MiB allocation reported by mallinfo(arena+hblkhd)
             0 MiB available memory on the node where the printing process lives
------------------
     ethr =  3.14E-07,  avg # of iterations =  1.0


     -----------------------------------------------
     Non-local corr. energy    =       0.10384871 Ry
     -----------------------------------------------


     total cpu time spent up to now is       78.9 secs

     total energy              =     -24.12338358 Ry
     estimated scf accuracy    <       0.00002901 Ry

     iteration #  6     ecut=    80.00 Ry     beta= 0.70
     Davidson diagonalization with overlap

---- Real-time Memory Report at c_bands before calling an iterative solver
             0 MiB given to the printing process from OS
             0 MiB allocation reported by mallinfo(arena+hblkhd)
             0 MiB available memory on the node where the printing process lives
------------------
     ethr =  3.14E-07,  avg # of iterations =  2.0


     -----------------------------------------------
     Non-local corr. energy    =       0.10388149 Ry
     -----------------------------------------------


     total cpu time spent up to now is       80.1 secs

     End of self-consistent calculation

          k = 0.0000 0.0000 0.0000 (  6307 PWs)   bands (ev):

   -21.3468  -9.4648  -4.8554  -4.8554   1.1459   2.1677   3.0451   4.8469

     occupation numbers 
     1.0000   1.0000   1.0000   1.0000   0.0000   0.0000   0.0000   0.0000

          k = 0.0000 0.0959 0.0000 (  6319 PWs)   bands (ev):

   -21.1825  -9.2672  -5.5046  -5.1952   1.3693   2.3924   3.2735   5.0715

     occupation numbers 
     1.0000   1.0000   1.0000   1.0000   0.0000   0.0000   0.0000   0.0000

          k = 0.0000 0.1919 0.0000 (  6291 PWs)   bands (ev):

   -20.6916  -8.6795  -7.1412  -5.9918   2.0396   3.0643   3.9587   5.7423

     occupation numbers 
     1.0000   1.0000   1.0000   1.0000   0.0000   0.0000   0.0000   0.0000

          k = 0.0000 0.2878 0.0000 (  6279 PWs)   bands (ev):

   -19.8797  -9.2413  -7.7209  -6.8774   3.1550   4.1626   5.1002   5.5386

     occupation numbers 
     1.0000   1.0000   1.0000   1.0000   0.0000   0.0000   0.0000   0.0000

          k = 0.0000 0.3837 0.0000 (  6254 PWs)   bands (ev):

   -18.7587 -11.4482  -7.6164  -6.4419   3.1603   4.7076   5.7751   6.0992

     occupation numbers 
     1.0000   1.0000   1.0000   1.0000   0.0000   0.0000   0.0000   0.0000

          k = 0.0000 0.4796 0.0000 (  6236 PWs)   bands (ev):

   -17.3594 -13.5533  -8.0931  -5.0060   1.0115   5.8460   6.7206   7.7492

     occupation numbers 
     1.0000   1.0000   1.0000   1.0000   0.0000   0.0000   0.0000   0.0000

          k = 0.0000-0.5756 0.0000 (  6230 PWs)   bands (ev):

   -16.0874 -15.0684  -8.2568  -4.1520  -0.0969   5.7713   9.0343   9.1749

     occupation numbers 
     1.0000   1.0000   1.0000   1.0000   0.0000   0.0000   0.0000   0.0000

          k = 0.0831 0.1439 0.0000 (  6309 PWs)   bands (ev):

   -20.8550  -8.8744  -6.5378  -5.8745   1.8163   2.8408   3.7304   5.5198

     occupation numbers 
     1.0000   1.0000   1.0000   1.0000   0.0000   0.0000   0.0000   0.0000

          k = 0.0831 0.2398 0.0000 (  6260 PWs)   bands (ev):

   -20.2036  -8.2482  -8.1000  -6.8765   2.7098   3.7328   4.6442   6.3316

     occupation numbers 
     1.0000   1.0000   1.0000   1.0000   0.0000   0.0000   0.0000   0.0000

          k = 0.0831 0.3358 0.0000 (  6252 PWs)   bands (ev):

   -19.2370 -10.3237  -7.7679  -6.9748   4.0460   4.1742   5.1072   6.0122

     occupation numbers 
     1.0000   1.0000   1.0000   1.0000   0.0000   0.0000   0.0000   0.0000

          k = 0.0831 0.4317 0.0000 (  6232 PWs)   bands (ev):

   -17.9739 -12.4505  -8.4071  -5.5831   1.9686   5.8113   6.6858   6.8486

     occupation numbers 
     1.0000   1.0000   1.0000   1.0000   0.0000   0.0000   0.0000   0.0000

          k = 0.0831 0.5276 0.0000 (  6221 PWs)   bands (ev):

   -16.4893 -14.3979  -8.7379  -4.2607   0.1846   6.5045   8.0201   8.9840

     occupation numbers 
     1.0000   1.0000   1.0000   1.0000   0.0000   0.0000   0.0000   0.0000

          k = 0.1662 0.2878 0.0000 (  6261 PWs)   bands (ev):

   -19.3975  -9.5801  -8.2409  -7.1551   3.8250   4.6489   4.8393   5.7866

     occupation numbers 
     1.0000   1.0000   1.0000   1.0000   0.0000   0.0000   0.0000   0.0000

          k = 0.1662 0.3837 0.0000 (  6247 PWs)   bands (ev):

   -18.2874 -11.3099  -9.3005  -5.8914   2.6889   5.3776   6.3616   7.3828

     occupation numbers 
     1.0000   1.0000   1.0000   1.0000   0.0000   0.0000   0.0000   0.0000

          k = 0.1662 0.4796 0.0000 (  6231 PWs)   bands (ev):

   -16.9083 -13.2247  -9.8787  -4.4516   0.7614   7.3478   8.2148   8.4003

     occupation numbers 
     1.0000   1.0000   1.0000   1.0000   0.0000   0.0000   0.0000   0.0000

          k = 0.1662 0.5756 0.0000 (  6230 PWs)   bands (ev):

   -15.6667 -14.6671 -10.0644  -3.5494  -0.3173   8.3000   9.6075   9.7877

     occupation numbers 
     1.0000   1.0000   1.0000   1.0000   0.0000   0.0000   0.0000   0.0000

          k = 0.2492 0.4317 0.0000 (  6237 PWs)   bands (ev):

   -17.0567 -12.3452 -10.7873  -4.5370   1.0659   7.1316   7.9168   9.2036

     occupation numbers 
     1.0000   1.0000   1.0000   1.0000   0.0000   0.0000   0.0000   0.0000

          k = 0.2492 0.5276 0.0000 (  6245 PWs)   bands (ev):

   -15.6303 -13.7701 -11.4963  -3.1385  -0.4659   8.9331   9.2446  10.5149

     occupation numbers 
     1.0000   1.0000   1.0000   1.0000   0.0000   0.0000   0.0000   0.0000

          k = 0.3323 0.5756 0.0000 (  6234 PWs)   bands (ev):

   -14.4099 -14.4099 -12.3981  -1.7717  -1.7717   8.7212  10.9487  10.9487

     occupation numbers 
     1.0000   1.0000   1.0000   0.5000   0.5000   0.0000   0.0000   0.0000

     the Fermi energy is    -1.7622 ev

!    total energy              =     -24.12338697 Ry
     estimated scf accuracy    <       0.00000060 Ry
     smearing contrib. (-TS)   =      -0.00004558 Ry
     internal energy E=F+TS    =     -24.12334139 Ry

     The total energy is F=E-TS. E is the sum of the following terms:
     one-electron contribution =    -153.87854930 Ry
     hartree contribution      =      78.41865417 Ry
     xc contribution           =      -8.61417891 Ry
     ewald contribution        =      59.95073264 Ry

     convergence has been achieved in   6 iterations


     -----------------------------------------------
     Non-local corr. energy    =       0.10388149 Ry
     -----------------------------------------------


     Forces acting on atoms (cartesian axes, Ry/au):

     atom    1 type  1   force =     0.00000000    0.00000000    0.00000000
     atom    2 type  1   force =     0.00000000   -0.00000000    0.00000000
     The non-local contrib.  to forces
     atom    1 type  1   force =     0.00000000    0.00000000    0.00000000
     atom    2 type  1   force =    -0.00000000   -0.00000000    0.00000000
     The ionic contribution  to forces
     atom    1 type  1   force =    -0.00000001    0.00000000   -0.00000000
     atom    2 type  1   force =     0.00000001   -0.00000000   -0.00000000
     The local contribution  to forces
     atom    1 type  1   force =     0.00000000   -0.00000000   -0.00000000
     atom    2 type  1   force =     0.00000001   -0.00000000    0.00000000
     The core correction contribution to forces
     atom    1 type  1   force =     0.00000000   -0.00000000    0.00000000
     atom    2 type  1   force =    -0.00000000    0.00000000   -0.00000000
     The Hubbard contrib.    to forces
     atom    1 type  1   force =     0.00000000    0.00000000    0.00000000
     atom    2 type  1   force =     0.00000000    0.00000000    0.00000000
     The SCF correction term to forces
     atom    1 type  1   force =     0.00000000    0.00000000    0.00000000
     atom    2 type  1   force =    -0.00000000    0.00000000    0.00000000

     Total force =     0.000000     Total SCF correction =     0.000000


     Computing stress (Cartesian axis) and pressure



     -----------------------------------------------
     Non-local corr. energy    =       0.10388149 Ry
     -----------------------------------------------

          total   stress  (Ry/bohr**3)                   (kbar)     P=        6.11
   0.00006169   0.00000000  -0.00000000            9.07        0.00       -0.00
   0.00000000   0.00006169  -0.00000000            0.00        9.07       -0.00
   0.00000000   0.00000000   0.00000122            0.00        0.00        0.18

     kinetic stress (kbar)   3069.92      0.00      0.00
                                0.00   3069.92     -0.00
                                0.00     -0.00   3371.77

     local   stress (kbar) -46500.96      0.00      0.00
                                0.00 -46500.96      0.00
                                0.00      0.00  47429.37

     nonloc. stress (kbar)   -315.30     -0.00      0.00
                               -0.00   -315.30      0.00
                                0.00      0.00   -262.59

     hartree stress (kbar)  21924.57     -0.00      0.00
                               -0.00  21924.57      0.00
                                0.00      0.00 -21690.34

     exc-cor stress (kbar)   -244.21     -0.00      0.00
                               -0.00   -244.21      0.00
                                0.00      0.00   -286.11

     corecor stress (kbar)   -464.13      0.00     -0.00
                                0.00   -464.13      0.00
                               -0.00      0.00   -451.22

     ewald   stress (kbar)  22537.31     -0.00     -0.00
                               -0.00  22537.31     -0.00
                               -0.00     -0.00 -28134.32

     hubbard stress (kbar)      0.00      0.00      0.00
                                0.00      0.00      0.00
                                0.00      0.00      0.00

     DFT-D   stress (kbar)      0.00      0.00      0.00
                                0.00      0.00      0.00
                                0.00      0.00      0.00

     XDM     stress (kbar)      0.00      0.00      0.00
                                0.00      0.00      0.00
                                0.00      0.00      0.00

     dft-nl  stress (kbar)      1.88      0.00     -0.00
                                0.00      1.88     -0.00
                               -0.00     -0.00     23.62

     TS-vdW  stress (kbar)      0.00      0.00      0.00
                                0.00      0.00      0.00
                                0.00      0.00      0.00

     MDB     stress (kbar)      0.00      0.00      0.00
                                0.00      0.00      0.00
                                0.00      0.00      0.00

     3D-RISM stress (kbar)      0.00      0.00      0.00
                                0.00      0.00      0.00
                                0.00      0.00      0.00

     Energy error            =      2.9E-04 Ry
     Gradient error          =      7.9E-26 Ry/Bohr
     Cell gradient error     =      9.1E+00 kbar

     number of scf cycles    =   2
     number of bfgs steps    =   1

     enthalpy           old  =     -24.1230931474 Ry
     enthalpy           new  =     -24.1233869744 Ry

     CASE: enthalpy          _new < enthalpy          _old

     new trust radius        =       0.0141463303 bohr
     new conv_thr            =       0.0000000100 Ry

     new unit-cell volume =    523.82877 a.u.^3 (    77.62342 Ang^3 )
     density =      0.51388 g/cm^3

CELL_PARAMETERS (alat=  4.63500000)
   1.006187984   0.000000000   0.000000000
  -0.503093992   0.871384355   0.000000000
   0.000000000   0.000000000   6.000000000

ATOMIC_POSITIONS (crystal)
C             0.0000000000        0.0000000000        0.0000000000
C             0.3333333330        0.6666666670        0.0000000000



     Writing config-only to output data dir ./tmp/graphene_PBE-vdW.save/
     NEW-OLD atomic charge density approx. for the potential

     negative rho (up, down):  3.536E-07 0.000E+00


     -----------------------------------------------
     Non-local corr. energy    =       0.10447816 Ry
     -----------------------------------------------

     extrapolated charge    8.04937, renormalised to    8.00000

     total cpu time spent up to now is       86.9 secs

     Self-consistent Calculation

     iteration #  1     ecut=    80.00 Ry     beta= 0.70
     Davidson diagonalization with overlap

---- Real-time Memory Report at c_bands before calling an iterative solver
             0 MiB given to the printing process from OS
             0 MiB allocation reported by mallinfo(arena+hblkhd)
             0 MiB available memory on the node where the printing process lives
------------------
     c_bands:  1 eigenvalues not converged
     c_bands:  1 eigenvalues not converged
     c_bands:  1 eigenvalues not converged
     ethr =  1.00E-06,  avg # of iterations = 10.6

     negative rho (up, down):  5.571E-08 0.000E+00


     -----------------------------------------------
     Non-local corr. energy    =       0.10332497 Ry
     -----------------------------------------------


     total cpu time spent up to now is       89.6 secs

     total energy              =     -24.12221326 Ry
     estimated scf accuracy    <       0.00068535 Ry

     iteration #  2     ecut=    80.00 Ry     beta= 0.70
     Davidson diagonalization with overlap

---- Real-time Memory Report at c_bands before calling an iterative solver
             0 MiB given to the printing process from OS
             0 MiB allocation reported by mallinfo(arena+hblkhd)
             0 MiB available memory on the node where the printing process lives
------------------
     c_bands:  1 eigenvalues not converged
     ethr =  8.57E-06,  avg # of iterations =  8.0

     negative rho (up, down):  2.604E-08 0.000E+00


     -----------------------------------------------
     Non-local corr. energy    =       0.10369210 Ry
     -----------------------------------------------


     total cpu time spent up to now is       91.7 secs

     total energy              =     -24.12352502 Ry
     estimated scf accuracy    <       0.00066593 Ry

     iteration #  3     ecut=    80.00 Ry     beta= 0.70
     Davidson diagonalization with overlap

---- Real-time Memory Report at c_bands before calling an iterative solver
             0 MiB given to the printing process from OS
             0 MiB allocation reported by mallinfo(arena+hblkhd)
             0 MiB available memory on the node where the printing process lives
------------------
     ethr =  8.32E-06,  avg # of iterations =  1.1


     -----------------------------------------------
     Non-local corr. energy    =       0.10386571 Ry
     -----------------------------------------------


     total cpu time spent up to now is       93.0 secs

     total energy              =     -24.12349317 Ry
     estimated scf accuracy    <       0.00014400 Ry

     iteration #  4     ecut=    80.00 Ry     beta= 0.70
     Davidson diagonalization with overlap

---- Real-time Memory Report at c_bands before calling an iterative solver
             0 MiB given to the printing process from OS
             0 MiB allocation reported by mallinfo(arena+hblkhd)
             0 MiB available memory on the node where the printing process lives
------------------
     ethr =  1.80E-06,  avg # of iterations =  2.5


     -----------------------------------------------
     Non-local corr. energy    =       0.10386106 Ry
     -----------------------------------------------


     total cpu time spent up to now is       94.6 secs

     total energy              =     -24.12350383 Ry
     estimated scf accuracy    <       0.00002805 Ry

     iteration #  5     ecut=    80.00 Ry     beta= 0.70
     Davidson diagonalization with overlap

---- Real-time Memory Report at c_bands before calling an iterative solver
             0 MiB given to the printing process from OS
             0 MiB allocation reported by mallinfo(arena+hblkhd)
             0 MiB available memory on the node where the printing process lives
------------------
     ethr =  3.51E-07,  avg # of iterations =  1.0


     -----------------------------------------------
     Non-local corr. energy    =       0.10400462 Ry
     -----------------------------------------------


     total cpu time spent up to now is       95.8 secs

     total energy              =     -24.12348376 Ry
     estimated scf accuracy    <       0.00003087 Ry

     iteration #  6     ecut=    80.00 Ry     beta= 0.70
     Davidson diagonalization with overlap

---- Real-time Memory Report at c_bands before calling an iterative solver
             0 MiB given to the printing process from OS
             0 MiB allocation reported by mallinfo(arena+hblkhd)
             0 MiB available memory on the node where the printing process lives
------------------
     ethr =  3.51E-07,  avg # of iterations =  2.0


     -----------------------------------------------
     Non-local corr. energy    =       0.10401641 Ry
     -----------------------------------------------


     total cpu time spent up to now is       97.1 secs

     total energy              =     -24.12348873 Ry
     estimated scf accuracy    <       0.00000013 Ry

     iteration #  7     ecut=    80.00 Ry     beta= 0.70
     Davidson diagonalization with overlap

---- Real-time Memory Report at c_bands before calling an iterative solver
             0 MiB given to the printing process from OS
             0 MiB allocation reported by mallinfo(arena+hblkhd)
             0 MiB available memory on the node where the printing process lives
------------------
     ethr =  1.64E-09,  avg # of iterations =  3.1


     -----------------------------------------------
     Non-local corr. energy    =       0.10400574 Ry
     -----------------------------------------------


     total cpu time spent up to now is       98.5 secs

     total energy              =     -24.12348885 Ry
     estimated scf accuracy    <       0.00000003 Ry

     iteration #  8     ecut=    80.00 Ry     beta= 0.70
     Davidson diagonalization with overlap

---- Real-time Memory Report at c_bands before calling an iterative solver
             0 MiB given to the printing process from OS
             0 MiB allocation reported by mallinfo(arena+hblkhd)
             0 MiB available memory on the node where the printing process lives
------------------
     ethr =  4.07E-10,  avg # of iterations =  2.0


     -----------------------------------------------
     Non-local corr. energy    =       0.10401412 Ry
     -----------------------------------------------


     total cpu time spent up to now is       99.8 secs

     total energy              =     -24.12348882 Ry
     estimated scf accuracy    <       0.00000008 Ry

     iteration #  9     ecut=    80.00 Ry     beta= 0.70
     Davidson diagonalization with overlap

---- Real-time Memory Report at c_bands before calling an iterative solver
             0 MiB given to the printing process from OS
             0 MiB allocation reported by mallinfo(arena+hblkhd)
             0 MiB available memory on the node where the printing process lives
------------------
     ethr =  4.07E-10,  avg # of iterations =  2.0


     -----------------------------------------------
     Non-local corr. energy    =       0.10401221 Ry
     -----------------------------------------------


     total cpu time spent up to now is      101.2 secs

     End of self-consistent calculation

          k = 0.0000 0.0000 0.0000 (  6307 PWs)   bands (ev):

   -21.2988  -9.4310  -4.8842  -4.8842   1.1413   2.1616   3.0293   4.8352

     occupation numbers 
     1.0000   1.0000   1.0000   1.0000   0.0000   0.0000   0.0000   0.0000

          k = 0.0000 0.0956 0.0000 (  6319 PWs)   bands (ev):

   -21.1355  -9.2348  -5.5313  -5.2207   1.3634   2.3848   3.2562   5.0584

     occupation numbers 
     1.0000   1.0000   1.0000   1.0000   0.0000   0.0000   0.0000   0.0000

          k = 0.0000 0.1913 0.0000 (  6291 PWs)   bands (ev):

   -20.6472  -8.6515  -7.1612  -6.0100   2.0296   3.0523   3.9373   5.7247

     occupation numbers 
     1.0000   1.0000   1.0000   1.0000   0.0000   0.0000   0.0000   0.0000

          k = 0.0000 0.2869 0.0000 (  6279 PWs)   bands (ev):

   -19.8397  -9.2515  -7.7003  -6.8881   3.1381   4.1426   5.0714   5.4500

     occupation numbers 
     1.0000   1.0000   1.0000   1.0000   0.0000   0.0000   0.0000   0.0000

          k = 0.0000 0.3825 0.0000 (  6254 PWs)   bands (ev):

   -18.7252 -11.4471  -7.6209  -6.4314   3.0951   4.6811   5.7446   5.9836

     occupation numbers 
     1.0000   1.0000   1.0000   1.0000   0.0000   0.0000   0.0000   0.0000

          k = 0.0000 0.4782 0.0000 (  6236 PWs)   bands (ev):

   -17.3351 -13.5396  -8.0939  -5.0077   0.9670   5.7281   6.6798   7.7057

     occupation numbers 
     1.0000   1.0000   1.0000   1.0000   0.0000   0.0000   0.0000   0.0000

          k = 0.0000-0.5738 0.0000 (  6230 PWs)   bands (ev):

   -16.0813 -15.0353  -8.2563  -4.1621  -0.1300   5.6509   8.9795   9.1207

     occupation numbers 
     1.0000   1.0000   1.0000   1.0000   0.0000   0.0000   0.0000   0.0000

          k = 0.0828 0.1434 0.0000 (  6309 PWs)   bands (ev):

   -20.8097  -8.8449  -6.5612  -5.8937   1.8077   2.8304   3.7103   5.5037

     occupation numbers 
     1.0000   1.0000   1.0000   1.0000   0.0000   0.0000   0.0000   0.0000

          k = 0.0828 0.2391 0.0000 (  6260 PWs)   bands (ev):

   -20.1618  -8.2645  -8.0765  -6.8874   2.6957   3.7164   4.6185   6.2490

     occupation numbers 
     1.0000   1.0000   1.0000   1.0000   0.0000   0.0000   0.0000   0.0000

          k = 0.0828 0.3347 0.0000 (  6252 PWs)   bands (ev):

   -19.2007 -10.3294  -7.7723  -6.9600   4.0237   4.0994   5.0794   5.9778

     occupation numbers 
     1.0000   1.0000   1.0000   1.0000   0.0000   0.0000   0.0000   0.0000

          k = 0.0828 0.4303 0.0000 (  6232 PWs)   bands (ev):

   -17.9452 -12.4443  -8.4069  -5.5796   1.9135   5.7773   6.5656   6.8112

     occupation numbers 
     1.0000   1.0000   1.0000   1.0000   0.0000   0.0000   0.0000   0.0000

          k = 0.0828 0.5260 0.0000 (  6221 PWs)   bands (ev):

   -16.4730 -14.3769  -8.7354  -4.2692   0.1472   6.3818   7.9723   8.9310

     occupation numbers 
     1.0000   1.0000   1.0000   1.0000   0.0000   0.0000   0.0000   0.0000

          k = 0.1656 0.2869 0.0000 (  6261 PWs)   bands (ev):

   -19.3602  -9.5934  -8.2400  -7.1389   3.8039   4.5655   4.8156   5.7537

     occupation numbers 
     1.0000   1.0000   1.0000   1.0000   0.0000   0.0000   0.0000   0.0000

          k = 0.1656 0.3825 0.0000 (  6247 PWs)   bands (ev):

   -18.2566 -11.3139  -9.2933  -5.8852   2.6242   5.3470   6.3275   7.3400

     occupation numbers 
     1.0000   1.0000   1.0000   1.0000   0.0000   0.0000   0.0000   0.0000

          k = 0.1656 0.4782 0.0000 (  6231 PWs)   bands (ev):

   -16.8865 -13.2156  -9.8695  -4.4577   0.7151   7.3042   8.1670   8.2712

     occupation numbers 
     1.0000   1.0000   1.0000   1.0000   0.0000   0.0000   0.0000   0.0000

          k = 0.1656 0.5738 0.0000 (  6230 PWs)   bands (ev):

   -15.6617 -14.6398 -10.0545  -3.5641  -0.3527   8.1694   9.5476   9.7290

     occupation numbers 
     1.0000   1.0000   1.0000   1.0000   0.0000   0.0000   0.0000   0.0000

          k = 0.2485 0.4303 0.0000 (  6237 PWs)   bands (ev):

   -17.0335 -12.3497 -10.7657  -4.5420   1.0145   7.0898   7.8712   9.1488

     occupation numbers 
     1.0000   1.0000   1.0000   1.0000   0.0000   0.0000   0.0000   0.0000

          k = 0.2485 0.5260 0.0000 (  6245 PWs)   bands (ev):

   -15.6186 -13.7628 -11.4717  -3.1556  -0.5039   8.8809   9.1875  10.3807

     occupation numbers 
     1.0000   1.0000   1.0000   1.0000   0.0000   0.0000   0.0000   0.0000

          k = 0.3313 0.5738 0.0000 (  6234 PWs)   bands (ev):

   -14.4084 -14.4084 -12.3561  -1.8000  -1.8000   8.6742  10.8588  10.8588

     occupation numbers 
     1.0000   1.0000   1.0000   0.5000   0.5000   0.0000   0.0000   0.0000

     the Fermi energy is    -1.7906 ev

!    total energy              =     -24.12348884 Ry
     estimated scf accuracy    <          2.3E-09 Ry
     smearing contrib. (-TS)   =      -0.00004558 Ry
     internal energy E=F+TS    =     -24.12344326 Ry

     The total energy is F=E-TS. E is the sum of the following terms:
     one-electron contribution =    -152.90164347 Ry
     hartree contribution      =      77.91909806 Ry
     xc contribution           =      -8.59960684 Ry
     ewald contribution        =      59.45870900 Ry

     convergence has been achieved in   9 iterations


     -----------------------------------------------
     Non-local corr. energy    =       0.10401221 Ry
     -----------------------------------------------


     Forces acting on atoms (cartesian axes, Ry/au):

     atom    1 type  1   force =     0.00000000    0.00000000    0.00000000
     atom    2 type  1   force =     0.00000000   -0.00000000    0.00000000
     The non-local contrib.  to forces
     atom    1 type  1   force =     0.00000000    0.00000000   -0.00000000
     atom    2 type  1   force =     0.00000000   -0.00000000   -0.00000000
     The ionic contribution  to forces
     atom    1 type  1   force =    -0.00000001    0.00000000   -0.00000000
     atom    2 type  1   force =     0.00000001   -0.00000000   -0.00000000
     The local contribution  to forces
     atom    1 type  1   force =     0.00000000   -0.00000000   -0.00000000
     atom    2 type  1   force =     0.00000001   -0.00000000   -0.00000000
     The core correction contribution to forces
     atom    1 type  1   force =     0.00000000   -0.00000000   -0.00000000
     atom    2 type  1   force =    -0.00000000    0.00000000    0.00000000
     The Hubbard contrib.    to forces
     atom    1 type  1   force =     0.00000000    0.00000000    0.00000000
     atom    2 type  1   force =     0.00000000    0.00000000    0.00000000
     The SCF correction term to forces
     atom    1 type  1   force =     0.00000000    0.00000000   -0.00000000
     atom    2 type  1   force =     0.00000000    0.00000000    0.00000000

     Total force =     0.000000     Total SCF correction =     0.000000


     Computing stress (Cartesian axis) and pressure



     -----------------------------------------------
     Non-local corr. energy    =       0.10401221 Ry
     -----------------------------------------------

          total   stress  (Ry/bohr**3)                   (kbar)     P=       -0.07
   0.00000149  -0.00000000   0.00000000            0.22       -0.00        0.00
  -0.00000000   0.00000149   0.00000000           -0.00        0.22        0.00
   0.00000000   0.00000000  -0.00000437            0.00        0.00       -0.64

     kinetic stress (kbar)   3038.95      0.00     -0.00
                                0.00   3038.95      0.00
                                0.00      0.00   3343.46

     local   stress (kbar) -45918.71      0.00     -0.00
                                0.00 -45918.71      0.00
                               -0.00      0.00  46824.53

     nonloc. stress (kbar)   -309.93      0.00      0.00
                                0.00   -309.93      0.00
                                0.00      0.00   -258.91

     hartree stress (kbar)  21647.69     -0.00      0.00
                               -0.00  21647.69     -0.00
                                0.00     -0.00 -21413.63

     exc-cor stress (kbar)   -241.66     -0.00      0.00
                               -0.00   -241.66     -0.00
                                0.00     -0.00   -283.14

     corecor stress (kbar)   -460.87      0.00      0.00
                                0.00   -460.87      0.00
                                0.00      0.00   -448.24

     ewald   stress (kbar)  22242.86     -0.00     -0.00
                               -0.00  22242.86     -0.00
                               -0.00     -0.00 -27788.14

     hubbard stress (kbar)      0.00      0.00      0.00
                                0.00      0.00      0.00
                                0.00      0.00      0.00

     DFT-D   stress (kbar)      0.00      0.00      0.00
                                0.00      0.00      0.00
                                0.00      0.00      0.00

     XDM     stress (kbar)      0.00      0.00      0.00
                                0.00      0.00      0.00
                                0.00      0.00      0.00

     dft-nl  stress (kbar)      1.87      0.00     -0.00
                                0.00      1.87     -0.00
                               -0.00     -0.00     23.42

     TS-vdW  stress (kbar)      0.00      0.00      0.00
                                0.00      0.00      0.00
                                0.00      0.00      0.00

     MDB     stress (kbar)      0.00      0.00      0.00
                                0.00      0.00      0.00
                                0.00      0.00      0.00

     3D-RISM stress (kbar)      0.00      0.00      0.00
                                0.00      0.00      0.00
                                0.00      0.00      0.00

     Energy error            =      1.0E-04 Ry
     Gradient error          =      7.9E-26 Ry/Bohr
     Cell gradient error     =      2.2E-01 kbar

     number of scf cycles    =   3
     number of bfgs steps    =   2

     enthalpy           old  =     -24.1233869744 Ry
     enthalpy           new  =     -24.1234888375 Ry

     CASE: enthalpy          _new < enthalpy          _old

     new trust radius        =       0.0003506716 bohr
     new conv_thr            =       0.0000000100 Ry

     new unit-cell volume =    523.90904 a.u.^3 (    77.63531 Ang^3 )
     density =      0.51381 g/cm^3

CELL_PARAMETERS (alat=  4.63500000)
   1.006265066  -0.000000000   0.000000000
  -0.503132533   0.871451110   0.000000000
   0.000000000   0.000000000   6.000000000

ATOMIC_POSITIONS (crystal)
C             0.0000000000        0.0000000000        0.0000000000
C             0.3333333330        0.6666666670        0.0000000000



     Writing config-only to output data dir ./tmp/graphene_PBE-vdW.save/
     NEW-OLD atomic charge density approx. for the potential


     -----------------------------------------------
     Non-local corr. energy    =       0.10402705 Ry
     -----------------------------------------------

     extrapolated charge    8.00123, renormalised to    8.00000

     total cpu time spent up to now is      107.8 secs

     Self-consistent Calculation

     iteration #  1     ecut=    80.00 Ry     beta= 0.70
     Davidson diagonalization with overlap

---- Real-time Memory Report at c_bands before calling an iterative solver
             0 MiB given to the printing process from OS
             0 MiB allocation reported by mallinfo(arena+hblkhd)
             0 MiB available memory on the node where the printing process lives
------------------
     ethr =  1.00E-06,  avg # of iterations =  1.4

     Threshold (ethr) on eigenvalues was too large:
     Diagonalizing with lowered threshold

     Davidson diagonalization with overlap

---- Real-time Memory Report at c_bands before calling an iterative solver
             0 MiB given to the printing process from OS
             0 MiB allocation reported by mallinfo(arena+hblkhd)
             0 MiB available memory on the node where the printing process lives
------------------
     ethr =  3.78E-09,  avg # of iterations =  1.7


     -----------------------------------------------
     Non-local corr. energy    =       0.10400022 Ry
     -----------------------------------------------


     total cpu time spent up to now is      109.8 secs

     total energy              =     -24.12348821 Ry
     estimated scf accuracy    <       0.00000034 Ry

     iteration #  2     ecut=    80.00 Ry     beta= 0.70
     Davidson diagonalization with overlap

---- Real-time Memory Report at c_bands before calling an iterative solver
             0 MiB given to the printing process from OS
             0 MiB allocation reported by mallinfo(arena+hblkhd)
             0 MiB available memory on the node where the printing process lives
------------------
     ethr =  4.30E-09,  avg # of iterations =  2.9


     -----------------------------------------------
     Non-local corr. energy    =       0.10400870 Ry
     -----------------------------------------------


     total cpu time spent up to now is      111.2 secs

     total energy              =     -24.12348892 Ry
     estimated scf accuracy    <       0.00000036 Ry

     iteration #  3     ecut=    80.00 Ry     beta= 0.70
     Davidson diagonalization with overlap

---- Real-time Memory Report at c_bands before calling an iterative solver
             0 MiB given to the printing process from OS
             0 MiB allocation reported by mallinfo(arena+hblkhd)
             0 MiB available memory on the node where the printing process lives
------------------
     ethr =  4.30E-09,  avg # of iterations =  1.0


     -----------------------------------------------
     Non-local corr. energy    =       0.10401487 Ry
     -----------------------------------------------


     total cpu time spent up to now is      112.4 secs

     total energy              =     -24.12348889 Ry
     estimated scf accuracy    <       0.00000008 Ry

     iteration #  4     ecut=    80.00 Ry     beta= 0.70
     Davidson diagonalization with overlap

---- Real-time Memory Report at c_bands before calling an iterative solver
             0 MiB given to the printing process from OS
             0 MiB allocation reported by mallinfo(arena+hblkhd)
             0 MiB available memory on the node where the printing process lives
------------------
     ethr =  1.06E-09,  avg # of iterations =  2.0


     -----------------------------------------------
     Non-local corr. energy    =       0.10401721 Ry
     -----------------------------------------------


     total cpu time spent up to now is      113.8 secs

     End of self-consistent calculation

          k = 0.0000 0.0000 0.0000 (  6307 PWs)   bands (ev):

   -21.2991  -9.4313  -4.8866  -4.8866   1.1409   2.1612   3.0302   4.8355

     occupation numbers 
     1.0000   1.0000   1.0000   1.0000   0.0000   0.0000   0.0000   0.0000

          k = 0.0000 0.0956 0.0000 (  6319 PWs)   bands (ev):

   -21.1358  -9.2352  -5.5336  -5.2230   1.3629   2.3843   3.2571   5.0586

     occupation numbers 
     1.0000   1.0000   1.0000   1.0000   0.0000   0.0000   0.0000   0.0000

          k = 0.0000 0.1913 0.0000 (  6291 PWs)   bands (ev):

   -20.6476  -8.6520  -7.1633  -6.0121   2.0290   3.0518   3.9380   5.7248

     occupation numbers 
     1.0000   1.0000   1.0000   1.0000   0.0000   0.0000   0.0000   0.0000

          k = 0.0000 0.2869 0.0000 (  6279 PWs)   bands (ev):

   -19.8402  -9.2534  -7.7009  -6.8899   3.1373   4.1418   5.0718   5.4464

     occupation numbers 
     1.0000   1.0000   1.0000   1.0000   0.0000   0.0000   0.0000   0.0000

          k = 0.0000 0.3825 0.0000 (  6254 PWs)   bands (ev):

   -18.7259 -11.4486  -7.6227  -6.4323   3.0923   4.6801   5.7435   5.9792

     occupation numbers 
     1.0000   1.0000   1.0000   1.0000   0.0000   0.0000   0.0000   0.0000

          k = 0.0000 0.4781 0.0000 (  6236 PWs)   bands (ev):

   -17.3360 -13.5408  -8.0955  -5.0090   0.9647   5.7238   6.6784   7.7043

     occupation numbers 
     1.0000   1.0000   1.0000   1.0000   0.0000   0.0000   0.0000   0.0000

          k =-0.0000-0.5738 0.0000 (  6230 PWs)   bands (ev):

   -16.0827 -15.0360  -8.2579  -4.1636  -0.1321   5.6465   8.9778   9.1190

     occupation numbers 
     1.0000   1.0000   1.0000   1.0000   0.0000   0.0000   0.0000   0.0000

          k = 0.0828 0.1434 0.0000 (  6309 PWs)   bands (ev):

   -20.8100  -8.8454  -6.5634  -5.8958   1.8072   2.8298   3.7112   5.5039

     occupation numbers 
     1.0000   1.0000   1.0000   1.0000   0.0000   0.0000   0.0000   0.0000

          k = 0.0828 0.2391 0.0000 (  6260 PWs)   bands (ev):

   -20.1623  -8.2665  -8.0771  -6.8893   2.6951   3.7157   4.6191   6.2447

     occupation numbers 
[...]
        k(   14) = (   0.1666667   0.2500000   0.0000000), wk =   0.1666667
        k(   15) = (   0.1666667   0.3333333   0.0000000), wk =   0.1666667
        k(   16) = (   0.1666667   0.4166667   0.0000000), wk =   0.0833333
        k(   17) = (   0.2500000   0.2500000   0.0000000), wk =   0.0833333
        k(   18) = (   0.2500000   0.3333333   0.0000000), wk =   0.1666667
        k(   19) = (   0.3333333   0.3333333   0.0000000), wk =   0.0277778

     Dense  grid:    50589 G-vectors     FFT dimensions: (  27,  27, 160)

     Dynamical RAM for                 wfc:       0.77 MB

     Dynamical RAM for     wfc (w. buffer):      15.46 MB

     Dynamical RAM for           str. fact:       0.77 MB

     Dynamical RAM for           local pot:       0.38 MB

     Dynamical RAM for          nlocal pot:       1.55 MB

     Dynamical RAM for                qrad:       0.82 MB

     Dynamical RAM for          rho,v,vnew:       4.99 MB

     Dynamical RAM for               rhoin:       1.66 MB

     Dynamical RAM for            rho*nmix:      12.35 MB

     Dynamical RAM for           G-vectors:       3.28 MB

     Dynamical RAM for          h,s,v(r/c):       0.01 MB

     Dynamical RAM for          <psi|beta>:       0.00 MB

     Dynamical RAM for                 psi:       1.55 MB

     Dynamical RAM for                hpsi:       1.55 MB

     Dynamical RAM for      wfcinit/wfcrot:       1.55 MB

     Estimated static dynamical RAM per process >      34.90 MB

     Estimated max dynamical RAM per process >      50.35 MB

     Initial potential from superposition of free atoms

     starting charge       7.9999, renormalised to       8.0000

     negative rho (up, down):  1.690E-05 0.000E+00


     -----------------------------------------------
     Non-local corr. energy    =       0.09398967 Ry
     -----------------------------------------------

     Starting wfcs are    8 randomized atomic wfcs

     total cpu time spent up to now is      120.4 secs

     Self-consistent Calculation

     iteration #  1     ecut=    80.00 Ry     beta= 0.70
     Davidson diagonalization with overlap

---- Real-time Memory Report at c_bands before calling an iterative solver
             0 MiB given to the printing process from OS
             0 MiB allocation reported by mallinfo(arena+hblkhd)
             0 MiB available memory on the node where the printing process lives
------------------
     c_bands:  3 eigenvalues not converged
     c_bands:  1 eigenvalues not converged
     c_bands:  2 eigenvalues not converged
     c_bands:  1 eigenvalues not converged
     c_bands:  1 eigenvalues not converged
     c_bands:  1 eigenvalues not converged
     c_bands:  3 eigenvalues not converged
     c_bands:  1 eigenvalues not converged
     c_bands:  1 eigenvalues not converged
     c_bands:  1 eigenvalues not converged
     c_bands:  1 eigenvalues not converged
     ethr =  1.00E-06,  avg # of iterations = 19.5

     negative rho (up, down):  5.013E-06 0.000E+00


     -----------------------------------------------
     Non-local corr. energy    =       0.10449242 Ry
     -----------------------------------------------


     total cpu time spent up to now is      124.7 secs

     total energy              =     -24.08981225 Ry
     estimated scf accuracy    <       0.20034442 Ry

     iteration #  2     ecut=    80.00 Ry     beta= 0.70
     Davidson diagonalization with overlap

---- Real-time Memory Report at c_bands before calling an iterative solver
             0 MiB given to the printing process from OS
             0 MiB allocation reported by mallinfo(arena+hblkhd)
             0 MiB available memory on the node where the printing process lives
------------------
     ethr =  2.50E-03,  avg # of iterations =  2.1

     negative rho (up, down):  1.446E-06 0.000E+00


     -----------------------------------------------
     Non-local corr. energy    =       0.10393075 Ry
     -----------------------------------------------


     total cpu time spent up to now is      125.9 secs

     total energy              =     -24.12304273 Ry
     estimated scf accuracy    <       0.00293124 Ry

     iteration #  3     ecut=    80.00 Ry     beta= 0.70
     Davidson diagonalization with overlap

---- Real-time Memory Report at c_bands before calling an iterative solver
             0 MiB given to the printing process from OS
             0 MiB allocation reported by mallinfo(arena+hblkhd)
             0 MiB available memory on the node where the printing process lives
------------------
     c_bands:  1 eigenvalues not converged
     ethr =  3.66E-05,  avg # of iterations =  8.8


     -----------------------------------------------
     Non-local corr. energy    =       0.10396732 Ry
     -----------------------------------------------


     total cpu time spent up to now is      127.7 secs

     total energy              =     -24.12350381 Ry
     estimated scf accuracy    <       0.00021134 Ry

     iteration #  4     ecut=    80.00 Ry     beta= 0.70
     Davidson diagonalization with overlap

---- Real-time Memory Report at c_bands before calling an iterative solver
             0 MiB given to the printing process from OS
             0 MiB allocation reported by mallinfo(arena+hblkhd)
             0 MiB available memory on the node where the printing process lives
------------------
     ethr =  2.64E-06,  avg # of iterations =  4.9


     -----------------------------------------------
     Non-local corr. energy    =       0.10401638 Ry
     -----------------------------------------------


     total cpu time spent up to now is      129.1 secs

     total energy              =     -24.12351728 Ry
     estimated scf accuracy    <       0.00000192 Ry

     iteration #  5     ecut=    80.00 Ry     beta= 0.70
     Davidson diagonalization with overlap

---- Real-time Memory Report at c_bands before calling an iterative solver
             0 MiB given to the printing process from OS
             0 MiB allocation reported by mallinfo(arena+hblkhd)
             0 MiB available memory on the node where the printing process lives
------------------
     ethr =  2.39E-08,  avg # of iterations =  3.3


     -----------------------------------------------
     Non-local corr. energy    =       0.10401526 Ry
     -----------------------------------------------


     total cpu time spent up to now is      130.5 secs

     total energy              =     -24.12351895 Ry
     estimated scf accuracy    <       0.00000003 Ry

     iteration #  6     ecut=    80.00 Ry     beta= 0.70
     Davidson diagonalization with overlap

---- Real-time Memory Report at c_bands before calling an iterative solver
             0 MiB given to the printing process from OS
             0 MiB allocation reported by mallinfo(arena+hblkhd)
             0 MiB available memory on the node where the printing process lives
------------------
     ethr =  4.04E-10,  avg # of iterations =  2.5


     -----------------------------------------------
     Non-local corr. energy    =       0.10401686 Ry
     -----------------------------------------------


     total cpu time spent up to now is      131.8 secs

     End of self-consistent calculation

          k = 0.0000 0.0000 0.0000 (  6355 PWs)   bands (ev):

   -21.2987  -9.4309  -4.8862  -4.8862   1.1409   2.1612   3.0324   4.8366

     occupation numbers 
     1.0000   1.0000   1.0000   1.0000   0.0000   0.0000   0.0000   0.0000

          k = 0.0000 0.0956 0.0000 (  6391 PWs)   bands (ev):

   -21.1354  -9.2348  -5.5332  -5.2226   1.3630   2.3843   3.2594   5.0597

     occupation numbers 
     1.0000   1.0000   1.0000   1.0000   0.0000   0.0000   0.0000   0.0000

          k = 0.0000 0.1913 0.0000 (  6357 PWs)   bands (ev):

   -20.6472  -8.6516  -7.1630  -6.0117   2.0291   3.0518   3.9402   5.7257

     occupation numbers 
     1.0000   1.0000   1.0000   1.0000   0.0000   0.0000   0.0000   0.0000

          k = 0.0000 0.2869 0.0000 (  6329 PWs)   bands (ev):

   -19.8398  -9.2530  -7.7006  -6.8895   3.1374   4.1418   5.0737   5.4467

     occupation numbers 
     1.0000   1.0000   1.0000   1.0000   0.0000   0.0000   0.0000   0.0000

          k = 0.0000 0.3825 0.0000 (  6320 PWs)   bands (ev):

   -18.7255 -11.4482  -7.6223  -6.4320   3.0926   4.6802   5.7435   5.9797

     occupation numbers 
     1.0000   1.0000   1.0000   1.0000   0.0000   0.0000   0.0000   0.0000

          k = 0.0000 0.4781 0.0000 (  6316 PWs)   bands (ev):

   -17.3356 -13.5404  -8.0951  -5.0086   0.9650   5.7241   6.6785   7.7043

     occupation numbers 
     1.0000   1.0000   1.0000   1.0000   0.0000   0.0000   0.0000   0.0000

          k =-0.0000-0.5738 0.0000 (  6302 PWs)   bands (ev):

   -16.0823 -15.0356  -8.2575  -4.1632  -0.1317   5.6468   8.9779   9.1191

     occupation numbers 
     1.0000   1.0000   1.0000   1.0000   0.0000   0.0000   0.0000   0.0000

          k = 0.0828 0.1434 0.0000 (  6365 PWs)   bands (ev):

   -20.8096  -8.8450  -6.5630  -5.8954   1.8073   2.8298   3.7134   5.5056

     occupation numbers 
     1.0000   1.0000   1.0000   1.0000   0.0000   0.0000   0.0000   0.0000

          k = 0.0828 0.2391 0.0000 (  6326 PWs)   bands (ev):

   -20.1618  -8.2661  -8.0767  -6.8889   2.6951   3.7157   4.6213   6.2447

     occupation numbers 
     1.0000   1.0000   1.0000   1.0000   0.0000   0.0000   0.0000   0.0000

          k = 0.0828 0.3347 0.0000 (  6329 PWs)   bands (ev):

   -19.2008 -10.3307  -7.7736  -6.9605   4.0229   4.0966   5.0784   5.9805

     occupation numbers 
     1.0000   1.0000   1.0000   1.0000   0.0000   0.0000   0.0000   0.0000

          k = 0.0828 0.4303 0.0000 (  6311 PWs)   bands (ev):

   -17.9455 -12.4453  -8.4081  -5.5804   1.9113   5.7761   6.5616   6.8099

     occupation numbers 
     1.0000   1.0000   1.0000   1.0000   0.0000   0.0000   0.0000   0.0000

          k = 0.0828 0.5259 0.0000 (  6313 PWs)   bands (ev):

   -16.4736 -14.3775  -8.7366  -4.2703   0.1454   6.3777   7.9708   8.9294

     occupation numbers 
     1.0000   1.0000   1.0000   1.0000   0.0000   0.0000   0.0000   0.0000

          k = 0.1656 0.2869 0.0000 (  6319 PWs)   bands (ev):

   -19.3604  -9.5949  -8.2412  -7.1393   3.8032   4.5624   4.8148   5.7564

     occupation numbers 
     1.0000   1.0000   1.0000   1.0000   0.0000   0.0000   0.0000   0.0000

          k = 0.1656 0.3825 0.0000 (  6339 PWs)   bands (ev):

   -18.2569 -11.3152  -9.2943  -5.8859   2.6216   5.3460   6.3264   7.3424

     occupation numbers 
     1.0000   1.0000   1.0000   1.0000   0.0000   0.0000   0.0000   0.0000

          k = 0.1656 0.4781 0.0000 (  6323 PWs)   bands (ev):

   -16.8871 -13.2165  -9.8704  -4.4587   0.7130   7.3029   8.1655   8.2670

     occupation numbers 
     1.0000   1.0000   1.0000   1.0000   0.0000   0.0000   0.0000   0.0000

          k = 0.1656 0.5738 0.0000 (  6318 PWs)   bands (ev):

   -15.6627 -14.6403 -10.0554  -3.5653  -0.3545   8.1651   9.5458   9.5662

     occupation numbers 
     1.0000   1.0000   1.0000   1.0000   0.0000   0.0000   0.0000   0.0000

          k = 0.2484 0.4303 0.0000 (  6347 PWs)   bands (ev):

   -17.0340 -12.3510 -10.7664  -4.5430   1.0123   7.0885   7.8698   9.1510

     occupation numbers 
     1.0000   1.0000   1.0000   1.0000   0.0000   0.0000   0.0000   0.0000

          k = 0.2484 0.5259 0.0000 (  6320 PWs)   bands (ev):

   -15.6194 -13.7637 -11.4723  -3.1569  -0.5057   8.8792   9.1858  10.3762

     occupation numbers 
     1.0000   1.0000   1.0000   1.0000   0.0000   0.0000   0.0000   0.0000

          k = 0.3313 0.5738 0.0000 (  6324 PWs)   bands (ev):

   -14.4095 -14.4095 -12.3563  -1.8016  -1.8016   8.6725  10.8559  10.8559

     occupation numbers 
     1.0000   1.0000   1.0000   0.5000   0.5000   0.0000   0.0000   0.0000

     the Fermi energy is    -1.7922 ev

!    total energy              =     -24.12351896 Ry
     estimated scf accuracy    <          1.5E-09 Ry
     smearing contrib. (-TS)   =      -0.00004558 Ry
     internal energy E=F+TS    =     -24.12347338 Ry

     The total energy is F=E-TS. E is the sum of the following terms:
     one-electron contribution =    -152.87787843 Ry
     hartree contribution      =      77.90713542 Ry
     xc contribution           =      -8.59930537 Ry
     ewald contribution        =      59.44657500 Ry

     convergence has been achieved in   6 iterations


     -----------------------------------------------
     Non-local corr. energy    =       0.10401686 Ry
     -----------------------------------------------


     Forces acting on atoms (cartesian axes, Ry/au):

     atom    1 type  1   force =     0.00000000    0.00000000    0.00000000
     atom    2 type  1   force =    -0.00000000   -0.00000000    0.00000000
     The non-local contrib.  to forces
     atom    1 type  1   force =    -0.00000000   -0.00000000   -0.00000000
     atom    2 type  1   force =     0.00000000    0.00000000    0.00000000
     The ionic contribution  to forces
     atom    1 type  1   force =    -0.00000001    0.00000000   -0.00000000
     atom    2 type  1   force =     0.00000001   -0.00000000   -0.00000000
     The local contribution  to forces
     atom    1 type  1   force =     0.00000000   -0.00000000   -0.00000000
     atom    2 type  1   force =     0.00000001   -0.00000000   -0.00000000
     The core correction contribution to forces
     atom    1 type  1   force =     0.00000000   -0.00000000   -0.00000000
     atom    2 type  1   force =    -0.00000000    0.00000000    0.00000000
     The Hubbard contrib.    to forces
     atom    1 type  1   force =     0.00000000    0.00000000    0.00000000
     atom    2 type  1   force =     0.00000000    0.00000000    0.00000000
     The SCF correction term to forces
     atom    1 type  1   force =    -0.00000000    0.00000000   -0.00000000
     atom    2 type  1   force =    -0.00000000    0.00000000   -0.00000000

     Total force =     0.000000     Total SCF correction =     0.000000


     Computing stress (Cartesian axis) and pressure



     -----------------------------------------------
     Non-local corr. energy    =       0.10401686 Ry
     -----------------------------------------------

          total   stress  (Ry/bohr**3)                   (kbar)     P=       -0.11
   0.00000074  -0.00000000   0.00000000            0.11       -0.00        0.00
  -0.00000000   0.00000074   0.00000000           -0.00        0.11        0.00
   0.00000000   0.00000000  -0.00000363            0.00        0.00       -0.53

     kinetic stress (kbar)   3038.26      0.00      0.00
                                0.00   3038.26      0.00
                               -0.00     -0.00   3342.86

     local   stress (kbar) -45904.50      0.00     -0.00
                                0.00 -45904.50     -0.00
                               -0.00     -0.00  46809.78

     nonloc. stress (kbar)   -309.75      0.00      0.00
                                0.00   -309.75      0.00
                                0.00      0.00   -258.83

     hartree stress (kbar)  21640.98     -0.00      0.00
                               -0.00  21640.98      0.00
                                0.00      0.00 -21406.91

     exc-cor stress (kbar)   -241.60     -0.00     -0.00
                               -0.00   -241.60     -0.00
                               -0.00     -0.00   -283.06

     corecor stress (kbar)   -460.78      0.00      0.00
                                0.00   -460.78      0.00
                                0.00      0.00   -448.17

     ewald   stress (kbar)  22235.63     -0.00     -0.00
                               -0.00  22235.63     -0.00
                               -0.00     -0.00 -27779.63

     hubbard stress (kbar)      0.00      0.00      0.00
                                0.00      0.00      0.00
                                0.00      0.00      0.00

     DFT-D   stress (kbar)      0.00      0.00      0.00
                                0.00      0.00      0.00
                                0.00      0.00      0.00

     XDM     stress (kbar)      0.00      0.00      0.00
                                0.00      0.00      0.00
                                0.00      0.00      0.00

     dft-nl  stress (kbar)      1.87      0.00     -0.00
                                0.00      1.87      0.00
                               -0.00      0.00     23.42

     TS-vdW  stress (kbar)      0.00      0.00      0.00
                                0.00      0.00      0.00
                                0.00      0.00      0.00

     MDB     stress (kbar)      0.00      0.00      0.00
                                0.00      0.00      0.00
                                0.00      0.00      0.00

     3D-RISM stress (kbar)      0.00      0.00      0.00
                                0.00      0.00      0.00
                                0.00      0.00      0.00


     Writing all to output data dir ./tmp/graphene_PBE-vdW.save/

     init_run     :     58.68s CPU     58.75s WALL (       2 calls)
     electrons    :     50.90s CPU     48.39s WALL (       5 calls)
     update_pot   :      5.88s CPU      5.97s WALL (       3 calls)
     forces       :      6.29s CPU      6.42s WALL (       5 calls)
     stress       :     15.85s CPU     16.78s WALL (       5 calls)

     Called by init_run:
     wfcinit      :      0.78s CPU      0.76s WALL (       2 calls)
     wfcinit:atom :      0.02s CPU      0.02s WALL (      38 calls)
     wfcinit:wfcr :      0.68s CPU      0.66s WALL (      38 calls)
     potinit      :     55.77s CPU     55.85s WALL (       2 calls)
     hinit0       :      2.08s CPU      2.08s WALL (       2 calls)

     Called by electrons:
     c_bands      :     37.75s CPU     34.30s WALL (      31 calls)
     sum_band     :      4.82s CPU      4.85s WALL (      31 calls)
     v_of_rho     :     63.83s CPU     64.79s WALL (      35 calls)
     v_h          :      0.07s CPU      0.07s WALL (      35 calls)
     v_xc         :     66.39s CPU     67.58s WALL (      45 calls)
     mix_rho      :      0.17s CPU      0.26s WALL (      31 calls)
     vdW_kernel   :     54.40s CPU     54.43s WALL (       1 calls)

     Called by c_bands:
     init_us_2    :      0.85s CPU      0.85s WALL (    1406 calls)
     init_us_2:cp :      0.85s CPU      0.85s WALL (    1406 calls)
     cegterg      :     36.68s CPU     33.20s WALL (     589 calls)

     Called by sum_band:
     sum_band:wei :      0.00s CPU      0.00s WALL (      31 calls)
     sum_band:loo :      4.64s CPU      4.66s WALL (      31 calls)
     sum_band:buf :      0.04s CPU      0.04s WALL (     589 calls)
     sum_band:ini :      0.35s CPU      0.35s WALL (     589 calls)

     Called by *egterg:
     cdiaghg      :      0.21s CPU      0.21s WALL (    3091 calls)
     cegterg:over :      1.39s CPU      1.41s WALL (    2578 calls)
     cegterg:upda :      1.96s CPU      0.89s WALL (    2578 calls)
     cegterg:last :      2.16s CPU      0.70s WALL (    1559 calls)
     h_psi        :     30.82s CPU     29.78s WALL (    3205 calls)
     g_psi        :      0.30s CPU      0.30s WALL (    2578 calls)

     Called by h_psi:
     h_psi:calbec :      1.02s CPU      1.03s WALL (    3205 calls)
     vloc_psi     :     27.78s CPU     27.94s WALL (    3205 calls)
     add_vuspsi   :      1.90s CPU      0.67s WALL (    3205 calls)

     General routines
     calbec       :      1.25s CPU      1.26s WALL (    3680 calls)
     fft          :      4.33s CPU      4.34s WALL (    2944 calls)
     ffts         :      0.04s CPU      0.04s WALL (      31 calls)
     fftw         :     28.61s CPU     28.72s WALL (   35268 calls)

     Parallel routines

     PWSCF        :   2m17.65s CPU   2m16.42s WALL


   This run was terminated on:  12:38: 4   3Apr2024            

=------------------------------------------------------------------------------=
   JOB DONE.
=------------------------------------------------------------------------------=
