
     Program PWSCF v.7.2 starts on 16Apr2024 at 11:37:38 

     This program is part of the open-source Quantum ESPRESSO suite
     for quantum simulation of materials; please cite
         "P. Giannozzi et al., J. Phys.:Condens. Matter 21 395502 (2009);
         "P. Giannozzi et al., J. Phys.:Condens. Matter 29 465901 (2017);
         "P. Giannozzi et al., J. Chem. Phys. 152 154105 (2020);
          URL http://www.quantum-espresso.org", 
     in publications or presentations arising from this work. More details at
     http://www.quantum-espresso.org/quote

     Parallel version (MPI & OpenMP), running on       1 processor cores
     Number of MPI processes:                 1
     Threads/MPI process:                     1

     MPI processes distributed on     1 nodes
     0 MiB available memory on the printing compute node when the environment starts

     Waiting for input...
     Reading input from standard input

     Current dimensions of program PWSCF are:
     Max number of different atomic species (ntypx) = 10
     Max number of k-points (npk) =  40000
     Max angular momentum in pseudopotentials (lmaxx) =  4

     Subspace diagonalization in iterative solution of the eigenvalue problem:
     a serial algorithm will be used


     G-vector sticks info
     --------------------
     sticks:   dense  smooth     PW     G-vecs:    dense   smooth      PW
     Sum         361     361    109                21811    21811    3771

     Using Slab Decomposition



     bravais-lattice index     =            4
     lattice parameter (alat)  =       4.6350  a.u.
     unit-cell volume          =     344.9370 (a.u.)^3
     number of atoms/cell      =            2
     number of atomic types    =            2
     number of electrons       =         8.00
     number of Kohn-Sham states=            8
     kinetic-energy cutoff     =      60.0000  Ry
     charge density cutoff     =     240.0000  Ry
     scf convergence threshold =      1.0E-06
     mixing beta               =       0.7000
     number of iterations used =            8  plain     mixing
     Exchange-correlation= PBE
                           (   1   4   3   4   0   0   0)

     celldm(1)=   4.635000  celldm(2)=   0.000000  celldm(3)=   4.000000
     celldm(4)=   0.000000  celldm(5)=   0.000000  celldm(6)=   0.000000

     crystal axes: (cart. coord. in units of alat)
               a(1) = (   1.000000   0.000000   0.000000 )  
               a(2) = (  -0.500000   0.866025   0.000000 )  
               a(3) = (   0.000000   0.000000   4.000000 )  

     reciprocal axes: (cart. coord. in units 2 pi/alat)
               b(1) = (  1.000000  0.577350 -0.000000 )  
               b(2) = (  0.000000  1.154701  0.000000 )  
               b(3) = (  0.000000 -0.000000  0.250000 )  


     PseudoPot. # 1 for N  read from file:
     ../../../../Pseudo/PBE/N.upf
     MD5 check sum: d34365f73bb0e2ee98afc20ec3e87676
     Pseudo is Norm-conserving + core correction, Zval =  5.0
     Generated using ONCVPSP code by D. R. Hamann
     Using radial grid of 1058 points,  4 beta functions with: 
                l(1) =   0
                l(2) =   0
                l(3) =   1
                l(4) =   1

     PseudoPot. # 2 for B  read from file:
     ../../../../Pseudo/PBE/B.upf
     MD5 check sum: 72f82fc31bc892420d0cab7e25c88ab8
     Pseudo is Norm-conserving + core correction, Zval =  3.0
     Generated using ONCVPSP code by D. R. Hamann
     Using radial grid of 1534 points,  4 beta functions with: 
                l(1) =   0
                l(2) =   0
                l(3) =   1
                l(4) =   1

     atomic species   valence    mass     pseudopotential
        N              5.00    14.00670     N ( 1.00)
        B              3.00    10.80100     B ( 1.00)

     12 Sym. Ops. (no inversion) found


                                    s                        frac. trans.

      isym =  1     identity                                     

 cryst.   s( 1) = (     1          0          0      )
                  (     0          1          0      )
                  (     0          0          1      )

 cart.    s( 1) = (  1.0000000  0.0000000  0.0000000 )
                  (  0.0000000  1.0000000  0.0000000 )
                  (  0.0000000  0.0000000  1.0000000 )


      isym =  2     180 deg rotation - cart. axis [0,1,0]        

 cryst.   s( 2) = (    -1          0          0      )
                  (     1          1          0      )
                  (     0          0         -1      )

 cart.    s( 2) = ( -1.0000000  0.0000000  0.0000000 )
                  (  0.0000000  1.0000000  0.0000000 )
                  (  0.0000000  0.0000000 -1.0000000 )


      isym =  3     120 deg rotation - cryst. axis [0,0,1]       

 cryst.   s( 3) = (     0          1          0      )
                  (    -1         -1          0      )
                  (     0          0          1      )

 cart.    s( 3) = ( -0.5000000 -0.8660254  0.0000000 )
                  (  0.8660254 -0.5000000  0.0000000 )
                  (  0.0000000  0.0000000  1.0000000 )


      isym =  4     120 deg rotation - cryst. axis [0,0,-1]      

 cryst.   s( 4) = (    -1         -1          0      )
                  (     1          0          0      )
                  (     0          0          1      )

 cart.    s( 4) = ( -0.5000000  0.8660254  0.0000000 )
                  ( -0.8660254 -0.5000000  0.0000000 )
                  (  0.0000000  0.0000000  1.0000000 )


      isym =  5     180 deg rotation - cryst. axis [1,-1,0]      

 cryst.   s( 5) = (     0         -1          0      )
                  (    -1          0          0      )
                  (     0          0         -1      )

 cart.    s( 5) = (  0.5000000 -0.8660254  0.0000000 )
                  ( -0.8660254 -0.5000000  0.0000000 )
                  (  0.0000000  0.0000000 -1.0000000 )


      isym =  6     180 deg rotation - cryst. axis [2,1,0]       

 cryst.   s( 6) = (     1          1          0      )
                  (     0         -1          0      )
                  (     0          0         -1      )

 cart.    s( 6) = (  0.5000000  0.8660254  0.0000000 )
                  (  0.8660254 -0.5000000  0.0000000 )
                  (  0.0000000  0.0000000 -1.0000000 )


      isym =  7     inv. 180 deg rotation - cart. axis [0,0,1]   

 cryst.   s( 7) = (     1          0          0      )
                  (     0          1          0      )
                  (     0          0         -1      )

 cart.    s( 7) = (  1.0000000  0.0000000  0.0000000 )
                  (  0.0000000  1.0000000  0.0000000 )
                  (  0.0000000  0.0000000 -1.0000000 )


      isym =  8     inv. 180 deg rotation - cart. axis [1,0,0]   

 cryst.   s( 8) = (    -1          0          0      )
                  (     1          1          0      )
                  (     0          0          1      )

 cart.    s( 8) = ( -1.0000000  0.0000000  0.0000000 )
                  (  0.0000000  1.0000000  0.0000000 )
                  (  0.0000000  0.0000000  1.0000000 )


      isym =  9     inv.  60 deg rotation - cryst. axis [0,0,1]  

 cryst.   s( 9) = (    -1         -1          0      )
                  (     1          0          0      )
                  (     0          0         -1      )

 cart.    s( 9) = ( -0.5000000  0.8660254  0.0000000 )
                  ( -0.8660254 -0.5000000  0.0000000 )
                  (  0.0000000  0.0000000 -1.0000000 )


      isym = 10     inv.  60 deg rotation - cryst. axis [0,0,-1] 

 cryst.   s(10) = (     0          1          0      )
                  (    -1         -1          0      )
                  (     0          0         -1      )

 cart.    s(10) = ( -0.5000000 -0.8660254  0.0000000 )
                  (  0.8660254 -0.5000000  0.0000000 )
                  (  0.0000000  0.0000000 -1.0000000 )


      isym = 11     inv. 180 deg rotation - cryst. axis [0,1,0]  

 cryst.   s(11) = (     1          1          0      )
                  (     0         -1          0      )
                  (     0          0          1      )

 cart.    s(11) = (  0.5000000  0.8660254  0.0000000 )
                  (  0.8660254 -0.5000000  0.0000000 )
                  (  0.0000000  0.0000000  1.0000000 )


      isym = 12     inv. 180 deg rotation - cryst. axis [1,1,0]  

 cryst.   s(12) = (     0         -1          0      )
                  (    -1          0          0      )
                  (     0          0          1      )

 cart.    s(12) = (  0.5000000 -0.8660254  0.0000000 )
                  ( -0.8660254 -0.5000000  0.0000000 )
                  (  0.0000000  0.0000000  1.0000000 )


     point group D_3h (-62m)
     there are  6 classes
     the character table:

       E     2C3   3C2   s_h   2S3   3s_v 
A'_1   1.00  1.00  1.00  1.00  1.00  1.00
A'_2   1.00  1.00 -1.00  1.00  1.00 -1.00
E'     2.00 -1.00  0.00  2.00 -1.00  0.00
A''1   1.00  1.00  1.00 -1.00 -1.00 -1.00
A''2   1.00  1.00 -1.00 -1.00 -1.00  1.00
E''    2.00 -1.00  0.00 -2.00  1.00  0.00

     the symmetry operations in each class and the name of the first element:

     E        1
          identity                                               
     2C3      3    4
          120 deg rotation - cryst. axis [0,0,1]                 
     3C2      2    6    5
          180 deg rotation - cart. axis [0,1,0]                  
     s_h      7
          inv. 180 deg rotation - cart. axis [0,0,1]             
     2S3      9   10
          inv.  60 deg rotation - cryst. axis [0,0,1]            
     3s_v     8   11   12
          inv. 180 deg rotation - cart. axis [1,0,0]             

   Cartesian axes

     site n.     atom                  positions (alat units)
         1           B   tau(   1) = (   0.0000000   0.0000000   0.0000000  )
         2           N   tau(   2) = (  -0.0000000   0.5773503   0.0000000  )

   Crystallographic axes

     site n.     atom                  positions (cryst. coord.)
         1           B   tau(   1) = (  0.0000000  0.0000000  0.0000000  )
         2           N   tau(   2) = (  0.3333333  0.6666667  0.0000000  )

     number of k points=    19
                       cart. coord. in units 2pi/alat
        k(    1) = (   0.0000000   0.0000000   0.0000000), wk =   0.0138889
        k(    2) = (   0.0000000   0.0962250   0.0000000), wk =   0.0833333
        k(    3) = (   0.0000000   0.1924501   0.0000000), wk =   0.0833333
        k(    4) = (   0.0000000   0.2886751   0.0000000), wk =   0.0833333
        k(    5) = (   0.0000000   0.3849002   0.0000000), wk =   0.0833333
        k(    6) = (   0.0000000   0.4811252   0.0000000), wk =   0.0833333
        k(    7) = (   0.0000000  -0.5773503   0.0000000), wk =   0.0416667
        k(    8) = (   0.0833333   0.1443376   0.0000000), wk =   0.0833333
        k(    9) = (   0.0833333   0.2405626   0.0000000), wk =   0.1666667
        k(   10) = (   0.0833333   0.3367877   0.0000000), wk =   0.1666667
        k(   11) = (   0.0833333   0.4330127   0.0000000), wk =   0.1666667
        k(   12) = (   0.0833333   0.5292377   0.0000000), wk =   0.1666667
        k(   13) = (   0.1666667   0.2886751   0.0000000), wk =   0.0833333
        k(   14) = (   0.1666667   0.3849002   0.0000000), wk =   0.1666667
        k(   15) = (   0.1666667   0.4811252   0.0000000), wk =   0.1666667
        k(   16) = (   0.1666667   0.5773503   0.0000000), wk =   0.0833333
        k(   17) = (   0.2500000   0.4330127   0.0000000), wk =   0.0833333
        k(   18) = (   0.2500000   0.5292377   0.0000000), wk =   0.1666667
        k(   19) = (   0.3333333   0.5773503   0.0000000), wk =   0.0277778

                       cryst. coord.
        k(    1) = (   0.0000000   0.0000000   0.0000000), wk =   0.0138889
        k(    2) = (   0.0000000   0.0833333   0.0000000), wk =   0.0833333
        k(    3) = (   0.0000000   0.1666667   0.0000000), wk =   0.0833333
        k(    4) = (   0.0000000   0.2500000   0.0000000), wk =   0.0833333
        k(    5) = (   0.0000000   0.3333333   0.0000000), wk =   0.0833333
        k(    6) = (   0.0000000   0.4166667   0.0000000), wk =   0.0833333
        k(    7) = (   0.0000000  -0.5000000   0.0000000), wk =   0.0416667
        k(    8) = (   0.0833333   0.0833333   0.0000000), wk =   0.0833333
        k(    9) = (   0.0833333   0.1666667   0.0000000), wk =   0.1666667
        k(   10) = (   0.0833333   0.2500000   0.0000000), wk =   0.1666667
        k(   11) = (   0.0833333   0.3333333   0.0000000), wk =   0.1666667
        k(   12) = (   0.0833333   0.4166667   0.0000000), wk =   0.1666667
        k(   13) = (   0.1666667   0.1666667   0.0000000), wk =   0.0833333
        k(   14) = (   0.1666667   0.2500000   0.0000000), wk =   0.1666667
        k(   15) = (   0.1666667   0.3333333   0.0000000), wk =   0.1666667
        k(   16) = (   0.1666667   0.4166667   0.0000000), wk =   0.0833333
        k(   17) = (   0.2500000   0.2500000   0.0000000), wk =   0.0833333
        k(   18) = (   0.2500000   0.3333333   0.0000000), wk =   0.1666667
        k(   19) = (   0.3333333   0.3333333   0.0000000), wk =   0.0277778

     Dense  grid:    21811 G-vectors     FFT dimensions: (  24,  24,  96)

     Dynamical RAM for                 wfc:       0.33 MB

     Dynamical RAM for     wfc (w. buffer):       6.61 MB

     Dynamical RAM for           str. fact:       0.67 MB

     Dynamical RAM for           local pot:       0.00 MB

     Dynamical RAM for          nlocal pot:       0.66 MB

     Dynamical RAM for                qrad:       0.71 MB

     Dynamical RAM for          rho,v,vnew:       2.26 MB

     Dynamical RAM for               rhoin:       0.75 MB

     Dynamical RAM for            rho*nmix:       5.32 MB

     Dynamical RAM for           G-vectors:       1.41 MB

     Dynamical RAM for          h,s,v(r/c):       0.01 MB

     Dynamical RAM for          <psi|beta>:       0.00 MB

     Dynamical RAM for                 psi:       0.66 MB

     Dynamical RAM for                hpsi:       0.66 MB

     Dynamical RAM for      wfcinit/wfcrot:       0.66 MB

     Estimated static dynamical RAM per process >      16.19 MB

     Estimated max dynamical RAM per process >      22.85 MB

     Initial potential from superposition of free atoms

     starting charge       7.9997, renormalised to       8.0000

     negative rho (up, down):  2.604E-06 0.000E+00
     Starting wfcs are    8 randomized atomic wfcs

     total cpu time spent up to now is        0.9 secs

     Self-consistent Calculation

     iteration #  1     ecut=    60.00 Ry     beta= 0.70
     Davidson diagonalization with overlap

---- Real-time Memory Report at c_bands before calling an iterative solver
             0 MiB given to the printing process from OS
             0 MiB allocation reported by mallinfo(arena+hblkhd)
             0 MiB available memory on the node where the printing process lives
------------------
     ethr =  1.00E-02,  avg # of iterations =  6.9

     negative rho (up, down):  2.161E-07 0.000E+00

     total cpu time spent up to now is        1.6 secs

     total energy              =     -26.67855279 Ry
     estimated scf accuracy    <       0.41760548 Ry

     iteration #  2     ecut=    60.00 Ry     beta= 0.70
     Davidson diagonalization with overlap

---- Real-time Memory Report at c_bands before calling an iterative solver
             0 MiB given to the printing process from OS
             0 MiB allocation reported by mallinfo(arena+hblkhd)
             0 MiB available memory on the node where the printing process lives
------------------
     ethr =  5.22E-03,  avg # of iterations =  2.5

     negative rho (up, down):  4.169E-08 0.000E+00

     total cpu time spent up to now is        2.0 secs

     total energy              =     -26.77601893 Ry
     estimated scf accuracy    <       0.15287602 Ry

     iteration #  3     ecut=    60.00 Ry     beta= 0.70
     Davidson diagonalization with overlap

---- Real-time Memory Report at c_bands before calling an iterative solver
             0 MiB given to the printing process from OS
             0 MiB allocation reported by mallinfo(arena+hblkhd)
             0 MiB available memory on the node where the printing process lives
------------------
     ethr =  1.91E-03,  avg # of iterations =  2.8

     total cpu time spent up to now is        2.4 secs

     total energy              =     -26.80535048 Ry
     estimated scf accuracy    <       0.00162645 Ry

     iteration #  4     ecut=    60.00 Ry     beta= 0.70
     Davidson diagonalization with overlap

---- Real-time Memory Report at c_bands before calling an iterative solver
             0 MiB given to the printing process from OS
             0 MiB allocation reported by mallinfo(arena+hblkhd)
             0 MiB available memory on the node where the printing process lives
------------------
     ethr =  2.03E-05,  avg # of iterations =  8.8

     total cpu time spent up to now is        3.2 secs

     total energy              =     -26.80654721 Ry
     estimated scf accuracy    <       0.00079762 Ry

     iteration #  5     ecut=    60.00 Ry     beta= 0.70
     Davidson diagonalization with overlap

---- Real-time Memory Report at c_bands before calling an iterative solver
             0 MiB given to the printing process from OS
             0 MiB allocation reported by mallinfo(arena+hblkhd)
             0 MiB available memory on the node where the printing process lives
------------------
     ethr =  9.97E-06,  avg # of iterations =  2.0

     total cpu time spent up to now is        3.6 secs

     total energy              =     -26.80671137 Ry
     estimated scf accuracy    <       0.00000911 Ry

     iteration #  6     ecut=    60.00 Ry     beta= 0.70
     Davidson diagonalization with overlap

---- Real-time Memory Report at c_bands before calling an iterative solver
             0 MiB given to the printing process from OS
             0 MiB allocation reported by mallinfo(arena+hblkhd)
             0 MiB available memory on the node where the printing process lives
------------------
     ethr =  1.14E-07,  avg # of iterations =  5.1

     total cpu time spent up to now is        4.1 secs

     total energy              =     -26.80671374 Ry
     estimated scf accuracy    <       0.00000777 Ry

     iteration #  7     ecut=    60.00 Ry     beta= 0.70
     Davidson diagonalization with overlap

---- Real-time Memory Report at c_bands before calling an iterative solver
             0 MiB given to the printing process from OS
             0 MiB allocation reported by mallinfo(arena+hblkhd)
             0 MiB available memory on the node where the printing process lives
------------------
     ethr =  9.71E-08,  avg # of iterations =  2.3

     total cpu time spent up to now is        4.5 secs

     End of self-consistent calculation

          k = 0.0000 0.0000 0.0000 (  2697 PWs)   bands (ev):

   -20.0860  -7.6283  -3.3290  -3.3290   2.4426   4.1365   5.2703  10.1772

     occupation numbers 
     1.0000   1.0000   1.0000   1.0000   0.0000   0.0000   0.0000   0.0000

          k = 0.0000 0.0962 0.0000 (  2708 PWs)   bands (ev):

   -19.9463  -7.4387  -3.9037  -3.6059   2.6786   4.3461   5.5059   9.5770

     occupation numbers 
     1.0000   1.0000   1.0000   1.0000   0.0000   0.0000   0.0000   0.0000

          k = 0.0000 0.1925 0.0000 (  2708 PWs)   bands (ev):

   -19.5342  -6.8784  -5.3570  -4.2783   3.3676   4.9536   6.1849   9.2426

     occupation numbers 
     1.0000   1.0000   1.0000   1.0000   0.0000   0.0000   0.0000   0.0000

          k = 0.0000 0.2887 0.0000 (  2720 PWs)   bands (ev):

   -18.8763  -7.2101  -5.9792  -5.0562   4.4867   5.7720   7.2508   8.1602

     occupation numbers 
     1.0000   1.0000   1.0000   1.0000   0.0000   0.0000   0.0000   0.0000

          k = 0.0000 0.3849 0.0000 (  2720 PWs)   bands (ev):

   -18.0407  -9.0684  -5.7224  -4.8188   5.3054   6.0063   8.2141   8.4746

     occupation numbers 
     1.0000   1.0000   1.0000   1.0000   0.0000   0.0000   0.0000   0.0000

          k = 0.0000 0.4811 0.0000 (  2720 PWs)   bands (ev):

   -17.2084 -10.5714  -6.1585  -3.6225   3.7050   7.7221   9.1603   9.9152

     occupation numbers 
     1.0000   1.0000   1.0000   1.0000   0.0000   0.0000   0.0000   0.0000

          k = 0.0000-0.5774 0.0000 (  2744 PWs)   bands (ev):

   -16.8097 -11.2028  -6.3098  -3.0190   2.9063   8.3967  10.5987  11.0321

     occupation numbers 
     1.0000   1.0000   1.0000   1.0000   0.0000   0.0000   0.0000   0.0000

          k = 0.0833 0.1443 0.0000 (  2713 PWs)   bands (ev):

   -19.6703  -7.0637  -4.8464  -4.1517   3.1416   4.7559   5.9662   9.4123

     occupation numbers 
     1.0000   1.0000   1.0000   1.0000   0.0000   0.0000   0.0000   0.0000

          k = 0.0833 0.2406 0.0000 (  2707 PWs)   bands (ev):

   -19.1338  -6.3860  -6.3322  -4.9895   4.0493   5.5013   6.8578   8.6186

     occupation numbers 
     1.0000   1.0000   1.0000   1.0000   0.0000   0.0000   0.0000   0.0000

          k = 0.0833 0.3368 0.0000 (  2707 PWs)   bands (ev):

   -18.3803  -8.1772  -5.7787  -5.2943   5.3824   5.8477   7.8977   8.1124

     occupation numbers 
     1.0000   1.0000   1.0000   1.0000   0.0000   0.0000   0.0000   0.0000

          k = 0.0833 0.4330 0.0000 (  2706 PWs)   bands (ev):

   -17.5207  -9.8484  -6.3609  -4.0818   4.4692   7.0916   9.1053   9.3090

     occupation numbers 
     1.0000   1.0000   1.0000   1.0000   0.0000   0.0000   0.0000   0.0000

          k = 0.0833 0.5292 0.0000 (  2723 PWs)   bands (ev):

   -16.8450 -10.9619  -6.6662  -3.0809   3.1457   8.7118  10.0467  11.0227

     occupation numbers 
     1.0000   1.0000   1.0000   1.0000   0.0000   0.0000   0.0000   0.0000

          k = 0.1667 0.2887 0.0000 (  2700 PWs)   bands (ev):

   -18.4975  -7.6502  -6.0557  -5.4576   5.1780   5.9723   7.9263   7.9745

     occupation numbers 
     1.0000   1.0000   1.0000   1.0000   0.0000   0.0000   0.0000   0.0000

          k = 0.1667 0.3849 0.0000 (  2702 PWs)   bands (ev):

   -17.6969  -9.0786  -6.9553  -4.3386   5.0583   6.7304   8.7053   9.4608

     occupation numbers 
     1.0000   1.0000   1.0000   1.0000   0.0000   0.0000   0.0000   0.0000

          k = 0.1667 0.4811 0.0000 (  2701 PWs)   bands (ev):

   -16.9125 -10.3491  -7.4941  -3.1977   3.6607   8.6418  10.3268  10.8153

     occupation numbers 
     1.0000   1.0000   1.0000   1.0000   0.0000   0.0000   0.0000   0.0000

          k = 0.1667 0.5774 0.0000 (  2716 PWs)   bands (ev):

   -16.5444 -10.8982  -7.6719  -2.6294   2.9715  10.1403  11.2217  11.4815

     occupation numbers 
     1.0000   1.0000   1.0000   1.0000   0.0000   0.0000   0.0000   0.0000

          k = 0.2500 0.4330 0.0000 (  2712 PWs)   bands (ev):

   -16.9451  -9.8799  -8.0645  -3.2533   3.9426   8.4908  10.0525  11.1709

     occupation numbers 
     1.0000   1.0000   1.0000   1.0000   0.0000   0.0000   0.0000   0.0000

          k = 0.2500 0.5292 0.0000 (  2688 PWs)   bands (ev):

   -16.3866 -10.4685  -8.6729  -2.3956   3.0601  10.5338  10.8462  12.3008

     occupation numbers 
     1.0000   1.0000   1.0000   1.0000   0.0000   0.0000   0.0000   0.0000

          k = 0.3333 0.5774 0.0000 (  2688 PWs)   bands (ev):

   -16.1711 -10.3410  -9.2985  -2.0490   2.8240  10.5897  11.8308  12.9332

     occupation numbers 
     1.0000   1.0000   1.0000   1.0000   0.0000   0.0000   0.0000   0.0000

     highest occupied, lowest unoccupied level (ev):    -2.0490    2.4426

!    total energy              =     -26.80671448 Ry
     estimated scf accuracy    <       0.00000029 Ry

     The total energy is the sum of the following terms:
     one-electron contribution =     -92.33236762 Ry
     hartree contribution      =      48.37529184 Ry
     xc contribution           =      -8.74653841 Ry
     ewald contribution        =      25.89689971 Ry

     convergence has been achieved in   7 iterations

     Forces acting on atoms (cartesian axes, Ry/au):

     atom    1 type  2   force =     0.00000000    0.00000000    0.00000000
     atom    2 type  1   force =     0.00000000    0.00000000    0.00000000
     The non-local contrib.  to forces
     atom    1 type  2   force =     0.00000000    0.00000000    0.00000000
     atom    2 type  1   force =     0.00000000    0.00000000    0.00000000
     The ionic contribution  to forces
     atom    1 type  2   force =    -0.00000001    0.00000000   -0.00000000
     atom    2 type  1   force =     0.00000001   -0.00000000   -0.00000000
     The local contribution  to forces
     atom    1 type  2   force =     0.00000000   -0.00000000   -0.00000000
     atom    2 type  1   force =     0.00000003   -0.00000002   -0.00000000
     The core correction contribution to forces
     atom    1 type  2   force =    -0.00000000    0.00000000   -0.00000000
     atom    2 type  1   force =    -0.00000000    0.00000000   -0.00000000
     The Hubbard contrib.    to forces
     atom    1 type  2   force =     0.00000000    0.00000000    0.00000000
     atom    2 type  1   force =     0.00000000    0.00000000    0.00000000
     The SCF correction term to forces
     atom    1 type  2   force =     0.00000000   -0.00000000   -0.00000000
     atom    2 type  1   force =     0.00000000   -0.00000000    0.00000000

     Total force =     0.000000     Total SCF correction =     0.000000


     Computing stress (Cartesian axis) and pressure

          total   stress  (Ry/bohr**3)                   (kbar)     P=       46.17
   0.00052791   0.00000000   0.00000000           77.66        0.00        0.00
   0.00000000   0.00052791   0.00000000            0.00       77.66        0.00
   0.00000000   0.00000000  -0.00011419            0.00        0.00      -16.80

     kinetic stress (kbar)   5265.09      0.00      0.00
                                0.00   5265.09      0.00
                                0.00      0.00   5685.98

     local   stress (kbar) -42738.81      0.00      0.00
                                0.00 -42738.81     -0.00
                                0.00     -0.00  43675.59

     nonloc. stress (kbar)   -886.66      0.00     -0.00
                                0.00   -886.66     -0.00
                               -0.00     -0.00   -845.89

     hartree stress (kbar)  19775.99     -0.00      0.00
                               -0.00  19775.99      0.00
                                0.00      0.00 -18921.39

     exc-cor stress (kbar)   -523.48     -0.00      0.00
                               -0.00   -523.48     -0.00
                                0.00     -0.00   -563.01

     corecor stress (kbar)   -577.77      0.00     -0.00
                                0.00   -577.77     -0.00
                               -0.00     -0.00   -565.71

     ewald   stress (kbar)  19763.30     -0.00     -0.00
                               -0.00  19763.30     -0.00
                               -0.00     -0.00 -28482.36

     hubbard stress (kbar)      0.00      0.00      0.00
                                0.00      0.00      0.00
                                0.00      0.00      0.00

     DFT-D   stress (kbar)      0.00      0.00      0.00
                                0.00      0.00      0.00
                                0.00      0.00      0.00

     XDM     stress (kbar)      0.00      0.00      0.00
                                0.00      0.00      0.00
                                0.00      0.00      0.00

     dft-nl  stress (kbar)      0.00      0.00      0.00
                                0.00      0.00      0.00
                                0.00      0.00      0.00

     TS-vdW  stress (kbar)      0.00      0.00      0.00
                                0.00      0.00      0.00
                                0.00      0.00      0.00

     MDB     stress (kbar)      0.00      0.00      0.00
                                0.00      0.00      0.00
                                0.00      0.00      0.00

     3D-RISM stress (kbar)      0.00      0.00      0.00
                                0.00      0.00      0.00
                                0.00      0.00      0.00


     Writing all to output data dir ./tmp/hBN_1L_PBE.save/

     init_run     :      0.82s CPU      0.82s WALL (       1 calls)
     electrons    :      3.94s CPU      3.65s WALL (       1 calls)
     forces       :      0.07s CPU      0.07s WALL (       1 calls)
     stress       :      0.33s CPU      0.33s WALL (       1 calls)

     Called by init_run:
     wfcinit      :      0.37s CPU      0.37s WALL (       1 calls)
     wfcinit:atom :      0.01s CPU      0.01s WALL (      19 calls)
     wfcinit:wfcr :      0.35s CPU      0.34s WALL (      19 calls)
     potinit      :      0.03s CPU      0.03s WALL (       1 calls)
     hinit0       :      0.41s CPU      0.41s WALL (       1 calls)

     Called by electrons:
     c_bands      :      3.39s CPU      3.07s WALL (       7 calls)
     sum_band     :      0.43s CPU      0.43s WALL (       7 calls)
     v_of_rho     :      0.12s CPU      0.13s WALL (       8 calls)
     v_h          :      0.01s CPU      0.01s WALL (       8 calls)
     v_xc         :      0.14s CPU      0.15s WALL (      10 calls)
     mix_rho      :      0.02s CPU      0.03s WALL (       7 calls)

     Called by c_bands:
     init_us_2    :      0.11s CPU      0.11s WALL (     323 calls)
     init_us_2:cp :      0.11s CPU      0.11s WALL (     323 calls)
     cegterg      :      3.28s CPU      2.96s WALL (     133 calls)

     Called by sum_band:
     sum_band:wei :      0.00s CPU      0.00s WALL (       7 calls)
     sum_band:loo :      0.42s CPU      0.42s WALL (       7 calls)
     sum_band:buf :      0.00s CPU      0.00s WALL (     133 calls)
     sum_band:ini :      0.04s CPU      0.04s WALL (     133 calls)

     Called by *egterg:
     cdiaghg      :      0.04s CPU      0.04s WALL (     711 calls)
     cegterg:over :      0.14s CPU      0.14s WALL (     578 calls)
     cegterg:upda :      0.24s CPU      0.14s WALL (     578 calls)
     cegterg:last :      0.25s CPU      0.11s WALL (     348 calls)
     h_psi        :      2.86s CPU      2.77s WALL (     730 calls)
     g_psi        :      0.03s CPU      0.03s WALL (     578 calls)

     Called by h_psi:
     h_psi:calbec :      0.09s CPU      0.10s WALL (     730 calls)
     vloc_psi     :      2.53s CPU      2.55s WALL (     730 calls)
     add_vuspsi   :      0.22s CPU      0.10s WALL (     730 calls)

     General routines
     calbec       :      0.11s CPU      0.11s WALL (     825 calls)
     fft          :      0.38s CPU      0.38s WALL (     104 calls)
     ffts         :      0.00s CPU      0.00s WALL (       7 calls)
     fftw         :      2.57s CPU      2.57s WALL (    7906 calls)

     Parallel routines

     PWSCF        :      5.22s CPU      4.95s WALL


   This run was terminated on:  11:37:43  16Apr2024            

=------------------------------------------------------------------------------=
   JOB DONE.
=------------------------------------------------------------------------------=
