
     Program PWSCF v.7.2 starts on 26Mar2024 at 16:58:28 

     This program is part of the open-source Quantum ESPRESSO suite
     for quantum simulation of materials; please cite
         "P. Giannozzi et al., J. Phys.:Condens. Matter 21 395502 (2009);
         "P. Giannozzi et al., J. Phys.:Condens. Matter 29 465901 (2017);
         "P. Giannozzi et al., J. Chem. Phys. 152 154105 (2020);
          URL http://www.quantum-espresso.org", 
     in publications or presentations arising from this work. More details at
     http://www.quantum-espresso.org/quote

     Parallel version (MPI & OpenMP), running on       1 processor cores
     Number of MPI processes:                 1
     Threads/MPI process:                     1

     MPI processes distributed on     1 nodes
     0 MiB available memory on the printing compute node when the environment starts

     Waiting for input...
     Reading input from standard input

     Current dimensions of program PWSCF are:
     Max number of different atomic species (ntypx) = 10
     Max number of k-points (npk) =  40000
     Max angular momentum in pseudopotentials (lmaxx) =  4

     Subspace diagonalization in iterative solution of the eigenvalue problem:
     a serial algorithm will be used


     G-vector sticks info
     --------------------
     sticks:   dense  smooth     PW     G-vecs:    dense   smooth      PW
     Sum         121     121     37                 5273     5273    1083

     Using Slab Decomposition



     bravais-lattice index     =            4
     lattice parameter (alat)  =       4.6350  a.u.
     unit-cell volume          =     431.1713 (a.u.)^3
     number of atoms/cell      =            2
     number of atomic types    =            1
     number of electrons       =         8.00
     number of Kohn-Sham states=            8
     kinetic-energy cutoff     =      20.0000  Ry
     charge density cutoff     =      80.0000  Ry
     scf convergence threshold =      1.0E-06
     mixing beta               =       0.7000
     number of iterations used =            8  plain     mixing
     Exchange-correlation= PBE
                           (   1   4   3   4   0   0   0)

     celldm(1)=   4.635000  celldm(2)=   0.000000  celldm(3)=   5.000000
     celldm(4)=   0.000000  celldm(5)=   0.000000  celldm(6)=   0.000000

     crystal axes: (cart. coord. in units of alat)
               a(1) = (   1.000000   0.000000   0.000000 )  
               a(2) = (  -0.500000   0.866025   0.000000 )  
               a(3) = (   0.000000   0.000000   5.000000 )  

     reciprocal axes: (cart. coord. in units 2 pi/alat)
               b(1) = (  1.000000  0.577350 -0.000000 )  
               b(2) = (  0.000000  1.154701  0.000000 )  
               b(3) = (  0.000000 -0.000000  0.200000 )  


     PseudoPot. # 1 for C  read from file:
     ../../../../Pseudo/PBE/C.UPF
     MD5 check sum: 34a24e64c0a39f27c6c36b90a16ac686
     Pseudo is Norm-conserving + core correction, Zval =  4.0
     Generated using ONCVPSP code by D. R. Hamann
     Using radial grid of 1248 points,  4 beta functions with: 
                l(1) =   0
                l(2) =   0
                l(3) =   1
                l(4) =   1

     atomic species   valence    mass     pseudopotential
        C              4.00    12.01100     C ( 1.00)

     24 Sym. Ops., with inversion, found (12 have fractional translation)


                                    s                        frac. trans.

      isym =  1     identity                                     

 cryst.   s( 1) = (     1          0          0      )
                  (     0          1          0      )
                  (     0          0          1      )

 cart.    s( 1) = (  1.0000000  0.0000000  0.0000000 )
                  (  0.0000000  1.0000000  0.0000000 )
                  (  0.0000000  0.0000000  1.0000000 )


      isym =  2     180 deg rotation - cart. axis [0,0,1]        

 cryst.   s( 2) = (    -1          0          0      )    f =( -0.3333333 )
                  (     0         -1          0      )       (  0.3333333 )
                  (     0          0          1      )       (  0.0000000 )

 cart.    s( 2) = ( -1.0000000  0.0000000  0.0000000 )    f =( -0.5000000 )
                  (  0.0000000 -1.0000000  0.0000000 )       (  0.2886751 )
                  (  0.0000000  0.0000000  1.0000000 )       (  0.0000000 )


      isym =  3     180 deg rotation - cart. axis [0,1,0]        

 cryst.   s( 3) = (    -1          0          0      )
                  (     1          1          0      )
                  (     0          0         -1      )

 cart.    s( 3) = ( -1.0000000  0.0000000  0.0000000 )
                  (  0.0000000  1.0000000  0.0000000 )
                  (  0.0000000  0.0000000 -1.0000000 )


      isym =  4     180 deg rotation - cart. axis [1,0,0]        

 cryst.   s( 4) = (     1          0          0      )    f =( -0.3333333 )
                  (    -1         -1          0      )       (  0.3333333 )
                  (     0          0         -1      )       (  0.0000000 )

 cart.    s( 4) = (  1.0000000  0.0000000  0.0000000 )    f =( -0.5000000 )
                  (  0.0000000 -1.0000000  0.0000000 )       (  0.2886751 )
                  (  0.0000000  0.0000000 -1.0000000 )       (  0.0000000 )


      isym =  5      60 deg rotation - cryst. axis [0,0,1]       

 cryst.   s( 5) = (     1          1          0      )    f =( -0.3333333 )
                  (    -1          0          0      )       (  0.3333333 )
                  (     0          0          1      )       (  0.0000000 )

 cart.    s( 5) = (  0.5000000 -0.8660254  0.0000000 )    f =( -0.5000000 )
                  (  0.8660254  0.5000000  0.0000000 )       (  0.2886751 )
                  (  0.0000000  0.0000000  1.0000000 )       (  0.0000000 )


      isym =  6      60 deg rotation - cryst. axis [0,0,-1]      

 cryst.   s( 6) = (     0         -1          0      )    f =( -0.3333333 )
                  (     1          1          0      )       (  0.3333333 )
                  (     0          0          1      )       (  0.0000000 )

 cart.    s( 6) = (  0.5000000  0.8660254  0.0000000 )    f =( -0.5000000 )
                  ( -0.8660254  0.5000000  0.0000000 )       (  0.2886751 )
                  (  0.0000000  0.0000000  1.0000000 )       (  0.0000000 )


      isym =  7     120 deg rotation - cryst. axis [0,0,1]       

 cryst.   s( 7) = (     0          1          0      )
                  (    -1         -1          0      )
                  (     0          0          1      )

 cart.    s( 7) = ( -0.5000000 -0.8660254  0.0000000 )
                  (  0.8660254 -0.5000000  0.0000000 )
                  (  0.0000000  0.0000000  1.0000000 )


      isym =  8     120 deg rotation - cryst. axis [0,0,-1]      

 cryst.   s( 8) = (    -1         -1          0      )
                  (     1          0          0      )
                  (     0          0          1      )

 cart.    s( 8) = ( -0.5000000  0.8660254  0.0000000 )
                  ( -0.8660254 -0.5000000  0.0000000 )
                  (  0.0000000  0.0000000  1.0000000 )


      isym =  9     180 deg rotation - cryst. axis [1,-1,0]      

 cryst.   s( 9) = (     0         -1          0      )
                  (    -1          0          0      )
                  (     0          0         -1      )

 cart.    s( 9) = (  0.5000000 -0.8660254  0.0000000 )
                  ( -0.8660254 -0.5000000  0.0000000 )
                  (  0.0000000  0.0000000 -1.0000000 )


      isym = 10     180 deg rotation - cryst. axis [2,1,0]       

 cryst.   s(10) = (     1          1          0      )
                  (     0         -1          0      )
                  (     0          0         -1      )

 cart.    s(10) = (  0.5000000  0.8660254  0.0000000 )
                  (  0.8660254 -0.5000000  0.0000000 )
                  (  0.0000000  0.0000000 -1.0000000 )


      isym = 11     180 deg rotation - cryst. axis [0,1,0]       

 cryst.   s(11) = (    -1         -1          0      )    f =( -0.3333333 )
                  (     0          1          0      )       (  0.3333333 )
                  (     0          0         -1      )       (  0.0000000 )

 cart.    s(11) = ( -0.5000000 -0.8660254  0.0000000 )    f =( -0.5000000 )
                  ( -0.8660254  0.5000000  0.0000000 )       (  0.2886751 )
                  (  0.0000000  0.0000000 -1.0000000 )       (  0.0000000 )


      isym = 12     180 deg rotation - cryst. axis [1,1,0]       

 cryst.   s(12) = (     0          1          0      )    f =( -0.3333333 )
                  (     1          0          0      )       (  0.3333333 )
                  (     0          0         -1      )       (  0.0000000 )

 cart.    s(12) = ( -0.5000000  0.8660254  0.0000000 )    f =( -0.5000000 )
                  (  0.8660254  0.5000000  0.0000000 )       (  0.2886751 )
                  (  0.0000000  0.0000000 -1.0000000 )       (  0.0000000 )


      isym = 13     inversion                                    

 cryst.   s(13) = (    -1          0          0      )    f =( -0.3333333 )
                  (     0         -1          0      )       (  0.3333333 )
                  (     0          0         -1      )       (  0.0000000 )

 cart.    s(13) = ( -1.0000000  0.0000000  0.0000000 )    f =( -0.5000000 )
                  (  0.0000000 -1.0000000  0.0000000 )       (  0.2886751 )
                  (  0.0000000  0.0000000 -1.0000000 )       (  0.0000000 )


      isym = 14     inv. 180 deg rotation - cart. axis [0,0,1]   

 cryst.   s(14) = (     1          0          0      )
                  (     0          1          0      )
                  (     0          0         -1      )

 cart.    s(14) = (  1.0000000  0.0000000  0.0000000 )
                  (  0.0000000  1.0000000  0.0000000 )
                  (  0.0000000  0.0000000 -1.0000000 )


      isym = 15     inv. 180 deg rotation - cart. axis [0,1,0]   

 cryst.   s(15) = (     1          0          0      )    f =( -0.3333333 )
                  (    -1         -1          0      )       (  0.3333333 )
                  (     0          0          1      )       (  0.0000000 )

 cart.    s(15) = (  1.0000000  0.0000000  0.0000000 )    f =( -0.5000000 )
                  (  0.0000000 -1.0000000  0.0000000 )       (  0.2886751 )
                  (  0.0000000  0.0000000  1.0000000 )       (  0.0000000 )


      isym = 16     inv. 180 deg rotation - cart. axis [1,0,0]   

 cryst.   s(16) = (    -1          0          0      )
                  (     1          1          0      )
                  (     0          0          1      )

 cart.    s(16) = ( -1.0000000  0.0000000  0.0000000 )
                  (  0.0000000  1.0000000  0.0000000 )
                  (  0.0000000  0.0000000  1.0000000 )


      isym = 17     inv.  60 deg rotation - cryst. axis [0,0,1]  

 cryst.   s(17) = (    -1         -1          0      )
                  (     1          0          0      )
                  (     0          0         -1      )

 cart.    s(17) = ( -0.5000000  0.8660254  0.0000000 )
                  ( -0.8660254 -0.5000000  0.0000000 )
                  (  0.0000000  0.0000000 -1.0000000 )


      isym = 18     inv.  60 deg rotation - cryst. axis [0,0,-1] 

 cryst.   s(18) = (     0          1          0      )
                  (    -1         -1          0      )
                  (     0          0         -1      )

 cart.    s(18) = ( -0.5000000 -0.8660254  0.0000000 )
                  (  0.8660254 -0.5000000  0.0000000 )
                  (  0.0000000  0.0000000 -1.0000000 )


      isym = 19     inv. 120 deg rotation - cryst. axis [0,0,1]  

 cryst.   s(19) = (     0         -1          0      )    f =( -0.3333333 )
                  (     1          1          0      )       (  0.3333333 )
                  (     0          0         -1      )       (  0.0000000 )

 cart.    s(19) = (  0.5000000  0.8660254  0.0000000 )    f =( -0.5000000 )
                  ( -0.8660254  0.5000000  0.0000000 )       (  0.2886751 )
                  (  0.0000000  0.0000000 -1.0000000 )       (  0.0000000 )


      isym = 20     inv. 120 deg rotation - cryst. axis [0,0,-1] 

 cryst.   s(20) = (     1          1          0      )    f =( -0.3333333 )
                  (    -1          0          0      )       (  0.3333333 )
                  (     0          0         -1      )       (  0.0000000 )

 cart.    s(20) = (  0.5000000 -0.8660254  0.0000000 )    f =( -0.5000000 )
                  (  0.8660254  0.5000000  0.0000000 )       (  0.2886751 )
                  (  0.0000000  0.0000000 -1.0000000 )       (  0.0000000 )


      isym = 21     inv. 180 deg rotation - cryst. axis [1,-1,0] 

 cryst.   s(21) = (     0          1          0      )    f =( -0.3333333 )
                  (     1          0          0      )       (  0.3333333 )
                  (     0          0          1      )       (  0.0000000 )

 cart.    s(21) = ( -0.5000000  0.8660254  0.0000000 )    f =( -0.5000000 )
                  (  0.8660254  0.5000000  0.0000000 )       (  0.2886751 )
                  (  0.0000000  0.0000000  1.0000000 )       (  0.0000000 )


      isym = 22     inv. 180 deg rotation - cryst. axis [2,1,0]  

 cryst.   s(22) = (    -1         -1          0      )    f =( -0.3333333 )
                  (     0          1          0      )       (  0.3333333 )
                  (     0          0          1      )       (  0.0000000 )

 cart.    s(22) = ( -0.5000000 -0.8660254  0.0000000 )    f =( -0.5000000 )
                  ( -0.8660254  0.5000000  0.0000000 )       (  0.2886751 )
                  (  0.0000000  0.0000000  1.0000000 )       (  0.0000000 )


      isym = 23     inv. 180 deg rotation - cryst. axis [0,1,0]  

 cryst.   s(23) = (     1          1          0      )
                  (     0         -1          0      )
                  (     0          0          1      )

 cart.    s(23) = (  0.5000000  0.8660254  0.0000000 )
                  (  0.8660254 -0.5000000  0.0000000 )
                  (  0.0000000  0.0000000  1.0000000 )


      isym = 24     inv. 180 deg rotation - cryst. axis [1,1,0]  

 cryst.   s(24) = (     0         -1          0      )
                  (    -1          0          0      )
                  (     0          0          1      )

 cart.    s(24) = (  0.5000000 -0.8660254  0.0000000 )
                  ( -0.8660254 -0.5000000  0.0000000 )
                  (  0.0000000  0.0000000  1.0000000 )


     point group D_6h(6/mmm)
     there are 12 classes
     the character table:

       E     2C6   2C3   C2    3C2'  3C2'' i     2S3   2S6   s_h   3s_d  3s_v 
A_1g   1.00  1.00  1.00  1.00  1.00  1.00  1.00  1.00  1.00  1.00  1.00  1.00
A_2g   1.00  1.00  1.00  1.00 -1.00 -1.00  1.00  1.00  1.00  1.00 -1.00 -1.00
B_1g   1.00 -1.00  1.00 -1.00  1.00 -1.00  1.00 -1.00  1.00 -1.00  1.00 -1.00
B_2g   1.00 -1.00  1.00 -1.00 -1.00  1.00  1.00 -1.00  1.00 -1.00 -1.00  1.00
E_1g   2.00  1.00 -1.00 -2.00  0.00  0.00  2.00  1.00 -1.00 -2.00  0.00  0.00
E_2g   2.00 -1.00 -1.00  2.00  0.00  0.00  2.00 -1.00 -1.00  2.00  0.00  0.00
A_1u   1.00  1.00  1.00  1.00  1.00  1.00 -1.00 -1.00 -1.00 -1.00 -1.00 -1.00
A_2u   1.00  1.00  1.00  1.00 -1.00 -1.00 -1.00 -1.00 -1.00 -1.00  1.00  1.00
B_1u   1.00 -1.00  1.00 -1.00  1.00 -1.00 -1.00  1.00 -1.00  1.00 -1.00  1.00
B_2u   1.00 -1.00  1.00 -1.00 -1.00  1.00 -1.00  1.00 -1.00  1.00  1.00 -1.00
E_1u   2.00  1.00 -1.00 -2.00  0.00  0.00 -2.00 -1.00  1.00  2.00  0.00  0.00
E_2u   2.00 -1.00 -1.00  2.00  0.00  0.00 -2.00  1.00  1.00 -2.00  0.00  0.00

     the symmetry operations in each class and the name of the first element:

     E        1
          identity                                               
     2C6      5    6
           60 deg rotation - cryst. axis [0,0,1]                 
     2C3      7    8
          120 deg rotation - cryst. axis [0,0,1]                 
     C2       2
          180 deg rotation - cart. axis [0,0,1]                  
     3C2'     4   12   11
          180 deg rotation - cart. axis [1,0,0]                  
     3C2''    3    9   10
          180 deg rotation - cart. axis [0,1,0]                  
     i       13
          inversion                                              
     2S3     17   18
          inv.  60 deg rotation - cryst. axis [0,0,1]            
     2S6     19   20
          inv. 120 deg rotation - cryst. axis [0,0,1]            
     s_h     14
          inv. 180 deg rotation - cart. axis [0,0,1]             
     3s_d    16   24   23
          inv. 180 deg rotation - cart. axis [1,0,0]             
     3s_v    15   21   22
          inv. 180 deg rotation - cart. axis [0,1,0]             

   Cartesian axes

     site n.     atom                  positions (alat units)
         1           C   tau(   1) = (   0.0000000   0.0000000   0.0000000  )
         2           C   tau(   2) = (  -0.0000000   0.5773503   0.0000000  )

   Crystallographic axes

     site n.     atom                  positions (cryst. coord.)
         1           C   tau(   1) = (  0.0000000  0.0000000  0.0000000  )
         2           C   tau(   2) = (  0.3333333  0.6666667  0.0000000  )

     number of k points=     7  Marzari-Vanderbilt smearing, width (Ry)=  0.0100
                       cart. coord. in units 2pi/alat
        k(    1) = (   0.0000000   0.0000000   0.0000000), wk =   0.0555556
        k(    2) = (   0.0000000   0.1924501   0.0000000), wk =   0.3333333
        k(    3) = (   0.0000000   0.3849002   0.0000000), wk =   0.3333333
        k(    4) = (   0.0000000  -0.5773503   0.0000000), wk =   0.1666667
        k(    5) = (   0.1666667   0.2886751   0.0000000), wk =   0.3333333
        k(    6) = (   0.1666667   0.4811252   0.0000000), wk =   0.6666667
        k(    7) = (   0.3333333   0.5773503   0.0000000), wk =   0.1111111

                       cryst. coord.
        k(    1) = (   0.0000000   0.0000000   0.0000000), wk =   0.0555556
        k(    2) = (   0.0000000   0.1666667   0.0000000), wk =   0.3333333
        k(    3) = (   0.0000000   0.3333333   0.0000000), wk =   0.3333333
        k(    4) = (   0.0000000  -0.5000000   0.0000000), wk =   0.1666667
        k(    5) = (   0.1666667   0.1666667   0.0000000), wk =   0.3333333
        k(    6) = (   0.1666667   0.3333333   0.0000000), wk =   0.6666667
        k(    7) = (   0.3333333   0.3333333   0.0000000), wk =   0.1111111

     Dense  grid:     5273 G-vectors     FFT dimensions: (  15,  15,  72)

     Dynamical RAM for                 wfc:       0.08 MB

     Dynamical RAM for     wfc (w. buffer):       0.64 MB

     Dynamical RAM for           str. fact:       0.08 MB

     Dynamical RAM for           local pot:       0.00 MB

     Dynamical RAM for          nlocal pot:       0.16 MB

     Dynamical RAM for                qrad:       0.21 MB

     Dynamical RAM for          rho,v,vnew:       0.61 MB

     Dynamical RAM for               rhoin:       0.20 MB

     Dynamical RAM for            rho*nmix:       1.29 MB

     Dynamical RAM for           G-vectors:       0.34 MB

     Dynamical RAM for          h,s,v(r/c):       0.01 MB

     Dynamical RAM for          <psi|beta>:       0.00 MB

     Dynamical RAM for                 psi:       0.16 MB

     Dynamical RAM for                hpsi:       0.16 MB

     Dynamical RAM for      wfcinit/wfcrot:       0.16 MB

     Estimated static dynamical RAM per process >       3.02 MB

     Estimated max dynamical RAM per process >       4.64 MB

     Check: negative core charge=   -0.000076

     Initial potential from superposition of free atoms

     starting charge       7.9999, renormalised to       8.0000

     negative rho (up, down):  6.535E-03 0.000E+00
     Starting wfcs are    8 randomized atomic wfcs

     total cpu time spent up to now is        0.4 secs

     Self-consistent Calculation

     iteration #  1     ecut=    20.00 Ry     beta= 0.70
     Davidson diagonalization with overlap

---- Real-time Memory Report at c_bands before calling an iterative solver
             0 MiB given to the printing process from OS
             0 MiB allocation reported by mallinfo(arena+hblkhd)
             0 MiB available memory on the node where the printing process lives
------------------
     ethr =  1.00E-02,  avg # of iterations =  7.4

     negative rho (up, down):  1.686E-03 0.000E+00

     total cpu time spent up to now is        0.5 secs

     total energy              =     -23.40853750 Ry
     estimated scf accuracy    <       0.12017804 Ry

     iteration #  2     ecut=    20.00 Ry     beta= 0.70
     Davidson diagonalization with overlap

---- Real-time Memory Report at c_bands before calling an iterative solver
             0 MiB given to the printing process from OS
             0 MiB allocation reported by mallinfo(arena+hblkhd)
             0 MiB available memory on the node where the printing process lives
------------------
     ethr =  1.50E-03,  avg # of iterations =  4.3

     negative rho (up, down):  1.791E-04 0.000E+00

     total cpu time spent up to now is        0.5 secs

     total energy              =     -23.41877769 Ry
     estimated scf accuracy    <       0.00406517 Ry

     iteration #  3     ecut=    20.00 Ry     beta= 0.70
     Davidson diagonalization with overlap

---- Real-time Memory Report at c_bands before calling an iterative solver
             0 MiB given to the printing process from OS
             0 MiB allocation reported by mallinfo(arena+hblkhd)
             0 MiB available memory on the node where the printing process lives
------------------
     ethr =  5.08E-05,  avg # of iterations =  7.3

     total cpu time spent up to now is        0.6 secs

     total energy              =     -23.41891922 Ry
     estimated scf accuracy    <       0.00017324 Ry

     iteration #  4     ecut=    20.00 Ry     beta= 0.70
     Davidson diagonalization with overlap

---- Real-time Memory Report at c_bands before calling an iterative solver
             0 MiB given to the printing process from OS
             0 MiB allocation reported by mallinfo(arena+hblkhd)
             0 MiB available memory on the node where the printing process lives
------------------
     ethr =  2.17E-06,  avg # of iterations =  4.3

     total cpu time spent up to now is        0.6 secs

     End of self-consistent calculation

          k = 0.0000 0.0000 0.0000 (   675 PWs)   bands (ev):

   -21.2197  -8.8497  -3.8873  -3.8873   1.2953   2.3796   2.9033   6.0783

     occupation numbers 
     1.0000   1.0000   1.0000   1.0000   0.0000   0.0000   0.0000   0.0000

          k = 0.0000 0.1925 0.0000 (   664 PWs)   bands (ev):

   -20.5193  -8.0204  -6.2304  -5.0290   2.2128   3.2945   3.8108   6.9696

     occupation numbers 
     1.0000   1.0000   1.0000   1.0000   0.0000   0.0000   0.0000   0.0000

          k = 0.0000 0.3849 0.0000 (   640 PWs)   bands (ev):

   -18.5084 -10.6961  -6.6840  -5.6693   4.4803   4.9594   6.0768   6.5060

     occupation numbers 
     1.0000   1.0000   1.0000   1.0000   0.0000   0.0000   0.0000   0.0000

          k = 0.0000-0.5774 0.0000 (   646 PWs)   bands (ev):

   -15.7141 -14.6035  -7.3754  -3.2363   0.9054   6.3853   9.4888   9.5328

     occupation numbers 
     1.0000   1.0000   1.0000   1.0000   0.0000   0.0000   0.0000   0.0000

          k = 0.1667 0.2887 0.0000 (   657 PWs)   bands (ev):

   -19.2129  -8.7333  -7.5065  -6.4305   4.0440   5.1118   5.6197   6.1817

     occupation numbers 
     1.0000   1.0000   1.0000   1.0000   0.0000   0.0000   0.0000   0.0000

          k = 0.1667 0.4811 0.0000 (   648 PWs)   bands (ev):

   -16.5921 -12.6386  -9.1855  -3.6058   1.8872   7.6934   8.6529   9.2056

     occupation numbers 
     1.0000   1.0000   1.0000   1.0000   0.0000   0.0000   0.0000   0.0000

          k = 0.3333 0.5774 0.0000 (   639 PWs)   bands (ev):

   -13.9080 -13.9080 -11.8084  -0.7602  -0.7602   9.2793  11.9359  11.9359

     occupation numbers 
     1.0000   1.0000   1.0000   0.5000   0.5000   0.0000   0.0000   0.0000

     the Fermi energy is    -0.7413 ev

!    total energy              =     -23.41893233 Ry
     estimated scf accuracy    <       0.00000037 Ry
     smearing contrib. (-TS)   =      -0.00036465 Ry
     internal energy E=F+TS    =     -23.41856768 Ry

     The total energy is F=E-TS. E is the sum of the following terms:
     one-electron contribution =    -120.65197853 Ry
     hartree contribution      =      61.93379156 Ry
     xc contribution           =      -8.44650992 Ry
     ewald contribution        =      43.74612921 Ry

     convergence has been achieved in   4 iterations

     Forces acting on atoms (cartesian axes, Ry/au):

     atom    1 type  1   force =     0.00000000    0.00000000    0.00000000
     atom    2 type  1   force =    -0.00000000   -0.00000000    0.00000000
     The non-local contrib.  to forces
     atom    1 type  1   force =     0.00000000   -0.00000000   -0.00000000
     atom    2 type  1   force =     0.00000000    0.00000000    0.00000000
     The ionic contribution  to forces
     atom    1 type  1   force =    -0.00000001    0.00000000   -0.00000000
     atom    2 type  1   force =     0.00000001   -0.00000000   -0.00000000
     The local contribution  to forces
     atom    1 type  1   force =     0.00000000    0.00000000    0.00000000
     atom    2 type  1   force =     0.00000000   -0.00000000    0.00000000
     The core correction contribution to forces
     atom    1 type  1   force =    -0.00000000    0.00000000   -0.00000000
     atom    2 type  1   force =    -0.00000000    0.00000000   -0.00000000
     The Hubbard contrib.    to forces
     atom    1 type  1   force =     0.00000000    0.00000000    0.00000000
     atom    2 type  1   force =     0.00000000    0.00000000    0.00000000
     The SCF correction term to forces
     atom    1 type  1   force =     0.00000000   -0.00000000   -0.00000000
     atom    2 type  1   force =     0.00000000   -0.00000000   -0.00000000

     Total force =     0.000000     Total SCF correction =     0.000000


     Computing stress (Cartesian axis) and pressure

          total   stress  (Ry/bohr**3)                   (kbar)     P=     -207.37
  -0.00109531   0.00000000   0.00000000         -161.13        0.00        0.00
   0.00000000  -0.00109531  -0.00000000            0.00     -161.13       -0.00
  -0.00000000   0.00000000  -0.00203846           -0.00        0.00     -299.87

     kinetic stress (kbar)   3327.49     -0.00      0.00
                               -0.00   3327.49      0.00
                                0.00      0.00   3658.37

     local   stress (kbar) -45112.73      0.00      0.00
                                0.00 -45112.73      0.00
                                0.00      0.00  46091.35

     nonloc. stress (kbar)   -136.49      0.00      0.00
                                0.00   -136.49      0.00
                                0.00      0.00    -82.35

     hartree stress (kbar)  20884.42     -0.00     -0.00
                               -0.00  20884.42     -0.00
                               -0.00     -0.00 -20638.56

     exc-cor stress (kbar)   -298.77     -0.00     -0.00
                               -0.00   -298.77     -0.00
                               -0.00     -0.00   -332.08

     corecor stress (kbar)   -528.78      0.00     -0.00
                                0.00   -528.78     -0.00
                               -0.00     -0.00   -514.23

     ewald   stress (kbar)  21703.74     -0.00     -0.00
                               -0.00  21703.74     -0.00
                               -0.00     -0.00 -28482.37

     hubbard stress (kbar)      0.00      0.00      0.00
                                0.00      0.00      0.00
                                0.00      0.00      0.00

     DFT-D   stress (kbar)      0.00      0.00      0.00
                                0.00      0.00      0.00
                                0.00      0.00      0.00

     XDM     stress (kbar)      0.00      0.00      0.00
                                0.00      0.00      0.00
                                0.00      0.00      0.00

     dft-nl  stress (kbar)      0.00      0.00      0.00
                                0.00      0.00      0.00
                                0.00      0.00      0.00

     TS-vdW  stress (kbar)      0.00      0.00      0.00
                                0.00      0.00      0.00
                                0.00      0.00      0.00

     MDB     stress (kbar)      0.00      0.00      0.00
                                0.00      0.00      0.00
                                0.00      0.00      0.00

     3D-RISM stress (kbar)      0.00      0.00      0.00
                                0.00      0.00      0.00
                                0.00      0.00      0.00


     Writing all to output data dir ./tmp/graphene_PBE.save/

     init_run     :      0.40s CPU      0.40s WALL (       1 calls)
     electrons    :      0.24s CPU      0.21s WALL (       1 calls)
     forces       :      0.01s CPU      0.01s WALL (       1 calls)
     stress       :      0.05s CPU      0.05s WALL (       1 calls)

     Called by init_run:
     wfcinit      :      0.14s CPU      0.14s WALL (       1 calls)
     wfcinit:atom :      0.00s CPU      0.00s WALL (       7 calls)
     wfcinit:wfcr :      0.14s CPU      0.14s WALL (       7 calls)
     potinit      :      0.01s CPU      0.01s WALL (       1 calls)
     hinit0       :      0.25s CPU      0.25s WALL (       1 calls)

     Called by electrons:
     c_bands      :      0.20s CPU      0.17s WALL (       4 calls)
     sum_band     :      0.02s CPU      0.02s WALL (       4 calls)
     v_of_rho     :      0.02s CPU      0.03s WALL (       5 calls)
     v_h          :      0.00s CPU      0.00s WALL (       5 calls)
     v_xc         :      0.03s CPU      0.03s WALL (       7 calls)
     mix_rho      :      0.00s CPU      0.00s WALL (       4 calls)

     Called by c_bands:
     init_us_2    :      0.01s CPU      0.01s WALL (      77 calls)
     init_us_2:cp :      0.01s CPU      0.01s WALL (      77 calls)
     cegterg      :      0.19s CPU      0.16s WALL (      28 calls)

     Called by sum_band:
     sum_band:wei :      0.00s CPU      0.00s WALL (       4 calls)
     sum_band:loo :      0.01s CPU      0.01s WALL (       4 calls)
     sum_band:buf :      0.00s CPU      0.00s WALL (      28 calls)
     sum_band:ini :      0.00s CPU      0.00s WALL (      28 calls)

     Called by *egterg:
     cdiaghg      :      0.01s CPU      0.01s WALL (     191 calls)
     cegterg:over :      0.01s CPU      0.01s WALL (     163 calls)
     cegterg:upda :      0.03s CPU      0.02s WALL (     163 calls)
     cegterg:last :      0.02s CPU      0.01s WALL (      80 calls)
     h_psi        :      0.25s CPU      0.24s WALL (     198 calls)
     g_psi        :      0.00s CPU      0.00s WALL (     163 calls)

     Called by h_psi:
     h_psi:calbec :      0.01s CPU      0.01s WALL (     198 calls)
     vloc_psi     :      0.22s CPU      0.22s WALL (     198 calls)
     add_vuspsi   :      0.02s CPU      0.01s WALL (     198 calls)

     General routines
     calbec       :      0.01s CPU      0.01s WALL (     233 calls)
     fft          :      0.24s CPU      0.24s WALL (      74 calls)
     ffts         :      0.00s CPU      0.00s WALL (       4 calls)
     fftw         :      0.20s CPU      0.21s WALL (    1830 calls)

     Parallel routines

     PWSCF        :      0.73s CPU      0.72s WALL


   This run was terminated on:  16:58:29  26Mar2024            

=------------------------------------------------------------------------------=
   JOB DONE.
=------------------------------------------------------------------------------=
