
     Program PWSCF v.7.2 starts on 16Apr2024 at 15: 3:57 

     This program is part of the open-source Quantum ESPRESSO suite
     for quantum simulation of materials; please cite
         "P. Giannozzi et al., J. Phys.:Condens. Matter 21 395502 (2009);
         "P. Giannozzi et al., J. Phys.:Condens. Matter 29 465901 (2017);
         "P. Giannozzi et al., J. Chem. Phys. 152 154105 (2020);
          URL http://www.quantum-espresso.org", 
     in publications or presentations arising from this work. More details at
     http://www.quantum-espresso.org/quote

     Parallel version (MPI & OpenMP), running on       8 processor cores
     Number of MPI processes:                 8
     Threads/MPI process:                     1

     MPI processes distributed on     1 nodes
     0 MiB available memory on the printing compute node when the environment starts

     Waiting for input...
     Reading input from standard input

     Current dimensions of program PWSCF are:
     Max number of different atomic species (ntypx) = 10
     Max number of k-points (npk) =  40000
     Max angular momentum in pseudopotentials (lmaxx) =  4

     Atomic positions and unit cell read from directory:
     ./tmp/hBN_1L_LDA.save/
     Atomic positions from file used, from input discarded


     R & G space division:  proc/nbgrp/npool/nimage =       8
     Subspace diagonalization in iterative solution of the eigenvalue problem:
     a serial algorithm will be used


     Parallelization info
     --------------------
     sticks:   dense  smooth     PW     G-vecs:    dense   smooth      PW
     Min          45      45     14                 4211     4211     738
     Max          47      47     17                 4226     4226     745
     Sum         367     367    121                33733    33733    5933

     Using Slab Decomposition



     bravais-lattice index     =            4
     lattice parameter (alat)  =       4.6905  a.u.
     unit-cell volume          =     536.2154 (a.u.)^3
     number of atoms/cell      =            2
     number of atomic types    =            2
     number of electrons       =         8.00
     number of Kohn-Sham states=           10
     kinetic-energy cutoff     =      60.0000  Ry
     charge density cutoff     =     240.0000  Ry
     Exchange-correlation= PZ
                           (   1   1   0   0   0   0   0)

     celldm(1)=   4.690500  celldm(2)=   0.000000  celldm(3)=   6.000000
     celldm(4)=   0.000000  celldm(5)=   0.000000  celldm(6)=   0.000000

     crystal axes: (cart. coord. in units of alat)
               a(1) = (   1.000000   0.000000   0.000000 )  
               a(2) = (  -0.500000   0.866025   0.000000 )  
               a(3) = (   0.000000   0.000000   6.000000 )  

     reciprocal axes: (cart. coord. in units 2 pi/alat)
               b(1) = (  1.000000  0.577350 -0.000000 )  
               b(2) = (  0.000000  1.154701  0.000000 )  
               b(3) = (  0.000000 -0.000000  0.166667 )  


     PseudoPot. # 1 for N  read from file:
     ../../../Pseudo/LDA/N.upf
     MD5 check sum: eaa4f6f5012208d670216a7009287cf2
     Pseudo is Norm-conserving + core correction, Zval =  5.0
     Generated using ONCVPSP code by D. R. Hamann
     Using radial grid of 1054 points,  4 beta functions with: 
                l(1) =   0
                l(2) =   0
                l(3) =   1
                l(4) =   1

     PseudoPot. # 2 for B  read from file:
     ../../../Pseudo/LDA/B.upf
     MD5 check sum: 3e2a19024e57b4f161828f4b68a773bc
     Pseudo is Norm-conserving + core correction, Zval =  3.0
     Generated using ONCVPSP code by D. R. Hamann
     Using radial grid of 1508 points,  4 beta functions with: 
                l(1) =   0
                l(2) =   0
                l(3) =   1
                l(4) =   1

     atomic species   valence    mass     pseudopotential
        N              5.00    14.00670     N ( 1.00)
        B              3.00    10.80100     B ( 1.00)

     12 Sym. Ops. (no inversion) found


                                    s                        frac. trans.

      isym =  1     identity                                     

 cryst.   s( 1) = (     1          0          0      )
                  (     0          1          0      )
                  (     0          0          1      )

 cart.    s( 1) = (  1.0000000  0.0000000  0.0000000 )
                  (  0.0000000  1.0000000  0.0000000 )
                  (  0.0000000  0.0000000  1.0000000 )


      isym =  2     180 deg rotation - cart. axis [0,1,0]        

 cryst.   s( 2) = (    -1          0          0      )
                  (     1          1          0      )
                  (     0          0         -1      )

 cart.    s( 2) = ( -1.0000000  0.0000000  0.0000000 )
                  (  0.0000000  1.0000000  0.0000000 )
                  (  0.0000000  0.0000000 -1.0000000 )


      isym =  3     120 deg rotation - cryst. axis [0,0,1]       

 cryst.   s( 3) = (     0          1          0      )
                  (    -1         -1          0      )
                  (     0          0          1      )

 cart.    s( 3) = ( -0.5000000 -0.8660254  0.0000000 )
                  (  0.8660254 -0.5000000  0.0000000 )
                  (  0.0000000  0.0000000  1.0000000 )


      isym =  4     120 deg rotation - cryst. axis [0,0,-1]      

 cryst.   s( 4) = (    -1         -1          0      )
                  (     1          0          0      )
                  (     0          0          1      )

 cart.    s( 4) = ( -0.5000000  0.8660254  0.0000000 )
                  ( -0.8660254 -0.5000000  0.0000000 )
                  (  0.0000000  0.0000000  1.0000000 )


      isym =  5     180 deg rotation - cryst. axis [1,-1,0]      

 cryst.   s( 5) = (     0         -1          0      )
                  (    -1          0          0      )
                  (     0          0         -1      )

 cart.    s( 5) = (  0.5000000 -0.8660254  0.0000000 )
                  ( -0.8660254 -0.5000000  0.0000000 )
                  (  0.0000000  0.0000000 -1.0000000 )


      isym =  6     180 deg rotation - cryst. axis [2,1,0]       

 cryst.   s( 6) = (     1          1          0      )
                  (     0         -1          0      )
                  (     0          0         -1      )

 cart.    s( 6) = (  0.5000000  0.8660254  0.0000000 )
                  (  0.8660254 -0.5000000  0.0000000 )
                  (  0.0000000  0.0000000 -1.0000000 )


      isym =  7     inv. 180 deg rotation - cart. axis [0,0,1]   

 cryst.   s( 7) = (     1          0          0      )
                  (     0          1          0      )
                  (     0          0         -1      )

 cart.    s( 7) = (  1.0000000  0.0000000  0.0000000 )
                  (  0.0000000  1.0000000  0.0000000 )
                  (  0.0000000  0.0000000 -1.0000000 )


      isym =  8     inv. 180 deg rotation - cart. axis [1,0,0]   

 cryst.   s( 8) = (    -1          0          0      )
                  (     1          1          0      )
                  (     0          0          1      )

 cart.    s( 8) = ( -1.0000000  0.0000000  0.0000000 )
                  (  0.0000000  1.0000000  0.0000000 )
                  (  0.0000000  0.0000000  1.0000000 )


      isym =  9     inv.  60 deg rotation - cryst. axis [0,0,1]  

 cryst.   s( 9) = (    -1         -1          0      )
                  (     1          0          0      )
                  (     0          0         -1      )

 cart.    s( 9) = ( -0.5000000  0.8660254  0.0000000 )
                  ( -0.8660254 -0.5000000  0.0000000 )
                  (  0.0000000  0.0000000 -1.0000000 )


      isym = 10     inv.  60 deg rotation - cryst. axis [0,0,-1] 

 cryst.   s(10) = (     0          1          0      )
                  (    -1         -1          0      )
                  (     0          0         -1      )

 cart.    s(10) = ( -0.5000000 -0.8660254  0.0000000 )
                  (  0.8660254 -0.5000000  0.0000000 )
                  (  0.0000000  0.0000000 -1.0000000 )


      isym = 11     inv. 180 deg rotation - cryst. axis [0,1,0]  

 cryst.   s(11) = (     1          1          0      )
                  (     0         -1          0      )
                  (     0          0          1      )

 cart.    s(11) = (  0.5000000  0.8660254  0.0000000 )
                  (  0.8660254 -0.5000000  0.0000000 )
                  (  0.0000000  0.0000000  1.0000000 )


      isym = 12     inv. 180 deg rotation - cryst. axis [1,1,0]  

 cryst.   s(12) = (     0         -1          0      )
                  (    -1          0          0      )
                  (     0          0          1      )

 cart.    s(12) = (  0.5000000 -0.8660254  0.0000000 )
                  ( -0.8660254 -0.5000000  0.0000000 )
                  (  0.0000000  0.0000000  1.0000000 )


     point group D_3h (-62m)
     there are  6 classes
     the character table:

       E     2C3   3C2   s_h   2S3   3s_v 
A'_1   1.00  1.00  1.00  1.00  1.00  1.00
A'_2   1.00  1.00 -1.00  1.00  1.00 -1.00
E'     2.00 -1.00  0.00  2.00 -1.00  0.00
A''1   1.00  1.00  1.00 -1.00 -1.00 -1.00
A''2   1.00  1.00 -1.00 -1.00 -1.00  1.00
E''    2.00 -1.00  0.00 -2.00  1.00  0.00

     the symmetry operations in each class and the name of the first element:

     E        1
          identity                                               
     2C3      3    4
          120 deg rotation - cryst. axis [0,0,1]                 
     3C2      2    6    5
          180 deg rotation - cart. axis [0,1,0]                  
     s_h      7
          inv. 180 deg rotation - cart. axis [0,0,1]             
     2S3      9   10
          inv.  60 deg rotation - cryst. axis [0,0,1]            
     3s_v     8   11   12
          inv. 180 deg rotation - cart. axis [1,0,0]             

   Cartesian axes

     site n.     atom                  positions (alat units)
         1           B   tau(   1) = (   0.0000000   0.0000000   0.0000000  )
         2           N   tau(   2) = (  -0.0000000   0.5773503   0.0000000  )

   Crystallographic axes

     site n.     atom                  positions (cryst. coord.)
         1           B   tau(   1) = (  0.0000000  0.0000000  0.0000000  )
         2           N   tau(   2) = (  0.3333333  0.6666667  0.0000000  )

     number of k points=   331  Marzari-Vanderbilt smearing, width (Ry)=  0.0100
                       cart. coord. in units 2pi/alat
        k(    1) = (   0.0000000   0.0000000   0.0000000), wk =   0.0005556
        k(    2) = (   0.0000000   0.0192450   0.0000000), wk =   0.0033333
        k(    3) = (   0.0000000   0.0384900   0.0000000), wk =   0.0033333
        k(    4) = (   0.0000000   0.0577350   0.0000000), wk =   0.0033333
        k(    5) = (   0.0000000   0.0769800   0.0000000), wk =   0.0033333
        k(    6) = (   0.0000000   0.0962250   0.0000000), wk =   0.0033333
        k(    7) = (   0.0000000   0.1154701   0.0000000), wk =   0.0033333
        k(    8) = (   0.0000000   0.1347151   0.0000000), wk =   0.0033333
        k(    9) = (   0.0000000   0.1539601   0.0000000), wk =   0.0033333
        k(   10) = (   0.0000000   0.1732051   0.0000000), wk =   0.0033333
        k(   11) = (   0.0000000   0.1924501   0.0000000), wk =   0.0033333
        k(   12) = (   0.0000000   0.2116951   0.0000000), wk =   0.0033333
        k(   13) = (   0.0000000   0.2309401   0.0000000), wk =   0.0033333
        k(   14) = (   0.0000000   0.2501851   0.0000000), wk =   0.0033333
        k(   15) = (   0.0000000   0.2694301   0.0000000), wk =   0.0033333
        k(   16) = (   0.0000000   0.2886751   0.0000000), wk =   0.0033333
        k(   17) = (   0.0000000   0.3079201   0.0000000), wk =   0.0033333
        k(   18) = (   0.0000000   0.3271652   0.0000000), wk =   0.0033333
        k(   19) = (   0.0000000   0.3464102   0.0000000), wk =   0.0033333
        k(   20) = (   0.0000000   0.3656552   0.0000000), wk =   0.0033333
        k(   21) = (   0.0000000   0.3849002   0.0000000), wk =   0.0033333
        k(   22) = (   0.0000000   0.4041452   0.0000000), wk =   0.0033333
        k(   23) = (   0.0000000   0.4233902   0.0000000), wk =   0.0033333
        k(   24) = (   0.0000000   0.4426352   0.0000000), wk =   0.0033333
        k(   25) = (   0.0000000   0.4618802   0.0000000), wk =   0.0033333
        k(   26) = (   0.0000000   0.4811252   0.0000000), wk =   0.0033333
        k(   27) = (   0.0000000   0.5003702   0.0000000), wk =   0.0033333
        k(   28) = (   0.0000000   0.5196152   0.0000000), wk =   0.0033333
        k(   29) = (   0.0000000   0.5388603   0.0000000), wk =   0.0033333
        k(   30) = (   0.0000000   0.5581053   0.0000000), wk =   0.0033333
        k(   31) = (   0.0000000  -0.5773503   0.0000000), wk =   0.0016667
        k(   32) = (   0.0166667   0.0288675   0.0000000), wk =   0.0033333
        k(   33) = (   0.0166667   0.0481125   0.0000000), wk =   0.0066667
        k(   34) = (   0.0166667   0.0673575   0.0000000), wk =   0.0066667
        k(   35) = (   0.0166667   0.0866025   0.0000000), wk =   0.0066667
        k(   36) = (   0.0166667   0.1058475   0.0000000), wk =   0.0066667
        k(   37) = (   0.0166667   0.1250926   0.0000000), wk =   0.0066667
        k(   38) = (   0.0166667   0.1443376   0.0000000), wk =   0.0066667
        k(   39) = (   0.0166667   0.1635826   0.0000000), wk =   0.0066667
        k(   40) = (   0.0166667   0.1828276   0.0000000), wk =   0.0066667
        k(   41) = (   0.0166667   0.2020726   0.0000000), wk =   0.0066667
        k(   42) = (   0.0166667   0.2213176   0.0000000), wk =   0.0066667
        k(   43) = (   0.0166667   0.2405626   0.0000000), wk =   0.0066667
        k(   44) = (   0.0166667   0.2598076   0.0000000), wk =   0.0066667
        k(   45) = (   0.0166667   0.2790526   0.0000000), wk =   0.0066667
        k(   46) = (   0.0166667   0.2982976   0.0000000), wk =   0.0066667
        k(   47) = (   0.0166667   0.3175426   0.0000000), wk =   0.0066667
        k(   48) = (   0.0166667   0.3367877   0.0000000), wk =   0.0066667
        k(   49) = (   0.0166667   0.3560327   0.0000000), wk =   0.0066667
        k(   50) = (   0.0166667   0.3752777   0.0000000), wk =   0.0066667
        k(   51) = (   0.0166667   0.3945227   0.0000000), wk =   0.0066667
        k(   52) = (   0.0166667   0.4137677   0.0000000), wk =   0.0066667
        k(   53) = (   0.0166667   0.4330127   0.0000000), wk =   0.0066667
        k(   54) = (   0.0166667   0.4522577   0.0000000), wk =   0.0066667
        k(   55) = (   0.0166667   0.4715027   0.0000000), wk =   0.0066667
        k(   56) = (   0.0166667   0.4907477   0.0000000), wk =   0.0066667
        k(   57) = (   0.0166667   0.5099927   0.0000000), wk =   0.0066667
        k(   58) = (   0.0166667   0.5292377   0.0000000), wk =   0.0066667
        k(   59) = (   0.0166667   0.5484828   0.0000000), wk =   0.0066667
        k(   60) = (   0.0166667   0.5677278   0.0000000), wk =   0.0066667
        k(   61) = (   0.0333333   0.0577350   0.0000000), wk =   0.0033333
        k(   62) = (   0.0333333   0.0769800   0.0000000), wk =   0.0066667
        k(   63) = (   0.0333333   0.0962250   0.0000000), wk =   0.0066667
        k(   64) = (   0.0333333   0.1154701   0.0000000), wk =   0.0066667
        k(   65) = (   0.0333333   0.1347151   0.0000000), wk =   0.0066667
        k(   66) = (   0.0333333   0.1539601   0.0000000), wk =   0.0066667
        k(   67) = (   0.0333333   0.1732051   0.0000000), wk =   0.0066667
        k(   68) = (   0.0333333   0.1924501   0.0000000), wk =   0.0066667
        k(   69) = (   0.0333333   0.2116951   0.0000000), wk =   0.0066667
        k(   70) = (   0.0333333   0.2309401   0.0000000), wk =   0.0066667
        k(   71) = (   0.0333333   0.2501851   0.0000000), wk =   0.0066667
        k(   72) = (   0.0333333   0.2694301   0.0000000), wk =   0.0066667
        k(   73) = (   0.0333333   0.2886751   0.0000000), wk =   0.0066667
        k(   74) = (   0.0333333   0.3079201   0.0000000), wk =   0.0066667
        k(   75) = (   0.0333333   0.3271652   0.0000000), wk =   0.0066667
        k(   76) = (   0.0333333   0.3464102   0.0000000), wk =   0.0066667
        k(   77) = (   0.0333333   0.3656552   0.0000000), wk =   0.0066667
        k(   78) = (   0.0333333   0.3849002   0.0000000), wk =   0.0066667
        k(   79) = (   0.0333333   0.4041452   0.0000000), wk =   0.0066667
        k(   80) = (   0.0333333   0.4233902   0.0000000), wk =   0.0066667
        k(   81) = (   0.0333333   0.4426352   0.0000000), wk =   0.0066667
        k(   82) = (   0.0333333   0.4618802   0.0000000), wk =   0.0066667
        k(   83) = (   0.0333333   0.4811252   0.0000000), wk =   0.0066667
        k(   84) = (   0.0333333   0.5003702   0.0000000), wk =   0.0066667
        k(   85) = (   0.0333333   0.5196152   0.0000000), wk =   0.0066667
        k(   86) = (   0.0333333   0.5388603   0.0000000), wk =   0.0066667
        k(   87) = (   0.0333333   0.5581053   0.0000000), wk =   0.0066667
        k(   88) = (   0.0333333   0.5773503   0.0000000), wk =   0.0033333
        k(   89) = (   0.0500000   0.0866025   0.0000000), wk =   0.0033333
        k(   90) = (   0.0500000   0.1058475   0.0000000), wk =   0.0066667
        k(   91) = (   0.0500000   0.1250926   0.0000000), wk =   0.0066667
        k(   92) = (   0.0500000   0.1443376   0.0000000), wk =   0.0066667
        k(   93) = (   0.0500000   0.1635826   0.0000000), wk =   0.0066667
        k(   94) = (   0.0500000   0.1828276   0.0000000), wk =   0.0066667
        k(   95) = (   0.0500000   0.2020726   0.0000000), wk =   0.0066667
        k(   96) = (   0.0500000   0.2213176   0.0000000), wk =   0.0066667
        k(   97) = (   0.0500000   0.2405626   0.0000000), wk =   0.0066667
        k(   98) = (   0.0500000   0.2598076   0.0000000), wk =   0.0066667
        k(   99) = (   0.0500000   0.2790526   0.0000000), wk =   0.0066667
        k(  100) = (   0.0500000   0.2982976   0.0000000), wk =   0.0066667
        k(  101) = (   0.0500000   0.3175426   0.0000000), wk =   0.0066667
        k(  102) = (   0.0500000   0.3367877   0.0000000), wk =   0.0066667
        k(  103) = (   0.0500000   0.3560327   0.0000000), wk =   0.0066667
        k(  104) = (   0.0500000   0.3752777   0.0000000), wk =   0.0066667
        k(  105) = (   0.0500000   0.3945227   0.0000000), wk =   0.0066667
        k(  106) = (   0.0500000   0.4137677   0.0000000), wk =   0.0066667
        k(  107) = (   0.0500000   0.4330127   0.0000000), wk =   0.0066667
        k(  108) = (   0.0500000   0.4522577   0.0000000), wk =   0.0066667
        k(  109) = (   0.0500000   0.4715027   0.0000000), wk =   0.0066667
        k(  110) = (   0.0500000   0.4907477   0.0000000), wk =   0.0066667
        k(  111) = (   0.0500000   0.5099927   0.0000000), wk =   0.0066667
        k(  112) = (   0.0500000   0.5292377   0.0000000), wk =   0.0066667
        k(  113) = (   0.0500000   0.5484828   0.0000000), wk =   0.0066667
        k(  114) = (   0.0500000   0.5677278   0.0000000), wk =   0.0066667
        k(  115) = (   0.0666667   0.1154701   0.0000000), wk =   0.0033333
        k(  116) = (   0.0666667   0.1347151   0.0000000), wk =   0.0066667
        k(  117) = (   0.0666667   0.1539601   0.0000000), wk =   0.0066667
        k(  118) = (   0.0666667   0.1732051   0.0000000), wk =   0.0066667
        k(  119) = (   0.0666667   0.1924501   0.0000000), wk =   0.0066667
        k(  120) = (   0.0666667   0.2116951   0.0000000), wk =   0.0066667
        k(  121) = (   0.0666667   0.2309401   0.0000000), wk =   0.0066667
        k(  122) = (   0.0666667   0.2501851   0.0000000), wk =   0.0066667
        k(  123) = (   0.0666667   0.2694301   0.0000000), wk =   0.0066667
        k(  124) = (   0.0666667   0.2886751   0.0000000), wk =   0.0066667
        k(  125) = (   0.0666667   0.3079201   0.0000000), wk =   0.0066667
        k(  126) = (   0.0666667   0.3271652   0.0000000), wk =   0.0066667
        k(  127) = (   0.0666667   0.3464102   0.0000000), wk =   0.0066667
        k(  128) = (   0.0666667   0.3656552   0.0000000), wk =   0.0066667
        k(  129) = (   0.0666667   0.3849002   0.0000000), wk =   0.0066667
        k(  130) = (   0.0666667   0.4041452   0.0000000), wk =   0.0066667
        k(  131) = (   0.0666667   0.4233902   0.0000000), wk =   0.0066667
        k(  132) = (   0.0666667   0.4426352   0.0000000), wk =   0.0066667
        k(  133) = (   0.0666667   0.4618802   0.0000000), wk =   0.0066667
        k(  134) = (   0.0666667   0.4811252   0.0000000), wk =   0.0066667
        k(  135) = (   0.0666667   0.5003702   0.0000000), wk =   0.0066667
        k(  136) = (   0.0666667   0.5196152   0.0000000), wk =   0.0066667
        k(  137) = (   0.0666667   0.5388603   0.0000000), wk =   0.0066667
        k(  138) = (   0.0666667   0.5581053   0.0000000), wk =   0.0066667
        k(  139) = (   0.0666667   0.5773503   0.0000000), wk =   0.0033333
        k(  140) = (   0.0833333   0.1443376   0.0000000), wk =   0.0033333
        k(  141) = (   0.0833333   0.1635826   0.0000000), wk =   0.0066667
        k(  142) = (   0.0833333   0.1828276   0.0000000), wk =   0.0066667
        k(  143) = (   0.0833333   0.2020726   0.0000000), wk =   0.0066667
        k(  144) = (   0.0833333   0.2213176   0.0000000), wk =   0.0066667
        k(  145) = (   0.0833333   0.2405626   0.0000000), wk =   0.0066667
        k(  146) = (   0.0833333   0.2598076   0.0000000), wk =   0.0066667
        k(  147) = (   0.0833333   0.2790526   0.0000000), wk =   0.0066667
        k(  148) = (   0.0833333   0.2982976   0.0000000), wk =   0.0066667
        k(  149) = (   0.0833333   0.3175426   0.0000000), wk =   0.0066667
        k(  150) = (   0.0833333   0.3367877   0.0000000), wk =   0.0066667
        k(  151) = (   0.0833333   0.3560327   0.0000000), wk =   0.0066667
        k(  152) = (   0.0833333   0.3752777   0.0000000), wk =   0.0066667
        k(  153) = (   0.0833333   0.3945227   0.0000000), wk =   0.0066667
        k(  154) = (   0.0833333   0.4137677   0.0000000), wk =   0.0066667
        k(  155) = (   0.0833333   0.4330127   0.0000000), wk =   0.0066667
        k(  156) = (   0.0833333   0.4522577   0.0000000), wk =   0.0066667
        k(  157) = (   0.0833333   0.4715027   0.0000000), wk =   0.0066667
        k(  158) = (   0.0833333   0.4907477   0.0000000), wk =   0.0066667
        k(  159) = (   0.0833333   0.5099927   0.0000000), wk =   0.0066667
        k(  160) = (   0.0833333   0.5292377   0.0000000), wk =   0.0066667
        k(  161) = (   0.0833333   0.5484828   0.0000000), wk =   0.0066667
        k(  162) = (   0.0833333   0.5677278   0.0000000), wk =   0.0066667
        k(  163) = (   0.1000000   0.1732051   0.0000000), wk =   0.0033333
        k(  164) = (   0.1000000   0.1924501   0.0000000), wk =   0.0066667
        k(  165) = (   0.1000000   0.2116951   0.0000000), wk =   0.0066667
        k(  166) = (   0.1000000   0.2309401   0.0000000), wk =   0.0066667
        k(  167) = (   0.1000000   0.2501851   0.0000000), wk =   0.0066667
        k(  168) = (   0.1000000   0.2694301   0.0000000), wk =   0.0066667
        k(  169) = (   0.1000000   0.2886751   0.0000000), wk =   0.0066667
        k(  170) = (   0.1000000   0.3079201   0.0000000), wk =   0.0066667
        k(  171) = (   0.1000000   0.3271652   0.0000000), wk =   0.0066667
        k(  172) = (   0.1000000   0.3464102   0.0000000), wk =   0.0066667
        k(  173) = (   0.1000000   0.3656552   0.0000000), wk =   0.0066667
        k(  174) = (   0.1000000   0.3849002   0.0000000), wk =   0.0066667
        k(  175) = (   0.1000000   0.4041452   0.0000000), wk =   0.0066667
        k(  176) = (   0.1000000   0.4233902   0.0000000), wk =   0.0066667
        k(  177) = (   0.1000000   0.4426352   0.0000000), wk =   0.0066667
        k(  178) = (   0.1000000   0.4618802   0.0000000), wk =   0.0066667
        k(  179) = (   0.1000000   0.4811252   0.0000000), wk =   0.0066667
        k(  180) = (   0.1000000   0.5003702   0.0000000), wk =   0.0066667
        k(  181) = (   0.1000000   0.5196152   0.0000000), wk =   0.0066667
        k(  182) = (   0.1000000   0.5388603   0.0000000), wk =   0.0066667
        k(  183) = (   0.1000000   0.5581053   0.0000000), wk =   0.0066667
        k(  184) = (   0.1000000   0.5773503   0.0000000), wk =   0.0033333
        k(  185) = (   0.1166667   0.2020726   0.0000000), wk =   0.0033333
        k(  186) = (   0.1166667   0.2213176   0.0000000), wk =   0.0066667
        k(  187) = (   0.1166667   0.2405626   0.0000000), wk =   0.0066667
        k(  188) = (   0.1166667   0.2598076   0.0000000), wk =   0.0066667
        k(  189) = (   0.1166667   0.2790526   0.0000000), wk =   0.0066667
        k(  190) = (   0.1166667   0.2982976   0.0000000), wk =   0.0066667
        k(  191) = (   0.1166667   0.3175426   0.0000000), wk =   0.0066667
        k(  192) = (   0.1166667   0.3367877   0.0000000), wk =   0.0066667
        k(  193) = (   0.1166667   0.3560327   0.0000000), wk =   0.0066667
        k(  194) = (   0.1166667   0.3752777   0.0000000), wk =   0.0066667
        k(  195) = (   0.1166667   0.3945227   0.0000000), wk =   0.0066667
        k(  196) = (   0.1166667   0.4137677   0.0000000), wk =   0.0066667
        k(  197) = (   0.1166667   0.4330127   0.0000000), wk =   0.0066667
        k(  198) = (   0.1166667   0.4522577   0.0000000), wk =   0.0066667
        k(  199) = (   0.1166667   0.4715027   0.0000000), wk =   0.0066667
        k(  200) = (   0.1166667   0.4907477   0.0000000), wk =   0.0066667
        k(  201) = (   0.1166667   0.5099927   0.0000000), wk =   0.0066667
        k(  202) = (   0.1166667   0.5292377   0.0000000), wk =   0.0066667
        k(  203) = (   0.1166667   0.5484828   0.0000000), wk =   0.0066667
        k(  204) = (   0.1166667   0.5677278   0.0000000), wk =   0.0066667
        k(  205) = (   0.1333333   0.2309401   0.0000000), wk =   0.0033333
        k(  206) = (   0.1333333   0.2501851   0.0000000), wk =   0.0066667
        k(  207) = (   0.1333333   0.2694301   0.0000000), wk =   0.0066667
        k(  208) = (   0.1333333   0.2886751   0.0000000), wk =   0.0066667
        k(  209) = (   0.1333333   0.3079201   0.0000000), wk =   0.0066667
        k(  210) = (   0.1333333   0.3271652   0.0000000), wk =   0.0066667
        k(  211) = (   0.1333333   0.3464102   0.0000000), wk =   0.0066667
        k(  212) = (   0.1333333   0.3656552   0.0000000), wk =   0.0066667
        k(  213) = (   0.1333333   0.3849002   0.0000000), wk =   0.0066667
        k(  214) = (   0.1333333   0.4041452   0.0000000), wk =   0.0066667
        k(  215) = (   0.1333333   0.4233902   0.0000000), wk =   0.0066667
        k(  216) = (   0.1333333   0.4426352   0.0000000), wk =   0.0066667
        k(  217) = (   0.1333333   0.4618802   0.0000000), wk =   0.0066667
        k(  218) = (   0.1333333   0.4811252   0.0000000), wk =   0.0066667
        k(  219) = (   0.1333333   0.5003702   0.0000000), wk =   0.0066667
        k(  220) = (   0.1333333   0.5196152   0.0000000), wk =   0.0066667
        k(  221) = (   0.1333333   0.5388603   0.0000000), wk =   0.0066667
        k(  222) = (   0.1333333   0.5581053   0.0000000), wk =   0.0066667
        k(  223) = (   0.1333333   0.5773503   0.0000000), wk =   0.0033333
        k(  224) = (   0.1500000   0.2598076   0.0000000), wk =   0.0033333
        k(  225) = (   0.1500000   0.2790526   0.0000000), wk =   0.0066667
        k(  226) = (   0.1500000   0.2982976   0.0000000), wk =   0.0066667
        k(  227) = (   0.1500000   0.3175426   0.0000000), wk =   0.0066667
        k(  228) = (   0.1500000   0.3367877   0.0000000), wk =   0.0066667
        k(  229) = (   0.1500000   0.3560327   0.0000000), wk =   0.0066667
        k(  230) = (   0.1500000   0.3752777   0.0000000), wk =   0.0066667
        k(  231) = (   0.1500000   0.3945227   0.0000000), wk =   0.0066667
        k(  232) = (   0.1500000   0.4137677   0.0000000), wk =   0.0066667
        k(  233) = (   0.1500000   0.4330127   0.0000000), wk =   0.0066667
        k(  234) = (   0.1500000   0.4522577   0.0000000), wk =   0.0066667
        k(  235) = (   0.1500000   0.4715027   0.0000000), wk =   0.0066667
        k(  236) = (   0.1500000   0.4907477   0.0000000), wk =   0.0066667
        k(  237) = (   0.1500000   0.5099927   0.0000000), wk =   0.0066667
        k(  238) = (   0.1500000   0.5292377   0.0000000), wk =   0.0066667
        k(  239) = (   0.1500000   0.5484828   0.0000000), wk =   0.0066667
        k(  240) = (   0.1500000   0.5677278   0.0000000), wk =   0.0066667
        k(  241) = (   0.1666667   0.2886751   0.0000000), wk =   0.0033333
        k(  242) = (   0.1666667   0.3079201   0.0000000), wk =   0.0066667
        k(  243) = (   0.1666667   0.3271652   0.0000000), wk =   0.0066667
        k(  244) = (   0.1666667   0.3464102   0.0000000), wk =   0.0066667
        k(  245) = (   0.1666667   0.3656552   0.0000000), wk =   0.0066667
        k(  246) = (   0.1666667   0.3849002   0.0000000), wk =   0.0066667
        k(  247) = (   0.1666667   0.4041452   0.0000000), wk =   0.0066667
        k(  248) = (   0.1666667   0.4233902   0.0000000), wk =   0.0066667
        k(  249) = (   0.1666667   0.4426352   0.0000000), wk =   0.0066667
        k(  250) = (   0.1666667   0.4618802   0.0000000), wk =   0.0066667
        k(  251) = (   0.1666667   0.4811252   0.0000000), wk =   0.0066667
        k(  252) = (   0.1666667   0.5003702   0.0000000), wk =   0.0066667
        k(  253) = (   0.1666667   0.5196152   0.0000000), wk =   0.0066667
        k(  254) = (   0.1666667   0.5388603   0.0000000), wk =   0.0066667
        k(  255) = (   0.1666667   0.5581053   0.0000000), wk =   0.0066667
        k(  256) = (   0.1666667   0.5773503   0.0000000), wk =   0.0033333
        k(  257) = (   0.1833333   0.3175426   0.0000000), wk =   0.0033333
        k(  258) = (   0.1833333   0.3367877   0.0000000), wk =   0.0066667
        k(  259) = (   0.1833333   0.3560327   0.0000000), wk =   0.0066667
        k(  260) = (   0.1833333   0.3752777   0.0000000), wk =   0.0066667
        k(  261) = (   0.1833333   0.3945227   0.0000000), wk =   0.0066667
        k(  262) = (   0.1833333   0.4137677   0.0000000), wk =   0.0066667
        k(  263) = (   0.1833333   0.4330127   0.0000000), wk =   0.0066667
        k(  264) = (   0.1833333   0.4522577   0.0000000), wk =   0.0066667
        k(  265) = (   0.1833333   0.4715027   0.0000000), wk =   0.0066667
        k(  266) = (   0.1833333   0.4907477   0.0000000), wk =   0.0066667
        k(  267) = (   0.1833333   0.5099927   0.0000000), wk =   0.0066667
        k(  268) = (   0.1833333   0.5292377   0.0000000), wk =   0.0066667
        k(  269) = (   0.1833333   0.5484828   0.0000000), wk =   0.0066667
        k(  270) = (   0.1833333   0.5677278   0.0000000), wk =   0.0066667
        k(  271) = (   0.2000000   0.3464102   0.0000000), wk =   0.0033333
        k(  272) = (   0.2000000   0.3656552   0.0000000), wk =   0.0066667
        k(  273) = (   0.2000000   0.3849002   0.0000000), wk =   0.0066667
        k(  274) = (   0.2000000   0.4041452   0.0000000), wk =   0.0066667
        k(  275) = (   0.2000000   0.4233902   0.0000000), wk =   0.0066667
        k(  276) = (   0.2000000   0.4426352   0.0000000), wk =   0.0066667
        k(  277) = (   0.2000000   0.4618802   0.0000000), wk =   0.0066667
        k(  278) = (   0.2000000   0.4811252   0.0000000), wk =   0.0066667
        k(  279) = (   0.2000000   0.5003702   0.0000000), wk =   0.0066667
        k(  280) = (   0.2000000   0.5196152   0.0000000), wk =   0.0066667
        k(  281) = (   0.2000000   0.5388603   0.0000000), wk =   0.0066667
        k(  282) = (   0.2000000   0.5581053   0.0000000), wk =   0.0066667
        k(  283) = (   0.2000000   0.5773503   0.0000000), wk =   0.0033333
        k(  284) = (   0.2166667   0.3752777   0.0000000), wk =   0.0033333
        k(  285) = (   0.2166667   0.3945227   0.0000000), wk =   0.0066667
        k(  286) = (   0.2166667   0.4137677   0.0000000), wk =   0.0066667
        k(  287) = (   0.2166667   0.4330127   0.0000000), wk =   0.0066667
        k(  288) = (   0.2166667   0.4522577   0.0000000), wk =   0.0066667
        k(  289) = (   0.2166667   0.4715027   0.0000000), wk =   0.0066667
        k(  290) = (   0.2166667   0.4907477   0.0000000), wk =   0.0066667
        k(  291) = (   0.2166667   0.5099927   0.0000000), wk =   0.0066667
        k(  292) = (   0.2166667   0.5292377   0.0000000), wk =   0.0066667
        k(  293) = (   0.2166667   0.5484828   0.0000000), wk =   0.0066667
        k(  294) = (   0.2166667   0.5677278   0.0000000), wk =   0.0066667
        k(  295) = (   0.2333333   0.4041452   0.0000000), wk =   0.0033333
        k(  296) = (   0.2333333   0.4233902   0.0000000), wk =   0.0066667
        k(  297) = (   0.2333333   0.4426352   0.0000000), wk =   0.0066667
        k(  298) = (   0.2333333   0.4618802   0.0000000), wk =   0.0066667
        k(  299) = (   0.2333333   0.4811252   0.0000000), wk =   0.0066667
        k(  300) = (   0.2333333   0.5003702   0.0000000), wk =   0.0066667
        k(  301) = (   0.2333333   0.5196152   0.0000000), wk =   0.0066667
        k(  302) = (   0.2333333   0.5388603   0.0000000), wk =   0.0066667
        k(  303) = (   0.2333333   0.5581053   0.0000000), wk =   0.0066667
        k(  304) = (   0.2333333   0.5773503   0.0000000), wk =   0.0033333
        k(  305) = (   0.2500000   0.4330127   0.0000000), wk =   0.0033333
        k(  306) = (   0.2500000   0.4522577   0.0000000), wk =   0.0066667
        k(  307) = (   0.2500000   0.4715027   0.0000000), wk =   0.0066667
        k(  308) = (   0.2500000   0.4907477   0.0000000), wk =   0.0066667
        k(  309) = (   0.2500000   0.5099927   0.0000000), wk =   0.0066667
        k(  310) = (   0.2500000   0.5292377   0.0000000), wk =   0.0066667
        k(  311) = (   0.2500000   0.5484828   0.0000000), wk =   0.0066667
        k(  312) = (   0.2500000   0.5677278   0.0000000), wk =   0.0066667
        k(  313) = (   0.2666667   0.4618802   0.0000000), wk =   0.0033333
        k(  314) = (   0.2666667   0.4811252   0.0000000), wk =   0.0066667
        k(  315) = (   0.2666667   0.5003702   0.0000000), wk =   0.0066667
        k(  316) = (   0.2666667   0.5196152   0.0000000), wk =   0.0066667
        k(  317) = (   0.2666667   0.5388603   0.0000000), wk =   0.0066667
        k(  318) = (   0.2666667   0.5581053   0.0000000), wk =   0.0066667
        k(  319) = (   0.2666667   0.5773503   0.0000000), wk =   0.0033333
        k(  320) = (   0.2833333   0.4907477   0.0000000), wk =   0.0033333
        k(  321) = (   0.2833333   0.5099927   0.0000000), wk =   0.0066667
        k(  322) = (   0.2833333   0.5292377   0.0000000), wk =   0.0066667
        k(  323) = (   0.2833333   0.5484828   0.0000000), wk =   0.0066667
        k(  324) = (   0.2833333   0.5677278   0.0000000), wk =   0.0066667
        k(  325) = (   0.3000000   0.5196152   0.0000000), wk =   0.0033333
        k(  326) = (   0.3000000   0.5388603   0.0000000), wk =   0.0066667
        k(  327) = (   0.3000000   0.5581053   0.0000000), wk =   0.0066667
        k(  328) = (   0.3000000   0.5773503   0.0000000), wk =   0.0033333
        k(  329) = (   0.3166667   0.5484828   0.0000000), wk =   0.0033333
        k(  330) = (   0.3166667   0.5677278   0.0000000), wk =   0.0066667
        k(  331) = (   0.3333333   0.5773503   0.0000000), wk =   0.0011111

                       cryst. coord.
        k(    1) = (   0.0000000   0.0000000   0.0000000), wk =   0.0005556
        k(    2) = (   0.0000000   0.0166667   0.0000000), wk =   0.0033333
        k(    3) = (   0.0000000   0.0333333   0.0000000), wk =   0.0033333
        k(    4) = (   0.0000000   0.0500000   0.0000000), wk =   0.0033333
        k(    5) = (   0.0000000   0.0666667   0.0000000), wk =   0.0033333
        k(    6) = (   0.0000000   0.0833333   0.0000000), wk =   0.0033333
        k(    7) = (   0.0000000   0.1000000   0.0000000), wk =   0.0033333
        k(    8) = (   0.0000000   0.1166667   0.0000000), wk =   0.0033333
        k(    9) = (   0.0000000   0.1333333   0.0000000), wk =   0.0033333
        k(   10) = (   0.0000000   0.1500000   0.0000000), wk =   0.0033333
        k(   11) = (   0.0000000   0.1666667   0.0000000), wk =   0.0033333
        k(   12) = (   0.0000000   0.1833333   0.0000000), wk =   0.0033333
        k(   13) = (   0.0000000   0.2000000   0.0000000), wk =   0.0033333
        k(   14) = (   0.0000000   0.2166667   0.0000000), wk =   0.0033333
        k(   15) = (   0.0000000   0.2333333   0.0000000), wk =   0.0033333
        k(   16) = (   0.0000000   0.2500000   0.0000000), wk =   0.0033333
        k(   17) = (   0.0000000   0.2666667   0.0000000), wk =   0.0033333
        k(   18) = (   0.0000000   0.2833333   0.0000000), wk =   0.0033333
        k(   19) = (   0.0000000   0.3000000   0.0000000), wk =   0.0033333
        k(   20) = (   0.0000000   0.3166667   0.0000000), wk =   0.0033333
        k(   21) = (   0.0000000   0.3333333   0.0000000), wk =   0.0033333
        k(   22) = (   0.0000000   0.3500000   0.0000000), wk =   0.0033333
        k(   23) = (   0.0000000   0.3666667   0.0000000), wk =   0.0033333
        k(   24) = (   0.0000000   0.3833333   0.0000000), wk =   0.0033333
        k(   25) = (   0.0000000   0.4000000   0.0000000), wk =   0.0033333
        k(   26) = (   0.0000000   0.4166667   0.0000000), wk =   0.0033333
        k(   27) = (   0.0000000   0.4333333   0.0000000), wk =   0.0033333
        k(   28) = (   0.0000000   0.4500000   0.0000000), wk =   0.0033333
        k(   29) = (   0.0000000   0.4666667   0.0000000), wk =   0.0033333
        k(   30) = (   0.0000000   0.4833333   0.0000000), wk =   0.0033333
        k(   31) = (   0.0000000  -0.5000000   0.0000000), wk =   0.0016667
        k(   32) = (   0.0166667   0.0166667   0.0000000), wk =   0.0033333
        k(   33) = (   0.0166667   0.0333333   0.0000000), wk =   0.0066667
        k(   34) = (   0.0166667   0.0500000   0.0000000), wk =   0.0066667
        k(   35) = (   0.0166667   0.0666667   0.0000000), wk =   0.0066667
        k(   36) = (   0.0166667   0.0833333   0.0000000), wk =   0.0066667
        k(   37) = (   0.0166667   0.1000000   0.0000000), wk =   0.0066667
        k(   38) = (   0.0166667   0.1166667   0.0000000), wk =   0.0066667
        k(   39) = (   0.0166667   0.1333333   0.0000000), wk =   0.0066667
        k(   40) = (   0.0166667   0.1500000   0.0000000), wk =   0.0066667
        k(   41) = (   0.0166667   0.1666667   0.0000000), wk =   0.0066667
        k(   42) = (   0.0166667   0.1833333   0.0000000), wk =   0.0066667
        k(   43) = (   0.0166667   0.2000000   0.0000000), wk =   0.0066667
        k(   44) = (   0.0166667   0.2166667   0.0000000), wk =   0.0066667
        k(   45) = (   0.0166667   0.2333333   0.0000000), wk =   0.0066667
        k(   46) = (   0.0166667   0.2500000   0.0000000), wk =   0.0066667
        k(   47) = (   0.0166667   0.2666667   0.0000000), wk =   0.0066667
        k(   48) = (   0.0166667   0.2833333   0.0000000), wk =   0.0066667
        k(   49) = (   0.0166667   0.3000000   0.0000000), wk =   0.0066667
        k(   50) = (   0.0166667   0.3166667   0.0000000), wk =   0.0066667
        k(   51) = (   0.0166667   0.3333333   0.0000000), wk =   0.0066667
        k(   52) = (   0.0166667   0.3500000   0.0000000), wk =   0.0066667
        k(   53) = (   0.0166667   0.3666667   0.0000000), wk =   0.0066667
        k(   54) = (   0.0166667   0.3833333   0.0000000), wk =   0.0066667
        k(   55) = (   0.0166667   0.4000000   0.0000000), wk =   0.0066667
        k(   56) = (   0.0166667   0.4166667   0.0000000), wk =   0.0066667
        k(   57) = (   0.0166667   0.4333333   0.0000000), wk =   0.0066667
        k(   58) = (   0.0166667   0.4500000   0.0000000), wk =   0.0066667
        k(   59) = (   0.0166667   0.4666667   0.0000000), wk =   0.0066667
        k(   60) = (   0.0166667   0.4833333   0.0000000), wk =   0.0066667
        k(   61) = (   0.0333333   0.0333333   0.0000000), wk =   0.0033333
        k(   62) = (   0.0333333   0.0500000   0.0000000), wk =   0.0066667
        k(   63) = (   0.0333333   0.0666667   0.0000000), wk =   0.0066667
        k(   64) = (   0.0333333   0.0833333   0.0000000), wk =   0.0066667
        k(   65) = (   0.0333333   0.1000000   0.0000000), wk =   0.0066667
        k(   66) = (   0.0333333   0.1166667   0.0000000), wk =   0.0066667
        k(   67) = (   0.0333333   0.1333333   0.0000000), wk =   0.0066667
        k(   68) = (   0.0333333   0.1500000   0.0000000), wk =   0.0066667
        k(   69) = (   0.0333333   0.1666667   0.0000000), wk =   0.0066667
        k(   70) = (   0.0333333   0.1833333   0.0000000), wk =   0.0066667
        k(   71) = (   0.0333333   0.2000000   0.0000000), wk =   0.0066667
        k(   72) = (   0.0333333   0.2166667   0.0000000), wk =   0.0066667
        k(   73) = (   0.0333333   0.2333333   0.0000000), wk =   0.0066667
        k(   74) = (   0.0333333   0.2500000   0.0000000), wk =   0.0066667
        k(   75) = (   0.0333333   0.2666667   0.0000000), wk =   0.0066667
        k(   76) = (   0.0333333   0.2833333   0.0000000), wk =   0.0066667
        k(   77) = (   0.0333333   0.3000000   0.0000000), wk =   0.0066667
        k(   78) = (   0.0333333   0.3166667   0.0000000), wk =   0.0066667
        k(   79) = (   0.0333333   0.3333333   0.0000000), wk =   0.0066667
        k(   80) = (   0.0333333   0.3500000   0.0000000), wk =   0.0066667
        k(   81) = (   0.0333333   0.3666667   0.0000000), wk =   0.0066667
        k(   82) = (   0.0333333   0.3833333   0.0000000), wk =   0.0066667
        k(   83) = (   0.0333333   0.4000000   0.0000000), wk =   0.0066667
        k(   84) = (   0.0333333   0.4166667   0.0000000), wk =   0.0066667
        k(   85) = (   0.0333333   0.4333333   0.0000000), wk =   0.0066667
        k(   86) = (   0.0333333   0.4500000   0.0000000), wk =   0.0066667
        k(   87) = (   0.0333333   0.4666667   0.0000000), wk =   0.0066667
        k(   88) = (   0.0333333   0.4833333   0.0000000), wk =   0.0033333
        k(   89) = (   0.0500000   0.0500000   0.0000000), wk =   0.0033333
        k(   90) = (   0.0500000   0.0666667   0.0000000), wk =   0.0066667
        k(   91) = (   0.0500000   0.0833333   0.0000000), wk =   0.0066667
        k(   92) = (   0.0500000   0.1000000   0.0000000), wk =   0.0066667
        k(   93) = (   0.0500000   0.1166667   0.0000000), wk =   0.0066667
        k(   94) = (   0.0500000   0.1333333   0.0000000), wk =   0.0066667
        k(   95) = (   0.0500000   0.1500000   0.0000000), wk =   0.0066667
        k(   96) = (   0.0500000   0.1666667   0.0000000), wk =   0.0066667
        k(   97) = (   0.0500000   0.1833333   0.0000000), wk =   0.0066667
        k(   98) = (   0.0500000   0.2000000   0.0000000), wk =   0.0066667
        k(   99) = (   0.0500000   0.2166667   0.0000000), wk =   0.0066667
        k(  100) = (   0.0500000   0.2333333   0.0000000), wk =   0.0066667
        k(  101) = (   0.0500000   0.2500000   0.0000000), wk =   0.0066667
        k(  102) = (   0.0500000   0.2666667   0.0000000), wk =   0.0066667
        k(  103) = (   0.0500000   0.2833333   0.0000000), wk =   0.0066667
        k(  104) = (   0.0500000   0.3000000   0.0000000), wk =   0.0066667
        k(  105) = (   0.0500000   0.3166667   0.0000000), wk =   0.0066667
        k(  106) = (   0.0500000   0.3333333   0.0000000), wk =   0.0066667
        k(  107) = (   0.0500000   0.3500000   0.0000000), wk =   0.0066667
        k(  108) = (   0.0500000   0.3666667   0.0000000), wk =   0.0066667
        k(  109) = (   0.0500000   0.3833333   0.0000000), wk =   0.0066667
        k(  110) = (   0.0500000   0.4000000   0.0000000), wk =   0.0066667
        k(  111) = (   0.0500000   0.4166667   0.0000000), wk =   0.0066667
        k(  112) = (   0.0500000   0.4333333   0.0000000), wk =   0.0066667
        k(  113) = (   0.0500000   0.4500000   0.0000000), wk =   0.0066667
        k(  114) = (   0.0500000   0.4666667   0.0000000), wk =   0.0066667
        k(  115) = (   0.0666667   0.0666667   0.0000000), wk =   0.0033333
        k(  116) = (   0.0666667   0.0833333   0.0000000), wk =   0.0066667
        k(  117) = (   0.0666667   0.1000000   0.0000000), wk =   0.0066667
        k(  118) = (   0.0666667   0.1166667   0.0000000), wk =   0.0066667
        k(  119) = (   0.0666667   0.1333333   0.0000000), wk =   0.0066667
        k(  120) = (   0.0666667   0.1500000   0.0000000), wk =   0.0066667
        k(  121) = (   0.0666667   0.1666667   0.0000000), wk =   0.0066667
        k(  122) = (   0.0666667   0.1833333   0.0000000), wk =   0.0066667
        k(  123) = (   0.0666667   0.2000000   0.0000000), wk =   0.0066667
        k(  124) = (   0.0666667   0.2166667   0.0000000), wk =   0.0066667
        k(  125) = (   0.0666667   0.2333333   0.0000000), wk =   0.0066667
        k(  126) = (   0.0666667   0.2500000   0.0000000), wk =   0.0066667
        k(  127) = (   0.0666667   0.2666667   0.0000000), wk =   0.0066667
        k(  128) = (   0.0666667   0.2833333   0.0000000), wk =   0.0066667
        k(  129) = (   0.0666667   0.3000000   0.0000000), wk =   0.0066667
        k(  130) = (   0.0666667   0.3166667   0.0000000), wk =   0.0066667
        k(  131) = (   0.0666667   0.3333333   0.0000000), wk =   0.0066667
        k(  132) = (   0.0666667   0.3500000   0.0000000), wk =   0.0066667
        k(  133) = (   0.0666667   0.3666667   0.0000000), wk =   0.0066667
        k(  134) = (   0.0666667   0.3833333   0.0000000), wk =   0.0066667
        k(  135) = (   0.0666667   0.4000000   0.0000000), wk =   0.0066667
        k(  136) = (   0.0666667   0.4166667   0.0000000), wk =   0.0066667
        k(  137) = (   0.0666667   0.4333333   0.0000000), wk =   0.0066667
        k(  138) = (   0.0666667   0.4500000   0.0000000), wk =   0.0066667
        k(  139) = (   0.0666667   0.4666667   0.0000000), wk =   0.0033333
        k(  140) = (   0.0833333   0.0833333   0.0000000), wk =   0.0033333
        k(  141) = (   0.0833333   0.1000000   0.0000000), wk =   0.0066667
        k(  142) = (   0.0833333   0.1166667   0.0000000), wk =   0.0066667
        k(  143) = (   0.0833333   0.1333333   0.0000000), wk =   0.0066667
        k(  144) = (   0.0833333   0.1500000   0.0000000), wk =   0.0066667
        k(  145) = (   0.0833333   0.1666667   0.0000000), wk =   0.0066667
        k(  146) = (   0.0833333   0.1833333   0.0000000), wk =   0.0066667
        k(  147) = (   0.0833333   0.2000000   0.0000000), wk =   0.0066667
        k(  148) = (   0.0833333   0.2166667   0.0000000), wk =   0.0066667
        k(  149) = (   0.0833333   0.2333333   0.0000000), wk =   0.0066667
        k(  150) = (   0.0833333   0.2500000   0.0000000), wk =   0.0066667
        k(  151) = (   0.0833333   0.2666667   0.0000000), wk =   0.0066667
        k(  152) = (   0.0833333   0.2833333   0.0000000), wk =   0.0066667
        k(  153) = (   0.0833333   0.3000000   0.0000000), wk =   0.0066667
        k(  154) = (   0.0833333   0.3166667   0.0000000), wk =   0.0066667
        k(  155) = (   0.0833333   0.3333333   0.0000000), wk =   0.0066667
        k(  156) = (   0.0833333   0.3500000   0.0000000), wk =   0.0066667
        k(  157) = (   0.0833333   0.3666667   0.0000000), wk =   0.0066667
        k(  158) = (   0.0833333   0.3833333   0.0000000), wk =   0.0066667
        k(  159) = (   0.0833333   0.4000000   0.0000000), wk =   0.0066667
        k(  160) = (   0.0833333   0.4166667   0.0000000), wk =   0.0066667
        k(  161) = (   0.0833333   0.4333333   0.0000000), wk =   0.0066667
        k(  162) = (   0.0833333   0.4500000   0.0000000), wk =   0.0066667
        k(  163) = (   0.1000000   0.1000000   0.0000000), wk =   0.0033333
        k(  164) = (   0.1000000   0.1166667   0.0000000), wk =   0.0066667
        k(  165) = (   0.1000000   0.1333333   0.0000000), wk =   0.0066667
        k(  166) = (   0.1000000   0.1500000   0.0000000), wk =   0.0066667
        k(  167) = (   0.1000000   0.1666667   0.0000000), wk =   0.0066667
        k(  168) = (   0.1000000   0.1833333   0.0000000), wk =   0.0066667
        k(  169) = (   0.1000000   0.2000000   0.0000000), wk =   0.0066667
        k(  170) = (   0.1000000   0.2166667   0.0000000), wk =   0.0066667
        k(  171) = (   0.1000000   0.2333333   0.0000000), wk =   0.0066667
        k(  172) = (   0.1000000   0.2500000   0.0000000), wk =   0.0066667
        k(  173) = (   0.1000000   0.2666667   0.0000000), wk =   0.0066667
        k(  174) = (   0.1000000   0.2833333   0.0000000), wk =   0.0066667
        k(  175) = (   0.1000000   0.3000000   0.0000000), wk =   0.0066667
        k(  176) = (   0.1000000   0.3166667   0.0000000), wk =   0.0066667
        k(  177) = (   0.1000000   0.3333333   0.0000000), wk =   0.0066667
        k(  178) = (   0.1000000   0.3500000   0.0000000), wk =   0.0066667
        k(  179) = (   0.1000000   0.3666667   0.0000000), wk =   0.0066667
        k(  180) = (   0.1000000   0.3833333   0.0000000), wk =   0.0066667
        k(  181) = (   0.1000000   0.4000000   0.0000000), wk =   0.0066667
        k(  182) = (   0.1000000   0.4166667   0.0000000), wk =   0.0066667
        k(  183) = (   0.1000000   0.4333333   0.0000000), wk =   0.0066667
        k(  184) = (   0.1000000   0.4500000   0.0000000), wk =   0.0033333
        k(  185) = (   0.1166667   0.1166667   0.0000000), wk =   0.0033333
        k(  186) = (   0.1166667   0.1333333   0.0000000), wk =   0.0066667
        k(  187) = (   0.1166667   0.1500000   0.0000000), wk =   0.0066667
        k(  188) = (   0.1166667   0.1666667   0.0000000), wk =   0.0066667
        k(  189) = (   0.1166667   0.1833333   0.0000000), wk =   0.0066667
        k(  190) = (   0.1166667   0.2000000   0.0000000), wk =   0.0066667
        k(  191) = (   0.1166667   0.2166667   0.0000000), wk =   0.0066667
        k(  192) = (   0.1166667   0.2333333   0.0000000), wk =   0.0066667
        k(  193) = (   0.1166667   0.2500000   0.0000000), wk =   0.0066667
        k(  194) = (   0.1166667   0.2666667   0.0000000), wk =   0.0066667
        k(  195) = (   0.1166667   0.2833333   0.0000000), wk =   0.0066667
        k(  196) = (   0.1166667   0.3000000   0.0000000), wk =   0.0066667
        k(  197) = (   0.1166667   0.3166667   0.0000000), wk =   0.0066667
        k(  198) = (   0.1166667   0.3333333   0.0000000), wk =   0.0066667
        k(  199) = (   0.1166667   0.3500000   0.0000000), wk =   0.0066667
        k(  200) = (   0.1166667   0.3666667   0.0000000), wk =   0.0066667
        k(  201) = (   0.1166667   0.3833333   0.0000000), wk =   0.0066667
        k(  202) = (   0.1166667   0.4000000   0.0000000), wk =   0.0066667
        k(  203) = (   0.1166667   0.4166667   0.0000000), wk =   0.0066667
        k(  204) = (   0.1166667   0.4333333   0.0000000), wk =   0.0066667
        k(  205) = (   0.1333333   0.1333333   0.0000000), wk =   0.0033333
        k(  206) = (   0.1333333   0.1500000   0.0000000), wk =   0.0066667
        k(  207) = (   0.1333333   0.1666667   0.0000000), wk =   0.0066667
        k(  208) = (   0.1333333   0.1833333   0.0000000), wk =   0.0066667
        k(  209) = (   0.1333333   0.2000000   0.0000000), wk =   0.0066667
        k(  210) = (   0.1333333   0.2166667   0.0000000), wk =   0.0066667
        k(  211) = (   0.1333333   0.2333333   0.0000000), wk =   0.0066667
        k(  212) = (   0.1333333   0.2500000   0.0000000), wk =   0.0066667
        k(  213) = (   0.1333333   0.2666667   0.0000000), wk =   0.0066667
        k(  214) = (   0.1333333   0.2833333   0.0000000), wk =   0.0066667
        k(  215) = (   0.1333333   0.3000000   0.0000000), wk =   0.0066667
        k(  216) = (   0.1333333   0.3166667   0.0000000), wk =   0.0066667
        k(  217) = (   0.1333333   0.3333333   0.0000000), wk =   0.0066667
        k(  218) = (   0.1333333   0.3500000   0.0000000), wk =   0.0066667
        k(  219) = (   0.1333333   0.3666667   0.0000000), wk =   0.0066667
        k(  220) = (   0.1333333   0.3833333   0.0000000), wk =   0.0066667
        k(  221) = (   0.1333333   0.4000000   0.0000000), wk =   0.0066667
        k(  222) = (   0.1333333   0.4166667   0.0000000), wk =   0.0066667
        k(  223) = (   0.1333333   0.4333333   0.0000000), wk =   0.0033333
        k(  224) = (   0.1500000   0.1500000   0.0000000), wk =   0.0033333
        k(  225) = (   0.1500000   0.1666667   0.0000000), wk =   0.0066667
        k(  226) = (   0.1500000   0.1833333   0.0000000), wk =   0.0066667
        k(  227) = (   0.1500000   0.2000000   0.0000000), wk =   0.0066667
        k(  228) = (   0.1500000   0.2166667   0.0000000), wk =   0.0066667
        k(  229) = (   0.1500000   0.2333333   0.0000000), wk =   0.0066667
        k(  230) = (   0.1500000   0.2500000   0.0000000), wk =   0.0066667
        k(  231) = (   0.1500000   0.2666667   0.0000000), wk =   0.0066667
        k(  232) = (   0.1500000   0.2833333   0.0000000), wk =   0.0066667
        k(  233) = (   0.1500000   0.3000000   0.0000000), wk =   0.0066667
        k(  234) = (   0.1500000   0.3166667   0.0000000), wk =   0.0066667
        k(  235) = (   0.1500000   0.3333333   0.0000000), wk =   0.0066667
        k(  236) = (   0.1500000   0.3500000   0.0000000), wk =   0.0066667
        k(  237) = (   0.1500000   0.3666667   0.0000000), wk =   0.0066667
        k(  238) = (   0.1500000   0.3833333   0.0000000), wk =   0.0066667
        k(  239) = (   0.1500000   0.4000000   0.0000000), wk =   0.0066667
        k(  240) = (   0.1500000   0.4166667   0.0000000), wk =   0.0066667
        k(  241) = (   0.1666667   0.1666667   0.0000000), wk =   0.0033333
        k(  242) = (   0.1666667   0.1833333   0.0000000), wk =   0.0066667
        k(  243) = (   0.1666667   0.2000000   0.0000000), wk =   0.0066667
        k(  244) = (   0.1666667   0.2166667   0.0000000), wk =   0.0066667
        k(  245) = (   0.1666667   0.2333333   0.0000000), wk =   0.0066667
        k(  246) = (   0.1666667   0.2500000   0.0000000), wk =   0.0066667
        k(  247) = (   0.1666667   0.2666667   0.0000000), wk =   0.0066667
        k(  248) = (   0.1666667   0.2833333   0.0000000), wk =   0.0066667
        k(  249) = (   0.1666667   0.3000000   0.0000000), wk =   0.0066667
        k(  250) = (   0.1666667   0.3166667   0.0000000), wk =   0.0066667
        k(  251) = (   0.1666667   0.3333333   0.0000000), wk =   0.0066667
        k(  252) = (   0.1666667   0.3500000   0.0000000), wk =   0.0066667
        k(  253) = (   0.1666667   0.3666667   0.0000000), wk =   0.0066667
        k(  254) = (   0.1666667   0.3833333   0.0000000), wk =   0.0066667
        k(  255) = (   0.1666667   0.4000000   0.0000000), wk =   0.0066667
        k(  256) = (   0.1666667   0.4166667   0.0000000), wk =   0.0033333
        k(  257) = (   0.1833333   0.1833333   0.0000000), wk =   0.0033333
        k(  258) = (   0.1833333   0.2000000   0.0000000), wk =   0.0066667
        k(  259) = (   0.1833333   0.2166667   0.0000000), wk =   0.0066667
        k(  260) = (   0.1833333   0.2333333   0.0000000), wk =   0.0066667
        k(  261) = (   0.1833333   0.2500000   0.0000000), wk =   0.0066667
        k(  262) = (   0.1833333   0.2666667   0.0000000), wk =   0.0066667
        k(  263) = (   0.1833333   0.2833333   0.0000000), wk =   0.0066667
        k(  264) = (   0.1833333   0.3000000   0.0000000), wk =   0.0066667
        k(  265) = (   0.1833333   0.3166667   0.0000000), wk =   0.0066667
        k(  266) = (   0.1833333   0.3333333   0.0000000), wk =   0.0066667
        k(  267) = (   0.1833333   0.3500000   0.0000000), wk =   0.0066667
        k(  268) = (   0.1833333   0.3666667   0.0000000), wk =   0.0066667
        k(  269) = (   0.1833333   0.3833333   0.0000000), wk =   0.0066667
        k(  270) = (   0.1833333   0.4000000   0.0000000), wk =   0.0066667
        k(  271) = (   0.2000000   0.2000000   0.0000000), wk =   0.0033333
        k(  272) = (   0.2000000   0.2166667   0.0000000), wk =   0.0066667
        k(  273) = (   0.2000000   0.2333333   0.0000000), wk =   0.0066667
        k(  274) = (   0.2000000   0.2500000   0.0000000), wk =   0.0066667
        k(  275) = (   0.2000000   0.2666667   0.0000000), wk =   0.0066667
        k(  276) = (   0.2000000   0.2833333   0.0000000), wk =   0.0066667
        k(  277) = (   0.2000000   0.3000000   0.0000000), wk =   0.0066667
        k(  278) = (   0.2000000   0.3166667   0.0000000), wk =   0.0066667
        k(  279) = (   0.2000000   0.3333333   0.0000000), wk =   0.0066667
        k(  280) = (   0.2000000   0.3500000   0.0000000), wk =   0.0066667
        k(  281) = (   0.2000000   0.3666667   0.0000000), wk =   0.0066667
        k(  282) = (   0.2000000   0.3833333   0.0000000), wk =   0.0066667
        k(  283) = (   0.2000000   0.4000000   0.0000000), wk =   0.0033333
        k(  284) = (   0.2166667   0.2166667   0.0000000), wk =   0.0033333
        k(  285) = (   0.2166667   0.2333333   0.0000000), wk =   0.0066667
        k(  286) = (   0.2166667   0.2500000   0.0000000), wk =   0.0066667
        k(  287) = (   0.2166667   0.2666667   0.0000000), wk =   0.0066667
        k(  288) = (   0.2166667   0.2833333   0.0000000), wk =   0.0066667
        k(  289) = (   0.2166667   0.3000000   0.0000000), wk =   0.0066667
        k(  290) = (   0.2166667   0.3166667   0.0000000), wk =   0.0066667
        k(  291) = (   0.2166667   0.3333333   0.0000000), wk =   0.0066667
        k(  292) = (   0.2166667   0.3500000   0.0000000), wk =   0.0066667
        k(  293) = (   0.2166667   0.3666667   0.0000000), wk =   0.0066667
        k(  294) = (   0.2166667   0.3833333   0.0000000), wk =   0.0066667
        k(  295) = (   0.2333333   0.2333333   0.0000000), wk =   0.0033333
        k(  296) = (   0.2333333   0.2500000   0.0000000), wk =   0.0066667
        k(  297) = (   0.2333333   0.2666667   0.0000000), wk =   0.0066667
        k(  298) = (   0.2333333   0.2833333   0.0000000), wk =   0.0066667
        k(  299) = (   0.2333333   0.3000000   0.0000000), wk =   0.0066667
        k(  300) = (   0.2333333   0.3166667   0.0000000), wk =   0.0066667
        k(  301) = (   0.2333333   0.3333333   0.0000000), wk =   0.0066667
        k(  302) = (   0.2333333   0.3500000   0.0000000), wk =   0.0066667
        k(  303) = (   0.2333333   0.3666667   0.0000000), wk =   0.0066667
        k(  304) = (   0.2333333   0.3833333   0.0000000), wk =   0.0033333
        k(  305) = (   0.2500000   0.2500000   0.0000000), wk =   0.0033333
        k(  306) = (   0.2500000   0.2666667   0.0000000), wk =   0.0066667
        k(  307) = (   0.2500000   0.2833333   0.0000000), wk =   0.0066667
        k(  308) = (   0.2500000   0.3000000   0.0000000), wk =   0.0066667
        k(  309) = (   0.2500000   0.3166667   0.0000000), wk =   0.0066667
        k(  310) = (   0.2500000   0.3333333   0.0000000), wk =   0.0066667
        k(  311) = (   0.2500000   0.3500000   0.0000000), wk =   0.0066667
        k(  312) = (   0.2500000   0.3666667   0.0000000), wk =   0.0066667
        k(  313) = (   0.2666667   0.2666667   0.0000000), wk =   0.0033333
        k(  314) = (   0.2666667   0.2833333   0.0000000), wk =   0.0066667
        k(  315) = (   0.2666667   0.3000000   0.0000000), wk =   0.0066667
        k(  316) = (   0.2666667   0.3166667   0.0000000), wk =   0.0066667
        k(  317) = (   0.2666667   0.3333333   0.0000000), wk =   0.0066667
        k(  318) = (   0.2666667   0.3500000   0.0000000), wk =   0.0066667
        k(  319) = (   0.2666667   0.3666667   0.0000000), wk =   0.0033333
        k(  320) = (   0.2833333   0.2833333   0.0000000), wk =   0.0033333
        k(  321) = (   0.2833333   0.3000000   0.0000000), wk =   0.0066667
        k(  322) = (   0.2833333   0.3166667   0.0000000), wk =   0.0066667
        k(  323) = (   0.2833333   0.3333333   0.0000000), wk =   0.0066667
        k(  324) = (   0.2833333   0.3500000   0.0000000), wk =   0.0066667
        k(  325) = (   0.3000000   0.3000000   0.0000000), wk =   0.0033333
        k(  326) = (   0.3000000   0.3166667   0.0000000), wk =   0.0066667
        k(  327) = (   0.3000000   0.3333333   0.0000000), wk =   0.0066667
        k(  328) = (   0.3000000   0.3500000   0.0000000), wk =   0.0033333
        k(  329) = (   0.3166667   0.3166667   0.0000000), wk =   0.0033333
        k(  330) = (   0.3166667   0.3333333   0.0000000), wk =   0.0066667
        k(  331) = (   0.3333333   0.3333333   0.0000000), wk =   0.0011111

     Dense  grid:    33733 G-vectors     FFT dimensions: (  24,  24, 144)

     Dynamical RAM for                 wfc:       0.08 MB

     Dynamical RAM for     wfc (w. buffer):       0.08 MB

     Dynamical RAM for           str. fact:       0.13 MB

     Dynamical RAM for           local pot:       0.00 MB

     Dynamical RAM for          nlocal pot:       0.13 MB

     Dynamical RAM for                qrad:       0.71 MB

     Dynamical RAM for          rho,v,vnew:       0.43 MB

     Dynamical RAM for           G-vectors:       0.27 MB

     Dynamical RAM for          h,s,v(r/c):       0.02 MB

     Dynamical RAM for          <psi|beta>:       0.00 MB

     Dynamical RAM for                 psi:       0.16 MB

     Dynamical RAM for                hpsi:       0.16 MB

     Dynamical RAM for      wfcinit/wfcrot:       0.16 MB

     Estimated static dynamical RAM per process >       2.34 MB

     Estimated max dynamical RAM per process >       2.68 MB

     Estimated total dynamical RAM >      21.45 MB

     The potential is recalculated from file :
     ./tmp/hBN_1L_LDA.save/charge-density

     Starting wfcs are    8 randomized atomic wfcs +    2 random wfcs

     Band Structure Calculation
     Davidson diagonalization with overlap

     Computing kpt #:     1  of   331
     total cpu time spent up to now is        1.0 secs

     Computing kpt #:     2  of   331
     total cpu time spent up to now is        1.3 secs

     Computing kpt #:     3  of   331
     total cpu time spent up to now is        1.7 secs

     Computing kpt #:     4  of   331
     total cpu time spent up to now is        2.0 secs

     Computing kpt #:     5  of   331
     total cpu time spent up to now is        2.4 secs

     Computing kpt #:     6  of   331
     total cpu time spent up to now is        2.8 secs

     Computing kpt #:     7  of   331
     total cpu time spent up to now is        3.3 secs

     Computing kpt #:     8  of   331
     total cpu time spent up to now is        3.7 secs

     Computing kpt #:     9  of   331
     total cpu time spent up to now is        4.0 secs

     Computing kpt #:    10  of   331
     total cpu time spent up to now is        4.4 secs

     Computing kpt #:    11  of   331
     total cpu time spent up to now is        4.8 secs

     Computing kpt #:    12  of   331
     total cpu time spent up to now is        5.1 secs

     Computing kpt #:    13  of   331
     total cpu time spent up to now is        5.4 secs

     Computing kpt #:    14  of   331
     total cpu time spent up to now is        5.7 secs

     Computing kpt #:    15  of   331
     total cpu time spent up to now is        6.0 secs

     Computing kpt #:    16  of   331
     total cpu time spent up to now is        6.4 secs

     Computing kpt #:    17  of   331
     total cpu time spent up to now is        6.7 secs

     Computing kpt #:    18  of   331
     total cpu time spent up to now is        7.0 secs

     Computing kpt #:    19  of   331
     total cpu time spent up to now is        7.4 secs

     Computing kpt #:    20  of   331
     total cpu time spent up to now is        7.6 secs

     Computing kpt #:    21  of   331
     total cpu time spent up to now is        7.8 secs

     Computing kpt #:    22  of   331
     total cpu time spent up to now is        8.1 secs

     Computing kpt #:    23  of   331
     total cpu time spent up to now is        8.3 secs

     Computing kpt #:    24  of   331
     total cpu time spent up to now is        8.6 secs

     Computing kpt #:    25  of   331
     total cpu time spent up to now is        8.9 secs

     Computing kpt #:    26  of   331
     total cpu time spent up to now is        9.1 secs

     Computing kpt #:    27  of   331
     total cpu time spent up to now is        9.4 secs

     Computing kpt #:    28  of   331
     total cpu time spent up to now is        9.7 secs

     Computing kpt #:    29  of   331
     total cpu time spent up to now is       10.0 secs

     Computing kpt #:    30  of   331
     total cpu time spent up to now is       10.4 secs

     Computing kpt #:    31  of   331
     total cpu time spent up to now is       10.9 secs

     Computing kpt #:    32  of   331
     total cpu time spent up to now is       11.7 secs

     Computing kpt #:    33  of   331
     total cpu time spent up to now is       12.3 secs

     Computing kpt #:    34  of   331
     total cpu time spent up to now is       12.8 secs

     Computing kpt #:    35  of   331
     total cpu time spent up to now is       13.3 secs

     Computing kpt #:    36  of   331
     total cpu time spent up to now is       13.9 secs

     Computing kpt #:    37  of   331
     total cpu time spent up to now is       14.5 secs

     Computing kpt #:    38  of   331
     total cpu time spent up to now is       15.2 secs

     Computing kpt #:    39  of   331
     total cpu time spent up to now is       15.8 secs

     Computing kpt #:    40  of   331
     total cpu time spent up to now is       16.3 secs

     Computing kpt #:    41  of   331
     total cpu time spent up to now is       16.8 secs

     Computing kpt #:    42  of   331
     total cpu time spent up to now is       17.2 secs

     Computing kpt #:    43  of   331
     total cpu time spent up to now is       17.6 secs

     Computing kpt #:    44  of   331
     total cpu time spent up to now is       18.1 secs

     Computing kpt #:    45  of   331
     total cpu time spent up to now is       18.6 secs

     Computing kpt #:    46  of   331
     total cpu time spent up to now is       19.1 secs

     Computing kpt #:    47  of   331
     total cpu time spent up to now is       19.6 secs

     Computing kpt #:    48  of   331
     total cpu time spent up to now is       20.1 secs

     Computing kpt #:    49  of   331
     total cpu time spent up to now is       20.5 secs

     Computing kpt #:    50  of   331
     total cpu time spent up to now is       21.0 secs

     Computing kpt #:    51  of   331
     total cpu time spent up to now is       21.3 secs

     Computing kpt #:    52  of   331
     total cpu time spent up to now is       21.6 secs

     Computing kpt #:    53  of   331
     total cpu time spent up to now is       21.9 secs

     Computing kpt #:    54  of   331
     total cpu time spent up to now is       22.3 secs

     Computing kpt #:    55  of   331
     total cpu time spent up to now is       22.7 secs

     Computing kpt #:    56  of   331
     total cpu time spent up to now is       23.1 secs

     Computing kpt #:    57  of   331
     total cpu time spent up to now is       23.5 secs

     Computing kpt #:    58  of   331
     total cpu time spent up to now is       23.9 secs

     Computing kpt #:    59  of   331
     total cpu time spent up to now is       24.3 secs

     Computing kpt #:    60  of   331
     total cpu time spent up to now is       24.8 secs

     Computing kpt #:    61  of   331
     total cpu time spent up to now is       25.4 secs

     Computing kpt #:    62  of   331
     total cpu time spent up to now is       25.9 secs

     Computing kpt #:    63  of   331
     total cpu time spent up to now is       26.5 secs

     Computing kpt #:    64  of   331
     total cpu time spent up to now is       27.2 secs

     Computing kpt #:    65  of   331
     total cpu time spent up to now is       28.0 secs

     Computing kpt #:    66  of   331
     total cpu time spent up to now is       28.8 secs

     Computing kpt #:    67  of   331
     total cpu time spent up to now is       30.0 secs

     Computing kpt #:    68  of   331
     total cpu time spent up to now is       30.9 secs

     Computing kpt #:    69  of   331
     total cpu time spent up to now is       31.7 secs

     Computing kpt #:    70  of   331
     total cpu time spent up to now is       33.6 secs

     Computing kpt #:    71  of   331
     total cpu time spent up to now is       34.8 secs

     Computing kpt #:    72  of   331
     total cpu time spent up to now is       36.0 secs

     Computing kpt #:    73  of   331
     total cpu time spent up to now is       36.7 secs

     Computing kpt #:    74  of   331
     total cpu time spent up to now is       37.4 secs

     Computing kpt #:    75  of   331
     total cpu time spent up to now is       37.8 secs

     Computing kpt #:    76  of   331
     total cpu time spent up to now is       38.2 secs

     Computing kpt #:    77  of   331
     total cpu time spent up to now is       38.9 secs

     Computing kpt #:    78  of   331
     total cpu time spent up to now is       39.6 secs

     Computing kpt #:    79  of   331
     total cpu time spent up to now is       40.4 secs

     Computing kpt #:    80  of   331
     total cpu time spent up to now is       40.8 secs

     Computing kpt #:    81  of   331
     total cpu time spent up to now is       41.1 secs

     Computing kpt #:    82  of   331
     total cpu time spent up to now is       41.7 secs

     Computing kpt #:    83  of   331
     total cpu time spent up to now is       42.1 secs

     Computing kpt #:    84  of   331
     total cpu time spent up to now is       42.3 secs

     Computing kpt #:    85  of   331
     total cpu time spent up to now is       42.6 secs

     Computing kpt #:    86  of   331
     total cpu time spent up to now is       42.8 secs

     Computing kpt #:    87  of   331
     total cpu time spent up to now is       43.1 secs

     Computing kpt #:    88  of   331
     total cpu time spent up to now is       43.4 secs

     Computing kpt #:    89  of   331
     total cpu time spent up to now is       44.4 secs

     Computing kpt #:    90  of   331
     total cpu time spent up to now is       45.9 secs

     Computing kpt #:    91  of   331
     total cpu time spent up to now is       46.7 secs

     Computing kpt #:    92  of   331
     total cpu time spent up to now is       47.1 secs

     Computing kpt #:    93  of   331
     total cpu time spent up to now is       47.6 secs

     Computing kpt #:    94  of   331
     total cpu time spent up to now is       48.1 secs

     Computing kpt #:    95  of   331
     total cpu time spent up to now is       48.7 secs

     Computing kpt #:    96  of   331
     total cpu time spent up to now is       49.2 secs

     Computing kpt #:    97  of   331
     total cpu time spent up to now is       49.6 secs

     Computing kpt #:    98  of   331
     total cpu time spent up to now is       50.2 secs

     Computing kpt #:    99  of   331
     total cpu time spent up to now is       50.6 secs

     Computing kpt #:   100  of   331
     total cpu time spent up to now is       51.1 secs

     Computing kpt #:   101  of   331
     total cpu time spent up to now is       51.5 secs

     Computing kpt #:   102  of   331
     total cpu time spent up to now is       51.8 secs

     Computing kpt #:   103  of   331
     total cpu time spent up to now is       52.3 secs

     Computing kpt #:   104  of   331
     total cpu time spent up to now is       52.7 secs

     Computing kpt #:   105  of   331
     total cpu time spent up to now is       53.3 secs

     Computing kpt #:   106  of   331
     total cpu time spent up to now is       53.5 secs

     Computing kpt #:   107  of   331
     total cpu time spent up to now is       53.8 secs

     Computing kpt #:   108  of   331
     total cpu time spent up to now is       54.1 secs

     Computing kpt #:   109  of   331
     total cpu time spent up to now is       54.3 secs

     Computing kpt #:   110  of   331
     total cpu time spent up to now is       54.9 secs

     Computing kpt #:   111  of   331
     total cpu time spent up to now is       55.8 secs

     Computing kpt #:   112  of   331
     total cpu time spent up to now is       56.3 secs

     Computing kpt #:   113  of   331
     total cpu time spent up to now is       56.6 secs

     Computing kpt #:   114  of   331
     total cpu time spent up to now is       57.5 secs

     Computing kpt #:   115  of   331
     total cpu time spent up to now is       58.8 secs

     Computing kpt #:   116  of   331
     total cpu time spent up to now is       59.9 secs

     Computing kpt #:   117  of   331
     total cpu time spent up to now is       60.8 secs

     Computing kpt #:   118  of   331
     total cpu time spent up to now is       61.7 secs

     Computing kpt #:   119  of   331
     total cpu time spent up to now is       62.5 secs

     Computing kpt #:   120  of   331
     total cpu time spent up to now is       63.3 secs

     Computing kpt #:   121  of   331
     total cpu time spent up to now is       64.4 secs

     Computing kpt #:   122  of   331
     total cpu time spent up to now is       65.9 secs

     Computing kpt #:   123  of   331
     total cpu time spent up to now is       66.8 secs

     Computing kpt #:   124  of   331
     total cpu time spent up to now is       68.3 secs

     Computing kpt #:   125  of   331
     total cpu time spent up to now is       69.3 secs

     Computing kpt #:   126  of   331
     total cpu time spent up to now is       70.1 secs

     Computing kpt #:   127  of   331
     total cpu time spent up to now is       70.5 secs

     Computing kpt #:   128  of   331
     total cpu time spent up to now is       70.9 secs

     Computing kpt #:   129  of   331
     total cpu time spent up to now is       71.7 secs

     Computing kpt #:   130  of   331
     total cpu time spent up to now is       72.7 secs

     Computing kpt #:   131  of   331
     total cpu time spent up to now is       73.5 secs

     Computing kpt #:   132  of   331
     total cpu time spent up to now is       74.5 secs

     Computing kpt #:   133  of   331
     total cpu time spent up to now is       75.3 secs

     Computing kpt #:   134  of   331
     total cpu time spent up to now is       76.2 secs

     Computing kpt #:   135  of   331
     total cpu time spent up to now is       76.6 secs

     Computing kpt #:   136  of   331
     total cpu time spent up to now is       77.4 secs

     Computing kpt #:   137  of   331
     total cpu time spent up to now is       77.9 secs

     Computing kpt #:   138  of   331
     total cpu time spent up to now is       78.5 secs

     Computing kpt #:   139  of   331
     total cpu time spent up to now is       79.3 secs

     Computing kpt #:   140  of   331
     total cpu time spent up to now is       79.8 secs

     Computing kpt #:   141  of   331
     total cpu time spent up to now is       80.6 secs

     Computing kpt #:   142  of   331
     total cpu time spent up to now is       81.5 secs

     Computing kpt #:   143  of   331
     total cpu time spent up to now is       82.5 secs

     Computing kpt #:   144  of   331
     total cpu time spent up to now is       83.0 secs

     Computing kpt #:   145  of   331
     total cpu time spent up to now is       83.5 secs

     Computing kpt #:   146  of   331
     total cpu time spent up to now is       84.0 secs

     Computing kpt #:   147  of   331
     total cpu time spent up to now is       86.3 secs

     Computing kpt #:   148  of   331
     total cpu time spent up to now is       86.8 secs

     Computing kpt #:   149  of   331
     total cpu time spent up to now is       87.1 secs

     Computing kpt #:   150  of   331
     total cpu time spent up to now is       87.5 secs

     Computing kpt #:   151  of   331
     total cpu time spent up to now is       87.7 secs

     Computing kpt #:   152  of   331
     total cpu time spent up to now is       88.4 secs

     Computing kpt #:   153  of   331
     total cpu time spent up to now is       89.0 secs

     Computing kpt #:   154  of   331
     total cpu time spent up to now is       89.6 secs

     Computing kpt #:   155  of   331
     total cpu time spent up to now is       90.2 secs

     Computing kpt #:   156  of   331
     total cpu time spent up to now is       90.9 secs

     Computing kpt #:   157  of   331
     total cpu time spent up to now is       91.5 secs

     Computing kpt #:   158  of   331
     total cpu time spent up to now is       92.3 secs

     Computing kpt #:   159  of   331
     total cpu time spent up to now is       93.1 secs

     Computing kpt #:   160  of   331
     total cpu time spent up to now is       93.9 secs

     Computing kpt #:   161  of   331
     total cpu time spent up to now is       94.6 secs

     Computing kpt #:   162  of   331
     total cpu time spent up to now is       95.8 secs

     Computing kpt #:   163  of   331
     total cpu time spent up to now is       96.8 secs

     Computing kpt #:   164  of   331
     total cpu time spent up to now is       97.7 secs

     Computing kpt #:   165  of   331
     total cpu time spent up to now is       98.6 secs

     Computing kpt #:   166  of   331
     total cpu time spent up to now is       99.3 secs

     Computing kpt #:   167  of   331
     total cpu time spent up to now is       99.9 secs

     Computing kpt #:   168  of   331
     total cpu time spent up to now is      100.4 secs

     Computing kpt #:   169  of   331
     total cpu time spent up to now is      100.8 secs

     Computing kpt #:   170  of   331
     total cpu time spent up to now is      101.2 secs

     Computing kpt #:   171  of   331
     total cpu time spent up to now is      101.5 secs

     Computing kpt #:   172  of   331
     total cpu time spent up to now is      101.8 secs

     Computing kpt #:   173  of   331
     total cpu time spent up to now is      102.1 secs

     Computing kpt #:   174  of   331
     total cpu time spent up to now is      102.3 secs

     Computing kpt #:   175  of   331
     total cpu time spent up to now is      102.6 secs

     Computing kpt #:   176  of   331
     total cpu time spent up to now is      103.6 secs

     Computing kpt #:   177  of   331
     total cpu time spent up to now is      104.4 secs

     Computing kpt #:   178  of   331
     total cpu time spent up to now is      104.8 secs

     Computing kpt #:   179  of   331
     total cpu time spent up to now is      105.2 secs

     Computing kpt #:   180  of   331
     total cpu time spent up to now is      105.5 secs

     Computing kpt #:   181  of   331
     total cpu time spent up to now is      106.4 secs

     Computing kpt #:   182  of   331
     total cpu time spent up to now is      107.2 secs

     Computing kpt #:   183  of   331
     total cpu time spent up to now is      107.7 secs

     Computing kpt #:   184  of   331
     total cpu time spent up to now is      108.4 secs

     Computing kpt #:   185  of   331
     total cpu time spent up to now is      109.3 secs

     Computing kpt #:   186  of   331
     total cpu time spent up to now is      110.2 secs

     Computing kpt #:   187  of   331
     total cpu time spent up to now is      110.9 secs

     Computing kpt #:   188  of   331
     total cpu time spent up to now is      111.9 secs

     Computing kpt #:   189  of   331
     total cpu time spent up to now is      113.1 secs

     Computing kpt #:   190  of   331
     total cpu time spent up to now is      114.2 secs

     Computing kpt #:   191  of   331
[...]
     0.0000   0.0000

          k = 0.1833 0.5677 0.0000 (  4202 PWs)   bands (ev):

   -17.8080 -12.3091  -9.4480  -4.1948   1.1212   8.4159   9.3976   9.5975
    10.6077  11.1537

     occupation numbers 
     1.0000   1.0000   1.0000   1.0000   0.0000   0.0000   0.0000   0.0000
     0.0000   0.0000

          k = 0.2000 0.3464 0.0000 (  4196 PWs)   bands (ev):

   -19.1550 -10.2213  -8.4753  -6.1843   3.4711   4.8866   6.3243   6.5493
     8.5054   8.9432

     occupation numbers 
     1.0000   1.0000   1.0000   1.0000   0.0000   0.0000   0.0000   0.0000
     0.0000   0.0000

          k = 0.2000 0.3657 0.0000 (  4195 PWs)   bands (ev):

   -18.9980 -10.4564  -8.6683  -5.9625   3.2303   5.2007   6.5985   6.8789
     8.7763   9.2291

     occupation numbers 
     1.0000   1.0000   1.0000   1.0000   0.0000   0.0000   0.0000   0.0000
     0.0000   0.0000

          k = 0.2000 0.3849 0.0000 (  4198 PWs)   bands (ev):

   -18.8393 -10.6926  -8.8455  -5.7369   2.9763   5.5290   6.8945   7.2253
     9.0559   9.4704

     occupation numbers 
     1.0000   1.0000   1.0000   1.0000   0.0000   0.0000   0.0000   0.0000
     0.0000   0.0000

          k = 0.2000 0.4041 0.0000 (  4198 PWs)   bands (ev):

   -18.6807 -10.9272  -9.0053  -5.5095   2.7157   5.8706   7.2074   7.5880
     9.3379   9.6231

     occupation numbers 
     1.0000   1.0000   1.0000   1.0000   0.0000   0.0000   0.0000   0.0000
     0.0000   0.0000

          k = 0.2000 0.4234 0.0000 (  4198 PWs)   bands (ev):

   -18.5246 -11.1563  -9.1474  -5.2837   2.4539   6.2244   7.5323   7.9663
     9.6136   9.7033

     occupation numbers 
     1.0000   1.0000   1.0000   1.0000   0.0000   0.0000   0.0000   0.0000
     0.0000   0.0000

          k = 0.2000 0.4426 0.0000 (  4209 PWs)   bands (ev):

   -18.3736 -11.3768  -9.2719  -5.0625   2.1970   6.5885   7.8631   8.3584
     9.7483   9.8716

     occupation numbers 
     1.0000   1.0000   1.0000   1.0000   0.0000   0.0000   0.0000   0.0000
     0.0000   0.0000

          k = 0.2000 0.4619 0.0000 (  4206 PWs)   bands (ev):

   -18.2306 -11.5830  -9.3785  -4.8502   1.9510   6.9603   8.1914   8.7602
     9.7813  10.1009

     occupation numbers 
     1.0000   1.0000   1.0000   1.0000   0.0000   0.0000   0.0000   0.0000
     0.0000   0.0000

          k = 0.2000 0.4811 0.0000 (  4202 PWs)   bands (ev):

   -18.0993 -11.7707  -9.4676  -4.6521   1.7224   7.3355   8.5046   9.1577
     9.8245  10.2998

     occupation numbers 
     1.0000   1.0000   1.0000   1.0000   0.0000   0.0000   0.0000   0.0000
     0.0000   0.0000

          k = 0.2000 0.5004 0.0000 (  4202 PWs)   bands (ev):

   -17.9836 -11.9342  -9.5400  -4.4748   1.5185   7.7069   8.7843   9.4914
     9.9418  10.4857

     occupation numbers 
     1.0000   1.0000   1.0000   1.0000   0.0000   0.0000   0.0000   0.0000
     0.0000   0.0000

          k = 0.2000 0.5196 0.0000 (  4195 PWs)   bands (ev):

   -17.8877 -12.0683  -9.5957  -4.3254   1.3476   8.0613   9.0097   9.6482
    10.2449  10.6894

     occupation numbers 
     1.0000   1.0000   1.0000   1.0000   0.0000   0.0000   0.0000   0.0000
     0.0000   0.0000

          k = 0.2000 0.5389 0.0000 (  4196 PWs)   bands (ev):

   -17.8157 -12.1682  -9.6354  -4.2115   1.2176   8.3742   9.1661   9.7026
    10.6364  10.9304

     occupation numbers 
     1.0000   1.0000   1.0000   1.0000   0.0000   0.0000   0.0000   0.0000
     0.0000   0.0000

          k = 0.2000 0.5581 0.0000 (  4204 PWs)   bands (ev):

   -17.7710 -12.2302  -9.6593  -4.1398   1.1361   8.6023   9.2538   9.7334
    10.8327  11.1837

     occupation numbers 
     1.0000   1.0000   1.0000   1.0000   0.0000   0.0000   0.0000   0.0000
     0.0000   0.0000

          k = 0.2000 0.5774 0.0000 (  4212 PWs)   bands (ev):

   -17.7559 -12.2513  -9.6673  -4.1157   1.1083   8.6885   9.2815   9.7468
    10.8015  11.3196

     occupation numbers 
     1.0000   1.0000   1.0000   1.0000   0.0000   0.0000   0.0000   0.0000
     0.0000   0.0000

          k = 0.2167 0.3753 0.0000 (  4182 PWs)   bands (ev):

   -18.8424 -10.6661  -8.8701  -5.7415   2.9906   5.5228   6.8860   7.2174
     9.0464   9.5407

     occupation numbers 
     1.0000   1.0000   1.0000   1.0000   0.0000   0.0000   0.0000   0.0000
     0.0000   0.0000

          k = 0.2167 0.3945 0.0000 (  4186 PWs)   bands (ev):

   -18.6864 -10.8760  -9.0562  -5.5182   2.7436   5.8588   7.1895   7.5727
     9.3177   9.8025

     occupation numbers 
     1.0000   1.0000   1.0000   1.0000   0.0000   0.0000   0.0000   0.0000
     0.0000   0.0000

          k = 0.2167 0.4138 0.0000 (  4190 PWs)   bands (ev):

   -18.5319 -11.0834  -9.2242  -5.2949   2.4944   6.2078   7.5041   7.9443
     9.5809   9.9484

     occupation numbers 
     1.0000   1.0000   1.0000   1.0000   0.0000   0.0000   0.0000   0.0000
     0.0000   0.0000

          k = 0.2167 0.4330 0.0000 (  4197 PWs)   bands (ev):

   -18.3812 -11.2860  -9.3729  -5.0748   2.2477   6.5683   7.8233   8.3313
     9.8241  10.0186

     occupation numbers 
     1.0000   1.0000   1.0000   1.0000   0.0000   0.0000   0.0000   0.0000
     0.0000   0.0000

          k = 0.2167 0.4523 0.0000 (  4201 PWs)   bands (ev):

   -18.2371 -11.4794  -9.5021  -4.8615   2.0089   6.9386   8.1381   8.7317
    10.0367  10.0565

     occupation numbers 
     1.0000   1.0000   1.0000   1.0000   0.0000   0.0000   0.0000   0.0000
     0.0000   0.0000

          k = 0.2167 0.4715 0.0000 (  4200 PWs)   bands (ev):

   -18.1029 -11.6591  -9.6114  -4.6597   1.7836   7.3155   8.4346   9.1407
    10.0819  10.2208

     occupation numbers 
     1.0000   1.0000   1.0000   1.0000   0.0000   0.0000   0.0000   0.0000
     0.0000   0.0000

          k = 0.2167 0.4907 0.0000 (  4200 PWs)   bands (ev):

   -17.9822 -11.8203  -9.7015  -4.4753   1.5783   7.6942   8.6938   9.5397
    10.1194  10.3995

     occupation numbers 
     1.0000   1.0000   1.0000   1.0000   0.0000   0.0000   0.0000   0.0000
     0.0000   0.0000

          k = 0.2167 0.5100 0.0000 (  4197 PWs)   bands (ev):

   -17.8789 -11.9575  -9.7729  -4.3149   1.4002   8.0664   8.8962   9.8382
    10.2593  10.6076

     occupation numbers 
     1.0000   1.0000   1.0000   1.0000   0.0000   0.0000   0.0000   0.0000
     0.0000   0.0000

          k = 0.2167 0.5292 0.0000 (  4193 PWs)   bands (ev):

   -17.7970 -12.0659  -9.8258  -4.1855   1.2571   8.4164   9.0328   9.9254
    10.6017  10.8665

     occupation numbers 
     1.0000   1.0000   1.0000   1.0000   0.0000   0.0000   0.0000   0.0000
     0.0000   0.0000

          k = 0.2167 0.5485 0.0000 (  4202 PWs)   bands (ev):

   -17.7402 -12.1411  -9.8612  -4.0944   1.1564   8.7133   9.1108   9.9232
    10.9563  11.1638

     occupation numbers 
     1.0000   1.0000   1.0000   1.0000   0.0000   0.0000   0.0000   0.0000
     0.0000   0.0000

          k = 0.2167 0.5677 0.0000 (  4204 PWs)   bands (ev):

   -17.7110 -12.1796  -9.8786  -4.0473   1.1043   8.8984   9.1448   9.9025
    11.0344  11.4232

     occupation numbers 
     1.0000   1.0000   1.0000   1.0000   0.0000   0.0000   0.0000   0.0000
     0.0000   0.0000

          k = 0.2333 0.4041 0.0000 (  4178 PWs)   bands (ev):

   -18.5342 -11.0574  -9.2514  -5.2985   2.5083   6.2022   7.4946   7.9368
     9.5699  10.0803

     occupation numbers 
     1.0000   1.0000   1.0000   1.0000   0.0000   0.0000   0.0000   0.0000
     0.0000   0.0000

          k = 0.2333 0.4234 0.0000 (  4188 PWs)   bands (ev):

   -18.3850 -11.2358  -9.4283  -5.0809   2.2738   6.5579   7.8032   8.3170
     9.7998  10.2216

     occupation numbers 
     1.0000   1.0000   1.0000   1.0000   0.0000   0.0000   0.0000   0.0000
     0.0000   0.0000

          k = 0.2333 0.4426 0.0000 (  4197 PWs)   bands (ev):

   -18.2411 -11.4087  -9.5849  -4.8683   2.0452   6.9244   8.1055   8.7123
     9.9971  10.2885

     occupation numbers 
     1.0000   1.0000   1.0000   1.0000   0.0000   0.0000   0.0000   0.0000
     0.0000   0.0000

          k = 0.2333 0.4619 0.0000 (  4192 PWs)   bands (ev):

   -18.1055 -11.5721  -9.7201  -4.6651   1.8268   7.2997   8.3864   9.1204
    10.1661  10.3233

     occupation numbers 
     1.0000   1.0000   1.0000   1.0000   0.0000   0.0000   0.0000   0.0000
     0.0000   0.0000

          k = 0.2333 0.4811 0.0000 (  4195 PWs)   bands (ev):

   -17.9814 -11.7227  -9.8337  -4.4762   1.6244   7.6800   8.6260   9.5343
    10.3348  10.3441

     occupation numbers 
     1.0000   1.0000   1.0000   1.0000   0.0000   0.0000   0.0000   0.0000
     0.0000   0.0000

          k = 0.2333 0.5004 0.0000 (  4195 PWs)   bands (ev):

   -17.8726 -11.8553  -9.9256  -4.3075   1.4441   8.0595   8.8056   9.9232
    10.3855  10.5411

     occupation numbers 
     1.0000   1.0000   1.0000   1.0000   0.0000   0.0000   0.0000   0.0000
     0.0000   0.0000

          k = 0.2333 0.5196 0.0000 (  4201 PWs)   bands (ev):

   -17.7828 -11.9651  -9.9966  -4.1662   1.2930   8.4280   8.9201  10.1381
    10.5909  10.8069

     occupation numbers 
     1.0000   1.0000   1.0000   1.0000   0.0000   0.0000   0.0000   0.0000
     0.0000   0.0000

          k = 0.2333 0.5389 0.0000 (  4198 PWs)   bands (ev):

   -17.7156 -12.0474 -10.0468  -4.0584   1.1784   8.7652   8.9822  10.1468
    10.9682  11.1244

     occupation numbers 
     1.0000   1.0000   1.0000   1.0000   0.0000   0.0000   0.0000   0.0000
     0.0000   0.0000

          k = 0.2333 0.5581 0.0000 (  4194 PWs)   bands (ev):

   -17.6739 -12.0984 -10.0766  -3.9907   1.1065   9.0105   9.0289  10.0971
    11.2360  11.4515

     occupation numbers 
     1.0000   1.0000   1.0000   1.0000   0.0000   0.0000   0.0000   0.0000
     0.0000   0.0000

          k = 0.2333 0.5774 0.0000 (  4198 PWs)   bands (ev):

   -17.6598 -12.1158 -10.0866  -3.9677   1.0820   9.0184   9.1372  10.0642
    11.2616  11.6344

     occupation numbers 
     1.0000   1.0000   1.0000   1.0000   0.0000   0.0000   0.0000   0.0000
     0.0000   0.0000

          k = 0.2500 0.4330 0.0000 (  4192 PWs)   bands (ev):

   -18.2425 -11.3832  -9.6143  -4.8706   2.0574   6.9196   8.0945   8.7056
     9.9837  10.3939

     occupation numbers 
     1.0000   1.0000   1.0000   1.0000   0.0000   0.0000   0.0000   0.0000
     0.0000   0.0000

          k = 0.2500 0.4523 0.0000 (  4186 PWs)   bands (ev):

   -18.1068 -11.5236  -9.7795  -4.6676   1.8493   7.2912   8.3619   9.1085
    10.1382  10.4831

     occupation numbers 
     1.0000   1.0000   1.0000   1.0000   0.0000   0.0000   0.0000   0.0000
     0.0000   0.0000

          k = 0.2500 0.4715 0.0000 (  4194 PWs)   bands (ev):

   -17.9811 -11.6552  -9.9223  -4.4766   1.6537   7.6697   8.5840   9.5224
    10.2948  10.5268

     occupation numbers 
     1.0000   1.0000   1.0000   1.0000   0.0000   0.0000   0.0000   0.0000
     0.0000   0.0000

          k = 0.2500 0.4907 0.0000 (  4204 PWs)   bands (ev):

   -17.8687 -11.7741 -10.0412  -4.3030   1.4757   8.0507   8.7423   9.9352
    10.4948  10.5543

     occupation numbers 
     1.0000   1.0000   1.0000   1.0000   0.0000   0.0000   0.0000   0.0000
     0.0000   0.0000

          k = 0.2500 0.5100 0.0000 (  4192 PWs)   bands (ev):

   -17.7728 -11.8761 -10.1357  -4.1523   1.3220   8.4269   8.8347  10.2747
    10.6416  10.7604

     occupation numbers 
     1.0000   1.0000   1.0000   1.0000   0.0000   0.0000   0.0000   0.0000
     0.0000   0.0000

          k = 0.2500 0.5292 0.0000 (  4196 PWs)   bands (ev):

   -17.6973 -11.9575 -10.2065  -4.0315   1.1988   8.7842   8.8778  10.3603
    10.9586  11.0850

     occupation numbers 
     1.0000   1.0000   1.0000   1.0000   0.0000   0.0000   0.0000   0.0000
     0.0000   0.0000

          k = 0.2500 0.5485 0.0000 (  4194 PWs)   bands (ev):

   -17.6450 -12.0141 -10.2534  -3.9467   1.1121   8.8933   9.0944  10.3160
    11.3310  11.4410

     occupation numbers 
     1.0000   1.0000   1.0000   1.0000   0.0000   0.0000   0.0000   0.0000
     0.0000   0.0000

          k = 0.2500 0.5677 0.0000 (  4194 PWs)   bands (ev):

   -17.6181 -12.0432 -10.2768  -3.9026   1.0674   8.8973   9.2959  10.2537
    11.4771  11.7522

     occupation numbers 
     1.0000   1.0000   1.0000   1.0000   0.0000   0.0000   0.0000   0.0000
     0.0000   0.0000

          k = 0.2667 0.4619 0.0000 (  4182 PWs)   bands (ev):

   -17.9809 -11.6306  -9.9535  -4.4767   1.6636   7.6661   8.5698   9.5175
    10.2813  10.5999

     occupation numbers 
     1.0000   1.0000   1.0000   1.0000   0.0000   0.0000   0.0000   0.0000
     0.0000   0.0000

          k = 0.2667 0.4811 0.0000 (  4196 PWs)   bands (ev):

   -17.8666 -11.7280 -10.1043  -4.3006   1.4925   8.0453   8.7097   9.9326
    10.4712  10.6654

     occupation numbers 
     1.0000   1.0000   1.0000   1.0000   0.0000   0.0000   0.0000   0.0000
     0.0000   0.0000

          k = 0.2667 0.5004 0.0000 (  4205 PWs)   bands (ev):

   -17.7670 -11.8133 -10.2293  -4.1446   1.3406   8.4230   8.7813  10.3206
    10.7308  10.7312

     occupation numbers 
     1.0000   1.0000   1.0000   1.0000   0.0000   0.0000   0.0000   0.0000
     0.0000   0.0000

          k = 0.2667 0.5196 0.0000 (  4199 PWs)   bands (ev):

   -17.6852 -11.8836 -10.3274  -4.0138   1.2142   8.7888   8.8044  10.5184
    10.9633  11.0552

     occupation numbers 
     1.0000   1.0000   1.0000   1.0000   0.0000   0.0000   0.0000   0.0000
     0.0000   0.0000

          k = 0.2667 0.5389 0.0000 (  4197 PWs)   bands (ev):

   -17.6243 -11.9366 -10.3978  -3.9149   1.1186   8.8033   9.1223  10.5168
    11.3528  11.4211

     occupation numbers 
     1.0000   1.0000   1.0000   1.0000   0.0000   0.0000   0.0000   0.0000
     0.0000   0.0000

          k = 0.2667 0.5581 0.0000 (  4194 PWs)   bands (ev):

   -17.5866 -11.9695 -10.4401  -3.8532   1.0587   8.7960   9.3820  10.4628
    11.6331  11.7888

     occupation numbers 
     1.0000   1.0000   1.0000   1.0000   0.0000   0.0000   0.0000   0.0000
     0.0000   0.0000

          k = 0.2667 0.5774 0.0000 (  4196 PWs)   bands (ev):

   -17.5738 -11.9808 -10.4541  -3.8324   1.0383   8.7926   9.4880  10.4288
    11.6698  12.0009

     occupation numbers 
     1.0000   1.0000   1.0000   1.0000   0.0000   0.0000   0.0000   0.0000
     0.0000   0.0000

          k = 0.2833 0.4907 0.0000 (  4202 PWs)   bands (ev):

   -17.7650 -11.7902 -10.2626  -4.1417   1.3471   8.4212   8.7632  10.3289
    10.7212  10.7727

     occupation numbers 
     1.0000   1.0000   1.0000   1.0000   0.0000   0.0000   0.0000   0.0000
     0.0000   0.0000

          k = 0.2833 0.5100 0.0000 (  4204 PWs)   bands (ev):

   -17.6791 -11.8410 -10.3938  -4.0051   1.2226   8.7665   8.7890  10.5951
    10.9791  11.0394

     occupation numbers 
     1.0000   1.0000   1.0000   1.0000   0.0000   0.0000   0.0000   0.0000
     0.0000   0.0000

          k = 0.2833 0.5292 0.0000 (  4194 PWs)   bands (ev):

   -17.6117 -11.8798 -10.4949  -3.8960   1.1234   8.7468   9.1328  10.6567
    11.3589  11.4055

     occupation numbers 
     1.0000   1.0000   1.0000   1.0000   0.0000   0.0000   0.0000   0.0000
     0.0000   0.0000

          k = 0.2833 0.5485 0.0000 (  4194 PWs)   bands (ev):

   -17.5653 -11.9062 -10.5637  -3.8200   1.0539   8.7240   9.4222  10.6468
    11.7123  11.7928

     occupation numbers 
     1.0000   1.0000   1.0000   1.0000   0.0000   0.0000   0.0000   0.0000
     0.0000   0.0000

          k = 0.2833 0.5677 0.0000 (  4196 PWs)   bands (ev):

   -17.5416 -11.9197 -10.5985  -3.7808   1.0182   8.7099   9.6010  10.6214
    11.7951  12.1329

     occupation numbers 
     1.0000   1.0000   1.0000   1.0000   0.0000   0.0000   0.0000   0.0000
     0.0000   0.0000

          k = 0.3000 0.5196 0.0000 (  4188 PWs)   bands (ev):

   -17.6075 -11.8585 -10.5295  -3.8895   1.1252   8.7275   9.1354  10.7065
    11.3614  11.3998

     occupation numbers 
     1.0000   1.0000   1.0000   1.0000   0.0000   0.0000   0.0000   0.0000
     0.0000   0.0000

          k = 0.3000 0.5389 0.0000 (  4186 PWs)   bands (ev):

   -17.5546 -11.8683 -10.6316  -3.8031   1.0520   8.6866   9.4377  10.7557
    11.7422  11.7904

     occupation numbers 
     1.0000   1.0000   1.0000   1.0000   0.0000   0.0000   0.0000   0.0000
     0.0000   0.0000

          k = 0.3000 0.5581 0.0000 (  4179 PWs)   bands (ev):

   -17.5220 -11.8726 -10.6953  -3.7492   1.0066   8.6574   9.6556  10.7834
    11.8545  12.1773

     occupation numbers 
     1.0000   1.0000   1.0000   1.0000   0.0000   0.0000   0.0000   0.0000
     0.0000   0.0000

          k = 0.3000 0.5774 0.0000 (  4188 PWs)   bands (ev):

   -17.5111 -11.8740 -10.7171  -3.7312   0.9911   8.6469   9.7369  10.7939
    11.8293  12.4064

     occupation numbers 
     1.0000   1.0000   1.0000   1.0000   0.0000   0.0000   0.0000   0.0000
     0.0000   0.0000

          k = 0.3167 0.5485 0.0000 (  4180 PWs)   bands (ev):

   -17.5155 -11.8547 -10.7301  -3.7387   1.0028   8.6394   9.6713  10.8484
    11.8695  12.1868

     occupation numbers 
     1.0000   1.0000   1.0000   1.0000   0.0000   0.0000   0.0000   0.0000
     0.0000   0.0000

          k = 0.3167 0.5677 0.0000 (  4188 PWs)   bands (ev):

   -17.4957 -11.8457 -10.7822  -3.7062   0.9774   8.6139   9.7980  10.9234
    11.8044  12.5332

     occupation numbers 
     1.0000   1.0000   1.0000   1.0000   0.0000   0.0000   0.0000   0.0000
     0.0000   0.0000

          k = 0.3333 0.5774 0.0000 (  4182 PWs)   bands (ev):

   -17.4867 -11.8351 -10.8128  -3.6913   0.9678   8.5989   9.8448  10.9937
    11.7556  12.7194

     occupation numbers 
     1.0000   1.0000   1.0000   1.0000   0.0000   0.0000   0.0000   0.0000
     0.0000   0.0000

     the Fermi energy is     0.3000 ev
     (compare with:    -0.7773 eV, computed in scf)

     Writing all to output data dir ./tmp/hBN_1L_LDA.save/

     init_run     :      0.44s CPU      0.46s WALL (       1 calls)
     electrons    :    124.49s CPU    161.33s WALL (       1 calls)

     Called by init_run:
     wfcinit      :      0.00s CPU      0.00s WALL (       1 calls)
     wfcinit:atom :      0.06s CPU      0.08s WALL (     331 calls)
     wfcinit:wfcr :      3.66s CPU      4.66s WALL (     331 calls)
     potinit      :      0.00s CPU      0.01s WALL (       1 calls)
     hinit0       :      0.38s CPU      0.39s WALL (       1 calls)

     Called by electrons:
     c_bands      :    124.48s CPU    161.31s WALL (       1 calls)
     v_of_rho     :      0.00s CPU      0.00s WALL (       1 calls)
     v_h          :      0.00s CPU      0.00s WALL (       1 calls)
     v_xc         :      0.00s CPU      0.00s WALL (       1 calls)

     Called by c_bands:
     init_us_2    :      0.08s CPU      0.09s WALL (     331 calls)
     init_us_2:cp :      0.08s CPU      0.09s WALL (     331 calls)
     cegterg      :    120.15s CPU    155.51s WALL (     855 calls)

     Called by sum_band:

     Called by *egterg:
     cdiaghg      :      4.43s CPU      5.87s WALL (   14428 calls)
     cegterg:over :     13.02s CPU     16.38s WALL (   14097 calls)
     cegterg:upda :      3.72s CPU      6.20s WALL (   14097 calls)
     cegterg:last :      4.39s CPU      5.77s WALL (    8004 calls)
     h_psi        :     85.12s CPU    109.02s WALL (   15283 calls)
     g_psi        :      0.41s CPU      0.76s WALL (   14097 calls)

     Called by h_psi:
     h_psi:calbec :      7.41s CPU      9.71s WALL (   15283 calls)
     vloc_psi     :     74.56s CPU     94.27s WALL (   15283 calls)
     add_vuspsi   :      2.65s CPU      4.34s WALL (   15283 calls)

     General routines
     calbec       :      7.36s CPU      9.61s WALL (   15283 calls)
     fft          :      0.30s CPU      0.30s WALL (       4 calls)
     fftw         :     67.65s CPU     85.88s WALL (  158512 calls)
     davcio       :      0.01s CPU      0.36s WALL (     662 calls)

     Parallel routines

     PWSCF        :   2m 6.37s CPU   2m44.12s WALL


   This run was terminated on:  15: 6:41  16Apr2024            

=------------------------------------------------------------------------------=
   JOB DONE.
=------------------------------------------------------------------------------=
