
     Program PROJWFC v.7.2 starts on 16Apr2024 at 15: 6:41 

     This program is part of the open-source Quantum ESPRESSO suite
     for quantum simulation of materials; please cite
         "P. Giannozzi et al., J. Phys.:Condens. Matter 21 395502 (2009);
         "P. Giannozzi et al., J. Phys.:Condens. Matter 29 465901 (2017);
         "P. Giannozzi et al., J. Chem. Phys. 152 154105 (2020);
          URL http://www.quantum-espresso.org", 
     in publications or presentations arising from this work. More details at
     http://www.quantum-espresso.org/quote

     Parallel version (MPI & OpenMP), running on       8 processor cores
     Number of MPI processes:                 8
     Threads/MPI process:                     1

     MPI processes distributed on     1 nodes
     R & G space division:  proc/nbgrp/npool/nimage =       8
     0 MiB available memory on the printing compute node when the environment starts


     Reading xml data from directory:

     ./tmp/hBN_1L_LDA.save/

     IMPORTANT: XC functional enforced from input :
     Exchange-correlation= PZ
                           (   1   1   0   0   0   0   0)
     Any further DFT definition will be discarded
     Please, verify this is what you really want


     Parallelization info
     --------------------
     sticks:   dense  smooth     PW     G-vecs:    dense   smooth      PW
     Min          45      45     14                 4211     4211     738
     Max          47      47     17                 4226     4226     745
     Sum         367     367    121                33733    33733    5933

     Using Slab Decomposition


     Gaussian broadening (read from file): ngauss,degauss=  -1    0.010000


     Calling projwave .... 
     Subspace diagonalization in iterative solution of the eigenvalue problem:
     one sub-group per band group will be used
     ELPA distributed-memory algorithm (size of sub-group:  2*  2 procs)

     linear algebra parallelized on   4 procs

  Problem Sizes 
  natomwfc =            8
  nx       =            4
  nbnd     =           10
  nkstot   =          331
  npwx     =          543
  nkb      =           16


     Atomic states used for projection
     (read from pseudopotential files):

     state #   1: atom   1 (B  ), wfc  1 (l=0 m= 1)
     state #   2: atom   1 (B  ), wfc  2 (l=1 m= 1)
     state #   3: atom   1 (B  ), wfc  2 (l=1 m= 2)
     state #   4: atom   1 (B  ), wfc  2 (l=1 m= 3)
     state #   5: atom   2 (N  ), wfc  1 (l=0 m= 1)
     state #   6: atom   2 (N  ), wfc  2 (l=1 m= 1)
     state #   7: atom   2 (N  ), wfc  2 (l=1 m= 2)
     state #   8: atom   2 (N  ), wfc  2 (l=1 m= 3)

 k =   0.0000000000  0.0000000000  0.0000000000
==== e(   1) =   -21.30620 eV ==== 
     psi = 0.558*[#   5]+0.434*[#   1]
    |psi|^2 = 0.992
==== e(   2) =    -9.14070 eV ==== 
     psi = 0.555*[#   6]+0.406*[#   2]
    |psi|^2 = 0.961
==== e(   3) =    -5.01967 eV ==== 
     psi = 0.391*[#   7]+0.391*[#   8]+0.108*[#   3]+0.108*[#   4]
    |psi|^2 = 0.997
==== e(   4) =    -5.01967 eV ==== 
     psi = 0.391*[#   7]+0.391*[#   8]+0.108*[#   3]+0.108*[#   4]
    |psi|^2 = 0.997
==== e(   5) =     1.10064 eV ==== 
     psi = 0.184*[#   1]+0.097*[#   5]
    |psi|^2 = 0.281
==== e(   6) =     2.24795 eV ==== 
     psi = 0.195*[#   2]+0.049*[#   6]
    |psi|^2 = 0.245
==== e(   7) =     2.67325 eV ==== 
     psi = 0.030*[#   1]+0.017*[#   5]
    |psi|^2 = 0.047
==== e(   8) =     4.51023 eV ==== 
     psi = 0.124*[#   2]+0.046*[#   6]
    |psi|^2 = 0.170
==== e(   9) =     5.22436 eV ==== 
     psi = 0.076*[#   1]+0.049*[#   5]
    |psi|^2 = 0.125
==== e(  10) =     7.92327 eV ==== 
     psi = 0.156*[#   2]+0.135*[#   6]
    |psi|^2 = 0.292

 k =   0.0000000000  0.0192450090  0.0000000000
==== e(   1) =   -21.30073 eV ==== 
     psi = 0.557*[#   5]+0.432*[#   1]+0.001*[#   3]+0.001*[#   4]
    |psi|^2 = 0.992
==== e(   2) =    -9.13331 eV ==== 
     psi = 0.556*[#   6]+0.406*[#   2]
    |psi|^2 = 0.962
==== e(   3) =    -5.04238 eV ==== 
     psi = 0.390*[#   7]+0.390*[#   8]+0.107*[#   3]+0.107*[#   4]+0.001*[#   1]
          
    |psi|^2 = 0.997
==== e(   4) =    -5.03067 eV ==== 
     psi = 0.390*[#   7]+0.390*[#   8]+0.108*[#   3]+0.108*[#   4]
    |psi|^2 = 0.997
==== e(   5) =     1.11004 eV ==== 
     psi = 0.182*[#   1]+0.097*[#   5]+0.001*[#   3]+0.001*[#   4]
    |psi|^2 = 0.281
==== e(   6) =     2.25643 eV ==== 
     psi = 0.195*[#   2]+0.049*[#   6]
    |psi|^2 = 0.244
==== e(   7) =     2.68236 eV ==== 
     psi = 0.030*[#   1]+0.017*[#   5]
    |psi|^2 = 0.047
==== e(   8) =     4.51819 eV ==== 
     psi = 0.125*[#   2]+0.046*[#   6]
    |psi|^2 = 0.170
==== e(   9) =     5.23366 eV ==== 
     psi = 0.075*[#   1]+0.049*[#   5]
    |psi|^2 = 0.125
==== e(  10) =     7.92481 eV ==== 
     psi = 0.157*[#   2]+0.136*[#   6]
    |psi|^2 = 0.294

 k =   0.0000000000  0.0384900179  0.0000000000
==== e(   1) =   -21.28439 eV ==== 
     psi = 0.555*[#   5]+0.426*[#   1]+0.005*[#   3]+0.005*[#   4]
    |psi|^2 = 0.992
==== e(   2) =    -9.11112 eV ==== 
     psi = 0.556*[#   6]+0.406*[#   2]
    |psi|^2 = 0.962
==== e(   3) =    -5.11215 eV ==== 
     psi = 0.389*[#   7]+0.389*[#   8]+0.105*[#   3]+0.105*[#   4]+0.005*[#   1]
          +0.002*[#   5]
    |psi|^2 = 0.996
==== e(   4) =    -5.06497 eV ==== 
     psi = 0.389*[#   7]+0.389*[#   8]+0.109*[#   3]+0.109*[#   4]
    |psi|^2 = 0.997
==== e(   5) =     1.13819 eV ==== 
     psi = 0.176*[#   1]+0.097*[#   5]+0.005*[#   3]+0.005*[#   4]
    |psi|^2 = 0.283
==== e(   6) =     2.28186 eV ==== 
     psi = 0.195*[#   2]+0.049*[#   6]
    |psi|^2 = 0.244
==== e(   7) =     2.70969 eV ==== 
     psi = 0.029*[#   1]+0.017*[#   5]
    |psi|^2 = 0.047
==== e(   8) =     4.54201 eV ==== 
     psi = 0.125*[#   2]+0.046*[#   6]
    |psi|^2 = 0.171
==== e(   9) =     5.26149 eV ==== 
     psi = 0.074*[#   1]+0.049*[#   5]
    |psi|^2 = 0.125
==== e(  10) =     7.92892 eV ==== 
     psi = 0.161*[#   2]+0.140*[#   6]
    |psi|^2 = 0.301

 k =   0.0000000000  0.0577350269  0.0000000000
==== e(   1) =   -21.25708 eV ==== 
     psi = 0.552*[#   5]+0.416*[#   1]+0.010*[#   3]+0.010*[#   4]+0.002*[#   7]
          +0.002*[#   8]
    |psi|^2 = 0.992
==== e(   2) =    -9.07414 eV ==== 
     psi = 0.557*[#   6]+0.406*[#   2]
    |psi|^2 = 0.962
==== e(   3) =    -5.22608 eV ==== 
     psi = 0.388*[#   7]+0.388*[#   8]+0.103*[#   3]+0.103*[#   4]+0.010*[#   1]
          +0.005*[#   5]
    |psi|^2 = 0.996
==== e(   4) =    -5.11977 eV ==== 
     psi = 0.388*[#   7]+0.388*[#   8]+0.111*[#   3]+0.111*[#   4]
    |psi|^2 = 0.997
==== e(   5) =     1.18490 eV ==== 
     psi = 0.167*[#   1]+0.097*[#   5]+0.011*[#   3]+0.011*[#   4]
    |psi|^2 = 0.285
==== e(   6) =     2.32422 eV ==== 
     psi = 0.194*[#   2]+0.049*[#   6]
    |psi|^2 = 0.244
==== e(   7) =     2.75518 eV ==== 
     psi = 0.028*[#   1]+0.017*[#   5]+0.001*[#   3]+0.001*[#   4]
    |psi|^2 = 0.047
==== e(   8) =     4.58161 eV ==== 
     psi = 0.126*[#   2]+0.047*[#   6]
    |psi|^2 = 0.173
==== e(   9) =     5.30766 eV ==== 
     psi = 0.072*[#   1]+0.049*[#   5]+0.001*[#   3]+0.001*[#   4]
    |psi|^2 = 0.124
==== e(  10) =     7.93421 eV ==== 
     psi = 0.166*[#   2]+0.147*[#   6]
    |psi|^2 = 0.313

 k =   0.0000000000  0.0769800359  0.0000000000
==== e(   1) =   -21.21892 eV ==== 
     psi = 0.548*[#   5]+0.403*[#   1]+0.017*[#   3]+0.017*[#   4]+0.003*[#   7]
          +0.003*[#   8]
    |psi|^2 = 0.992
==== e(   2) =    -9.02239 eV ==== 
     psi = 0.558*[#   6]+0.405*[#   2]
    |psi|^2 = 0.963
==== e(   3) =    -5.38155 eV ==== 
     psi = 0.385*[#   7]+0.385*[#   8]+0.099*[#   3]+0.099*[#   4]+0.017*[#   1]
          +0.009*[#   5]
    |psi|^2 = 0.996
==== e(   4) =    -5.19471 eV ==== 
     psi = 0.386*[#   7]+0.386*[#   8]+0.113*[#   3]+0.113*[#   4]
    |psi|^2 = 0.997
==== e(   5) =     1.24983 eV ==== 
     psi = 0.155*[#   1]+0.098*[#   5]+0.017*[#   3]+0.017*[#   4]
    |psi|^2 = 0.289
==== e(   6) =     2.38338 eV ==== 
     psi = 0.194*[#   2]+0.050*[#   6]
    |psi|^2 = 0.243
==== e(   7) =     2.81878 eV ==== 
     psi = 0.027*[#   1]+0.017*[#   5]+0.002*[#   3]+0.002*[#   4]
    |psi|^2 = 0.048
==== e(   8) =     4.63667 eV ==== 
     psi = 0.127*[#   2]+0.048*[#   6]
    |psi|^2 = 0.175
==== e(   9) =     5.37177 eV ==== 
     psi = 0.070*[#   1]+0.048*[#   5]+0.002*[#   3]+0.002*[#   4]
    |psi|^2 = 0.124
==== e(  10) =     7.93740 eV ==== 
     psi = 0.174*[#   2]+0.157*[#   6]
    |psi|^2 = 0.331

 k =   0.0000000000  0.0962250449  0.0000000000
==== e(   1) =   -21.17002 eV ==== 
     psi = 0.543*[#   5]+0.387*[#   1]+0.026*[#   3]+0.026*[#   4]+0.005*[#   7]
          +0.005*[#   8]
    |psi|^2 = 0.991
==== e(   2) =    -8.95606 eV ==== 
     psi = 0.559*[#   6]+0.405*[#   2]
    |psi|^2 = 0.964
==== e(   3) =    -5.57583 eV ==== 
     psi = 0.382*[#   7]+0.382*[#   8]+0.096*[#   3]+0.096*[#   4]+0.025*[#   1]
          +0.014*[#   5]
    |psi|^2 = 0.995
==== e(   4) =    -5.28761 eV ==== 
     psi = 0.383*[#   7]+0.383*[#   8]+0.115*[#   3]+0.115*[#   4]
    |psi|^2 = 0.997
==== e(   5) =     1.33262 eV ==== 
     psi = 0.143*[#   1]+0.098*[#   5]+0.025*[#   3]+0.025*[#   4]
    |psi|^2 = 0.292
==== e(   6) =     2.45921 eV ==== 
     psi = 0.193*[#   2]+0.050*[#   6]
    |psi|^2 = 0.243
==== e(   7) =     2.90040 eV ==== 
     psi = 0.025*[#   1]+0.017*[#   5]+0.003*[#   3]+0.003*[#   4]
    |psi|^2 = 0.048
==== e(   8) =     4.70678 eV ==== 
     psi = 0.128*[#   2]+0.050*[#   6]
    |psi|^2 = 0.178
==== e(   9) =     5.45335 eV ==== 
     psi = 0.068*[#   1]+0.048*[#   5]+0.003*[#   3]+0.003*[#   4]
    |psi|^2 = 0.124
==== e(  10) =     7.93428 eV ==== 
     psi = 0.183*[#   2]+0.170*[#   6]
    |psi|^2 = 0.353

 k =   0.0000000000  0.1154700538  0.0000000000
==== e(   1) =   -21.11046 eV ==== 
     psi = 0.537*[#   5]+0.370*[#   1]+0.035*[#   3]+0.035*[#   4]+0.007*[#   7]
          +0.007*[#   8]
    |psi|^2 = 0.991
==== e(   2) =    -8.87531 eV ==== 
     psi = 0.561*[#   6]+0.404*[#   2]
    |psi|^2 = 0.965
==== e(   3) =    -5.80473 eV ==== 
     psi = 0.379*[#   7]+0.379*[#   8]+0.092*[#   3]+0.092*[#   4]+0.034*[#   1]
          +0.020*[#   5]
    |psi|^2 = 0.995
==== e(   4) =    -5.39661 eV ==== 
     psi = 0.380*[#   7]+0.380*[#   8]+0.118*[#   3]+0.118*[#   4]
    |psi|^2 = 0.997
==== e(   5) =     1.43288 eV ==== 
     psi = 0.130*[#   1]+0.099*[#   5]+0.033*[#   3]+0.033*[#   4]
    |psi|^2 = 0.295
==== e(   6) =     2.55147 eV ==== 
     psi = 0.193*[#   2]+0.050*[#   6]
    |psi|^2 = 0.243
==== e(   7) =     2.99994 eV ==== 
     psi = 0.024*[#   1]+0.017*[#   5]+0.003*[#   3]+0.003*[#   4]
    |psi|^2 = 0.048
==== e(   8) =     4.79125 eV ==== 
     psi = 0.130*[#   2]+0.052*[#   6]
    |psi|^2 = 0.182
==== e(   9) =     5.55180 eV ==== 
     psi = 0.066*[#   1]+0.048*[#   5]+0.005*[#   3]+0.005*[#   4]
    |psi|^2 = 0.125
==== e(  10) =     7.91890 eV ==== 
     psi = 0.194*[#   2]+0.185*[#   6]
    |psi|^2 = 0.379

 k =   0.0000000000  0.1347150628  0.0000000000
==== e(   1) =   -21.04027 eV ==== 
     psi = 0.531*[#   5]+0.351*[#   1]+0.045*[#   3]+0.045*[#   4]+0.009*[#   7]
          +0.009*[#   8]
    |psi|^2 = 0.991
==== e(   2) =    -8.77999 eV ==== 
     psi = 0.563*[#   6]+0.404*[#   2]
    |psi|^2 = 0.967
==== e(   3) =    -6.06380 eV ==== 
     psi = 0.376*[#   7]+0.376*[#   8]+0.088*[#   3]+0.088*[#   4]+0.043*[#   1]
          +0.025*[#   5]
    |psi|^2 = 0.994
==== e(   4) =    -5.51845 eV ==== 
     psi = 0.377*[#   7]+0.377*[#   8]+0.121*[#   3]+0.121*[#   4]
    |psi|^2 = 0.997
==== e(   5) =     1.55033 eV ==== 
     psi = 0.118*[#   1]+0.100*[#   5]+0.040*[#   3]+0.040*[#   4]
    |psi|^2 = 0.299
==== e(   6) =     2.65995 eV ==== 
     psi = 0.193*[#   2]+0.050*[#   6]
    |psi|^2 = 0.243
==== e(   7) =     3.11733 eV ==== 
     psi = 0.022*[#   1]+0.017*[#   5]+0.004*[#   3]+0.004*[#   4]
    |psi|^2 = 0.048
==== e(   8) =     4.88925 eV ==== 
     psi = 0.134*[#   2]+0.055*[#   6]
    |psi|^2 = 0.189
==== e(   9) =     5.66654 eV ==== 
     psi = 0.065*[#   1]+0.048*[#   5]+0.006*[#   3]+0.006*[#   4]
    |psi|^2 = 0.127
==== e(  10) =     7.88505 eV ==== 
     psi = 0.206*[#   2]+0.202*[#   6]
    |psi|^2 = 0.407

 k =   0.0000000000  0.1539600718  0.0000000000
==== e(   1) =   -20.95971 eV ==== 
     psi = 0.526*[#   5]+0.332*[#   1]+0.055*[#   3]+0.055*[#   4]+0.011*[#   7]
          +0.011*[#   8]
    |psi|^2 = 0.991
==== e(   2) =    -8.67051 eV ==== 
     psi = 0.566*[#   6]+0.403*[#   2]
    |psi|^2 = 0.968
==== e(   3) =    -6.35001 eV ==== 
     psi = 0.372*[#   7]+0.372*[#   8]+0.084*[#   3]+0.084*[#   4]+0.052*[#   1]
          +0.031*[#   5]
    |psi|^2 = 0.994
==== e(   4) =    -5.65111 eV ==== 
     psi = 0.374*[#   7]+0.374*[#   8]+0.124*[#   3]+0.124*[#   4]
    |psi|^2 = 0.997
==== e(   5) =     1.68464 eV ==== 
     psi = 0.107*[#   1]+0.100*[#   5]+0.046*[#   3]+0.046*[#   4]
    |psi|^2 = 0.301
==== e(   6) =     2.78411 eV ==== 
     psi = 0.193*[#   2]+0.051*[#   6]
    |psi|^2 = 0.245
==== e(   7) =     3.25248 eV ==== 
     psi = 0.021*[#   1]+0.017*[#   5]+0.005*[#   3]+0.005*[#   4]
    |psi|^2 = 0.048
==== e(   8) =     4.99908 eV ==== 
     psi = 0.139*[#   2]+0.060*[#   6]
    |psi|^2 = 0.198
==== e(   9) =     5.79672 eV ==== 
     psi = 0.064*[#   1]+0.048*[#   5]+0.007*[#   3]+0.007*[#   4]+0.001*[#   7]
          +0.001*[#   8]
    |psi|^2 = 0.130
==== e(  10) =     7.82535 eV ==== 
     psi = 0.217*[#   6]+0.216*[#   2]
    |psi|^2 = 0.433

 k =   0.0000000000  0.1732050808  0.0000000000
==== e(   1) =   -20.86902 eV ==== 
     psi = 0.520*[#   5]+0.312*[#   1]+0.066*[#   3]+0.066*[#   4]+0.013*[#   7]
          +0.013*[#   8]
    |psi|^2 = 0.990
==== e(   2) =    -8.54715 eV ==== 
     psi = 0.569*[#   6]+0.401*[#   2]
    |psi|^2 = 0.970
==== e(   3) =    -6.65864 eV ==== 
     psi = 0.368*[#   7]+0.368*[#   8]+0.080*[#   3]+0.080*[#   4]+0.061*[#   1]
          +0.037*[#   5]
    |psi|^2 = 0.994
==== e(   4) =    -5.79240 eV ==== 
     psi = 0.371*[#   7]+0.371*[#   8]+0.128*[#   3]+0.128*[#   4]
    |psi|^2 = 0.997
==== e(   5) =     1.83553 eV ==== 
     psi = 0.101*[#   5]+0.098*[#   1]+0.051*[#   3]+0.051*[#   4]+0.001*[#   7]
          +0.001*[#   8]
    |psi|^2 = 0.304
==== e(   6) =     2.92330 eV ==== 
     psi = 0.195*[#   2]+0.053*[#   6]
    |psi|^2 = 0.248
==== e(   7) =     3.40531 eV ==== 
     psi = 0.020*[#   1]+0.017*[#   5]+0.005*[#   3]+0.005*[#   4]
    |psi|^2 = 0.048
==== e(   8) =     5.11830 eV ==== 
     psi = 0.146*[#   2]+0.067*[#   6]
    |psi|^2 = 0.213
==== e(   9) =     5.94128 eV ==== 
     psi = 0.065*[#   1]+0.049*[#   5]+0.009*[#   3]+0.009*[#   4]+0.001*[#   7]
          +0.001*[#   8]
    |psi|^2 = 0.135
==== e(  10) =     7.73573 eV ==== 
     psi = 0.229*[#   6]+0.220*[#   2]
    |psi|^2 = 0.449

 k =   0.0000000000  0.1924500897  0.0000000000
==== e(   1) =   -20.76826 eV ==== 
     psi = 0.515*[#   5]+0.293*[#   1]+0.076*[#   3]+0.076*[#   4]+0.016*[#   7]
          +0.016*[#   8]
    |psi|^2 = 0.990
==== e(   2) =    -8.41001 eV ==== 
     psi = 0.573*[#   6]+0.399*[#   2]
    |psi|^2 = 0.972
==== e(   3) =    -6.98628 eV ==== 
     psi = 0.363*[#   7]+0.363*[#   8]+0.077*[#   3]+0.077*[#   4]+0.069*[#   1]
          +0.043*[#   5]
    |psi|^2 = 0.993
==== e(   4) =    -5.93936 eV ==== 
     psi = 0.368*[#   7]+0.368*[#   8]+0.131*[#   3]+0.131*[#   4]
    |psi|^2 = 0.997
==== e(   5) =     2.00286 eV ==== 
     psi = 0.101*[#   5]+0.091*[#   1]+0.055*[#   3]+0.055*[#   4]+0.001*[#   7]
          +0.001*[#   8]
    |psi|^2 = 0.305
==== e(   6) =     3.07658 eV ==== 
     psi = 0.198*[#   2]+0.056*[#   6]
    |psi|^2 = 0.254
==== e(   7) =     3.57576 eV ==== 
     psi = 0.019*[#   1]+0.017*[#   5]+0.006*[#   3]+0.006*[#   4]
    |psi|^2 = 0.048
==== e(   8) =     5.24305 eV ==== 
     psi = 0.157*[#   2]+0.076*[#   6]
    |psi|^2 = 0.234
==== e(   9) =     6.09889 eV ==== 
     psi = 0.067*[#   1]+0.051*[#   5]+0.011*[#   3]+0.011*[#   4]+0.002*[#   7]
          +0.002*[#   8]
    |psi|^2 = 0.144
==== e(  10) =     7.61803 eV ==== 
     psi = 0.232*[#   6]+0.218*[#   2]
    |psi|^2 = 0.449

 k =   0.0000000000  0.2116950987  0.0000000000
==== e(   1) =   -20.65777 eV ==== 
     psi = 0.510*[#   5]+0.274*[#   1]+0.085*[#   3]+0.085*[#   4]+0.018*[#   7]
          +0.018*[#   8]
    |psi|^2 = 0.990
==== e(   2) =    -8.25943 eV ==== 
     psi = 0.578*[#   6]+0.397*[#   2]
    |psi|^2 = 0.974
==== e(   3) =    -7.32827 eV ==== 
     psi = 0.359*[#   7]+0.359*[#   8]+0.078*[#   1]+0.074*[#   3]+0.074*[#   4]
          +0.049*[#   5]
    |psi|^2 = 0.993
==== e(   4) =    -6.08972 eV ==== 
     psi = 0.365*[#   7]+0.365*[#   8]+0.134*[#   3]+0.134*[#   4]
    |psi|^2 = 0.997
==== e(   5) =     2.18637 eV ==== 
     psi = 0.101*[#   5]+0.086*[#   1]+0.058*[#   3]+0.058*[#   4]+0.002*[#   7]
          +0.002*[#   8]
    |psi|^2 = 0.306
==== e(   6) =     3.24233 eV ==== 
     psi = 0.204*[#   2]+0.060*[#   6]
    |psi|^2 = 0.264
==== e(   7) =     3.76374 eV ==== 
     psi = 0.018*[#   1]+0.017*[#   5]+0.006*[#   3]+0.006*[#   4]
    |psi|^2 = 0.048
==== e(   8) =     5.36648 eV ==== 
     psi = 0.174*[#   2]+0.091*[#   6]
    |psi|^2 = 0.265
==== e(   9) =     6.26737 eV ==== 
     psi = 0.071*[#   1]+0.054*[#   5]+0.014*[#   3]+0.014*[#   4]+0.002*[#   7]
          +0.002*[#   8]
    |psi|^2 = 0.158
==== e(  10) =     7.48005 eV ==== 
     psi = 0.223*[#   6]+0.204*[#   2]
    |psi|^2 = 0.427

 k =   0.0000000000  0.2309401077  0.0000000000
==== e(   1) =   -20.53796 eV ==== 
     psi = 0.506*[#   5]+0.256*[#   1]+0.094*[#   3]+0.094*[#   4]+0.020*[#   7]
          +0.020*[#   8]
    |psi|^2 = 0.990
==== e(   2) =    -8.09595 eV ==== 
     psi = 0.583*[#   6]+0.393*[#   2]
    |psi|^2 = 0.976
==== e(   3) =    -7.68264 eV ==== 
     psi = 0.355*[#   7]+0.355*[#   8]+0.086*[#   1]+0.071*[#   3]+0.071*[#   4]
          +0.054*[#   5]
    |psi|^2 = 0.993
==== e(   4) =    -6.24245 eV ==== 
     psi = 0.362*[#   7]+0.362*[#   8]+0.137*[#   3]+0.137*[#   4]
    |psi|^2 = 0.998
==== e(   5) =     2.38584 eV ==== 
     psi = 0.101*[#   5]+0.082*[#   1]+0.060*[#   3]+0.060*[#   4]+0.002*[#   7]
          +0.002*[#   8]
    |psi|^2 = 0.307
==== e(   6) =     3.41786 eV ==== 
     psi = 0.215*[#   2]+0.066*[#   6]
    |psi|^2 = 0.281
==== e(   7) =     3.96917 eV ==== 
     psi = 0.018*[#   1]+0.016*[#   5]+0.006*[#   3]+0.006*[#   4]
    |psi|^2 = 0.048
==== e(   8) =     5.47701 eV ==== 
     psi = 0.197*[#   2]+0.112*[#   6]
    |psi|^2 = 0.310
==== e(   9) =     6.44313 eV ==== 
     psi = 0.079*[#   1]+0.059*[#   5]+0.019*[#   3]+0.019*[#   4]+0.003*[#   7]
          +0.003*[#   8]
    |psi|^2 = 0.182
==== e(  10) =     7.33903 eV ==== 
     psi = 0.200*[#   6]+0.176*[#   2]
    |psi|^2 = 0.376

 k =   0.0000000000  0.2501851166  0.0000000000
==== e(   1) =   -20.40914 eV ==== 
     psi = 0.503*[#   5]+0.238*[#   1]+0.103*[#   3]+0.103*[#   4]+0.021*[#   7]
          +0.021*[#   8]
    |psi|^2 = 0.989
==== e(   2) =    -8.04554 eV ==== 
     psi = 0.351*[#   7]+0.351*[#   8]+0.094*[#   1]+0.069*[#   3]+0.069*[#   4]
          +0.058*[#   5]
    |psi|^2 = 0.993
==== e(   3) =    -7.91983 eV ==== 
     psi = 0.589*[#   6]+0.390*[#   2]
    |psi|^2 = 0.979
==== e(   4) =    -6.39476 eV ==== 
     psi = 0.359*[#   7]+0.359*[#   8]+0.140*[#   3]+0.140*[#   4]
    |psi|^2 = 0.998
==== e(   5) =     2.60109 eV ==== 
     psi = 0.101*[#   5]+0.080*[#   1]+0.061*[#   3]+0.061*[#   4]+0.002*[#   7]
          +0.002*[#   8]
    |psi|^2 = 0.307
==== e(   6) =     3.59854 eV ==== 
     psi = 0.234*[#   2]+0.077*[#   6]
    |psi|^2 = 0.311
==== e(   7) =     4.19193 eV ==== 
     psi = 0.018*[#   1]+0.016*[#   5]+0.006*[#   3]+0.006*[#   4]
    |psi|^2 = 0.048
==== e(   8) =     5.55681 eV ==== 
     psi = 0.226*[#   2]+0.141*[#   6]
    |psi|^2 = 0.367
==== e(   9) =     6.62043 eV ==== 
     psi = 0.092*[#   1]+0.069*[#   5]+0.027*[#   3]+0.027*[#   4]+0.004*[#   7]
          +0.004*[#   8]
    |psi|^2 = 0.222
==== e(  10) =     7.22300 eV ==== 
     psi = 0.162*[#   6]+0.134*[#   2]
    |psi|^2 = 0.295

 k =   0.0000000000  0.2694301256  0.0000000000
==== e(   1) =   -20.27207 eV ==== 
     psi = 0.501*[#   5]+0.221*[#   1]+0.111*[#   3]+0.111*[#   4]+0.023*[#   7]
          +0.023*[#   8]
    |psi|^2 = 0.989
==== e(   2) =    -8.41438 eV ==== 
     psi = 0.348*[#   7]+0.348*[#   8]+0.101*[#   1]+0.067*[#   3]+0.067*[#   4]
          +0.062*[#   5]
    |psi|^2 = 0.993
==== e(   3) =    -7.73195 eV ==== 
     psi = 0.597*[#   6]+0.385*[#   2]
    |psi|^2 = 0.981
==== e(   4) =    -6.54562 eV ==== 
     psi = 0.356*[#   7]+0.356*[#   8]+0.143*[#   3]+0.143*[#   4]
    |psi|^2 = 0.998
==== e(   5) =     2.83173 eV ==== 
     psi = 0.101*[#   5]+0.080*[#   1]+0.061*[#   3]+0.061*[#   4]+0.002*[#   7]
          +0.002*[#   8]
    |psi|^2 = 0.307
==== e(   6) =     3.77542 eV ==== 
     psi = 0.265*[#   2]+0.095*[#   6]
    |psi|^2 = 0.360
==== e(   7) =     4.43185 eV ==== 
     psi = 0.018*[#   1]+0.016*[#   5]+0.006*[#   3]+0.006*[#   4]
    |psi|^2 = 0.048
==== e(   8) =     5.58520 eV ==== 
     psi = 0.248*[#   2]+0.169*[#   6]
    |psi|^2 = 0.418
==== e(   9) =     6.78930 eV ==== 
     psi = 0.112*[#   1]+0.083*[#   5]+0.040*[#   3]+0.040*[#   4]+0.006*[#   7]
          +0.006*[#   8]
    |psi|^2 = 0.287
==== e(  10) =     7.16658 eV ==== 
     psi = 0.112*[#   6]+0.084*[#   2]
    |psi|^2 = 0.196

 k =   0.0000000000  0.2886751346  0.0000000000
==== e(   1) =   -20.12680 eV ==== 
     psi = 0.499*[#   5]+0.204*[#   1]+0.119*[#   3]+0.119*[#   4]+0.024*[#   7]
          +0.024*[#   8]
    |psi|^2 = 0.989
==== e(   2) =    -8.78550 eV ==== 
     psi = 0.344*[#   7]+0.344*[#   8]+0.109*[#   1]+0.065*[#   3]+0.065*[#   4]
          +0.065*[#   5]
    |psi|^2 = 0.993
==== e(   3) =    -7.53227 eV ==== 
     psi = 0.605*[#   6]+0.379*[#   2]
    |psi|^2 = 0.984
==== e(   4) =    -6.69268 eV ==== 
     psi = 0.354*[#   7]+0.354*[#   8]+0.145*[#   3]+0.145*[#   4]
    |psi|^2 = 0.998
==== e(   5) =     3.07755 eV ==== 
     psi = 0.100*[#   5]+0.081*[#   1]+0.061*[#   3]+0.061*[#   4]+0.003*[#   7]
          +0.003*[#   8]
    |psi|^2 = 0.308
==== e(   6) =     3.93135 eV ==== 
     psi = 0.319*[#   2]+0.125*[#   6]
    |psi|^2 = 0.444
==== e(   7) =     4.68875 eV ==== 
     psi = 0.019*[#   1]+0.016*[#   5]+0.006*[#   3]+0.006*[#   4]
    |psi|^2 = 0.049
==== e(   8) =     5.55900 eV ==== 
     psi = 0.240*[#   2]+0.178*[#   6]
    |psi|^2 = 0.419
==== e(   9) =     6.93624 eV ==== 
     psi = 0.139*[#   1]+0.103*[#   5]+0.059*[#   3]+0.059*[#   4]+0.009*[#   7]
          +0.009*[#   8]
    |psi|^2 = 0.378
==== e(  10) =     7.19624 eV ==== 
     psi = 0.066*[#   6]+0.043*[#   2]
    |psi|^2 = 0.110

 k =   0.0000000000  0.3079201436  0.0000000000
==== e(   1) =   -19.97443 eV ==== 
     psi = 0.499*[#   5]+0.189*[#   1]+0.126*[#   3]+0.126*[#   4]+0.025*[#   7]
          +0.025*[#   8]
    |psi|^2 = 0.989
==== e(   2) =    -9.15712 eV ==== 
     psi = 0.341*[#   7]+0.341*[#   8]+0.116*[#   1]+0.067*[#   5]+0.063*[#   3]
          +0.063*[#   4]
    |psi|^2 = 0.993
==== e(   3) =    -7.32244 eV ==== 
     psi = 0.615*[#   6]+0.371*[#   2]
    |psi|^2 = 0.986
==== e(   4) =    -6.83557 eV ==== 
     psi = 0.351*[#   7]+0.351*[#   8]+0.148*[#   3]+0.148*[#   4]
    |psi|^2 = 0.997
==== e(   5) =     3.33792 eV ==== 
     psi = 0.100*[#   5]+0.084*[#   1]+0.060*[#   3]+0.060*[#   4]+0.003*[#   7]
          +0.003*[#   8]
    |psi|^2 = 0.310
==== e(   6) =     4.03306 eV ==== 
     psi = 0.402*[#   2]+0.174*[#   6]
    |psi|^2 = 0.576
==== e(   7) =     4.96226 eV ==== 
     psi = 0.020*[#   1]+0.017*[#   5]+0.006*[#   3]+0.006*[#   4]
    |psi|^2 = 0.051
==== e(   8) =     5.51506 eV ==== 
     psi = 0.187*[#   2]+0.152*[#   6]
    |psi|^2 = 0.339
==== e(   9) =     7.04834 eV ==== 
     psi = 0.167*[#   1]+0.125*[#   5]+0.082*[#   3]+0.082*[#   4]+0.012*[#   7]
          +0.012*[#   8]
    |psi|^2 = 0.480
==== e(  10) =     7.31232 eV ==== 
     psi = 0.036*[#   6]+0.019*[#   2]
    |psi|^2 = 0.055

 k =   0.0000000000  0.3271651525  0.0000000000
==== e(   1) =   -19.81552 eV ==== 
     psi = 0.499*[#   5]+0.174*[#   1]+0.132*[#   3]+0.132*[#   4]+0.026*[#   7]
          +0.026*[#   8]
    |psi|^2 = 0.989
==== e(   2) =    -9.52567 eV ==== 
     psi = 0.339*[#   7]+0.339*[#   8]+0.123*[#   1]+0.069*[#   5]+0.062*[#   3]
          +0.062*[#   4]
    |psi|^2 = 0.993
==== e(   3) =    -7.10268 eV ==== 
     psi = 0.626*[#   6]+0.362*[#   2]
    |psi|^2 = 0.988
==== e(   4) =    -6.97264 eV ==== 
     psi = 0.349*[#   7]+0.349*[#   8]+0.150*[#   3]+0.150*[#   4]
    |psi|^2 = 0.997
==== e(   5) =     3.61222 eV ==== 
     psi = 0.100*[#   5]+0.089*[#   1]+0.059*[#   3]+0.059*[#   4]+0.003*[#   7]
          +0.003*[#   8]
    |psi|^2 = 0.313
==== e(   6) =     4.03476 eV ==== 
     psi = 0.499*[#   2]+0.233*[#   6]
    |psi|^2 = 0.732
==== e(   7) =     5.25183 eV ==== 
     psi = 0.022*[#   1]+0.018*[#   5]+0.007*[#   3]+0.007*[#   4]
    |psi|^2 = 0.055
==== e(   8) =     5.52287 eV ==== 
     psi = 0.108*[#   2]+0.099*[#   6]
    |psi|^2 = 0.207
==== e(   9) =     7.12398 eV ==== 
     psi = 0.188*[#   1]+0.143*[#   5]+0.100*[#   3]+0.100*[#   4]+0.015*[#   7]
          +0.015*[#   8]
    |psi|^2 = 0.561
==== e(  10) =     7.49685 eV ==== 
     psi = 0.019*[#   6]+0.009*[#   2]
    |psi|^2 = 0.028

 k =   0.0000000000  0.3464101615  0.0000000000
==== e(   1) =   -19.65126 eV ==== 
     psi = 0.501*[#   5]+0.159*[#   1]+0.138*[#   3]+0.138*[#   4]+0.026*[#   7]
          +0.026*[#   8]
    |psi|^2 = 0.988
==== e(   2) =    -9.88977 eV ==== 
     psi = 0.337*[#   7]+0.337*[#   8]+0.130*[#   1]+0.069*[#   5]+0.060*[#   3]
          +0.060*[#   4]
    |psi|^2 = 0.993
==== e(   3) =    -7.10279 eV ==== 
     psi = 0.347*[#   7]+0.347*[#   8]+0.152*[#   3]+0.152*[#   4]
    |psi|^2 = 0.997
==== e(   4) =    -6.87489 eV ==== 
     psi = 0.638*[#   6]+0.352*[#   2]
    |psi|^2 = 0.990
==== e(   5) =     3.89939 eV ==== 
     psi = 0.100*[#   5]+0.096*[#   1]+0.058*[#   3]+0.058*[#   4]+0.003*[#   7]
          +0.003*[#   8]
    |psi|^2 = 0.318
==== e(   6) =     3.91113 eV ==== 
     psi = 0.572*[#   2]+0.277*[#   6]
    |psi|^2 = 0.850
==== e(   7) =     5.55642 eV ==== 
     psi = 0.026*[#   1]+0.019*[#   5]+0.007*[#   3]+0.007*[#   4]
    |psi|^2 = 0.061
==== e(   8) =     5.63000 eV ==== 
     psi = 0.052*[#   6]+0.047*[#   2]
    |psi|^2 = 0.099
==== e(   9) =     7.17385 eV ==== 
     psi = 0.197*[#   1]+0.154*[#   5]+0.110*[#   3]+0.110*[#   4]+0.017*[#   7]
          +0.017*[#   8]
    |psi|^2 = 0.605
==== e(  10) =     7.73081 eV ==== 
     psi = 0.010*[#   6]+0.005*[#   2]
    |psi|^2 = 0.015

 k =   0.0000000000  0.3656551705  0.0000000000
==== e(   1) =   -19.48302 eV ==== 
     psi = 0.503*[#   5]+0.145*[#   1]+0.144*[#   3]+0.144*[#   4]+0.026*[#   7]
          +0.026*[#   8]
    |psi|^2 = 0.988
==== e(   2) =   -10.24637 eV ==== 
     psi = 0.335*[#   7]+0.335*[#   8]+0.138*[#   1]+0.068*[#   5]+0.058*[#   3]
          +0.058*[#   4]
    |psi|^2 = 0.993
==== e(   3) =    -7.22530 eV ==== 
     psi = 0.345*[#   7]+0.345*[#   8]+0.154*[#   3]+0.154*[#   4]
    |psi|^2 = 0.997
==== e(   4) =    -6.64007 eV ==== 
     psi = 0.652*[#   6]+0.340*[#   2]
    |psi|^2 = 0.991
==== e(   5) =     3.68694 eV ==== 
     psi = 0.612*[#   2]+0.294*[#   6]
    |psi|^2 = 0.907
==== e(   6) =     4.19783 eV ==== 
     psi = 0.105*[#   1]+0.102*[#   5]+0.057*[#   3]+0.057*[#   4]+0.004*[#   7]
          +0.004*[#   8]
    |psi|^2 = 0.328
==== e(   7) =     5.82983 eV ==== 
     psi = 0.025*[#   6]+0.019*[#   2]
    |psi|^2 = 0.044
==== e(   8) =     5.87406 eV ==== 
     psi = 0.031*[#   1]+0.022*[#   5]+0.008*[#   3]+0.008*[#   4]
    |psi|^2 = 0.072
==== e(   9) =     7.21275 eV ==== 
     psi = 0.197*[#   1]+0.157*[#   5]+0.114*[#   3]+0.114*[#   4]+0.017*[#   7]
          +0.017*[#   8]
    |psi|^2 = 0.616
==== e(  10) =     8.00122 eV ==== 
     psi = 0.006*[#   6]+0.004*[#   2]
    |psi|^2 = 0.010

 k =   0.0000000000  0.3849001795  0.0000000000
==== e(   1) =   -19.31194 eV ==== 
     psi = 0.507*[#   5]+0.150*[#   3]+0.150*[#   4]+0.132*[#   1]+0.025*[#   7]
          +0.025*[#   8]
    |psi|^2 = 0.988
==== e(   2) =   -10.59230 eV ==== 
     psi = 0.334*[#   7]+0.334*[#   8]+0.145*[#   1]+0.066*[#   5]+0.056*[#   3]
          +0.056*[#   4]
    |psi|^2 = 0.993
==== e(   3) =    -7.33921 eV ==== 
     psi = 0.343*[#   7]+0.343*[#   8]+0.155*[#   3]+0.155*[#   4]
    |psi|^2 = 0.997
==== e(   4) =    -6.39994 eV ==== 
     psi = 0.668*[#   6]+0.325*[#   2]
    |psi|^2 = 0.993
==== e(   5) =     3.40241 eV ==== 
     psi = 0.635*[#   2]+0.293*[#   6]
    |psi|^2 = 0.929
==== e(   6) =     4.50545 eV ==== 
     psi = 0.118*[#   1]+0.105*[#   5]+0.056*[#   3]+0.056*[#   4]+0.004*[#   7]
          +0.004*[#   8]
    |psi|^2 = 0.343
==== e(   7) =     6.09389 eV ==== 
     psi = 0.013*[#   6]+0.009*[#   2]
    |psi|^2 = 0.022
==== e(   8) =     6.20059 eV ==== 
     psi = 0.041*[#   1]+0.029*[#   5]+0.011*[#   3]+0.011*[#   4]+0.001*[#   7]
          +0.001*[#   8]
    |psi|^2 = 0.094
==== e(   9) =     7.25581 eV ==== 
     psi = 0.185*[#   1]+0.153*[#   5]+0.111*[#   3]+0.111*[#   4]+0.016*[#   7]
          +0.016*[#   8]
    |psi|^2 = 0.594
==== e(  10) =     8.30001 eV ==== 
     psi = 0.004*[#   2]+0.004*[#   6]
    |psi|^2 = 0.008

 k =   0.0000000000  0.4041451884  0.0000000000
==== e(   1) =   -19.14030 eV ==== 
     psi = 0.512*[#   5]+0.155*[#   3]+0.155*[#   4]+0.119*[#   1]+0.024*[#   7]
          +0.024*[#   8]
    |psi|^2 = 0.988
==== e(   2) =   -10.92533 eV ==== 
     psi = 0.334*[#   7]+0.334*[#   8]+0.153*[#   1]+0.063*[#   5]+0.054*[#   3]
          +0.054*[#   4]
    |psi|^2 = 0.993
==== e(   3) =    -7.44460 eV ==== 
     psi = 0.342*[#   7]+0.342*[#   8]+0.157*[#   3]+0.157*[#   4]
    |psi|^2 = 0.997
==== e(   4) =    -6.15750 eV ==== 
     psi = 0.685*[#   6]+0.309*[#   2]
    |psi|^2 = 0.994
==== e(   5) =     3.08686 eV ==== 
     psi = 0.654*[#   2]+0.283*[#   6]
    |psi|^2 = 0.937
==== e(   6) =     4.81839 eV ==== 
     psi = 0.136*[#   1]+0.111*[#   5]+0.056*[#   3]+0.056*[#   4]+0.004*[#   7]
          +0.004*[#   8]
    |psi|^2 = 0.368
==== e(   7) =     6.40106 eV ==== 
     psi = 0.007*[#   6]+0.006*[#   2]
    |psi|^2 = 0.013
==== e(   8) =     6.52574 eV ==== 
     psi = 0.059*[#   1]+0.043*[#   5]+0.018*[#   3]+0.018*[#   4]+0.002*[#   7]
          +0.002*[#   8]
    |psi|^2 = 0.142
==== e(   9) =     7.32137 eV ==== 
     psi = 0.158*[#   1]+0.136*[#   5]+0.101*[#   3]+0.101*[#   4]+0.015*[#   7]
          +0.015*[#   8]
    |psi|^2 = 0.527
==== e(  10) =     8.62196 eV ==== 
     psi = 0.004*[#   2]+0.003*[#   6]
    |psi|^2 = 0.007

 k =   0.0000000000  0.4233901974  0.0000000000
==== e(   1) =   -18.97003 eV ==== 
     psi = 0.517*[#   5]+0.161*[#   3]+0.161*[#   4]+0.106*[#   1]+0.022*[#   7]
          +0.022*[#   8]
    |psi|^2 = 0.988
==== e(   2) =   -11.24180 eV ==== 
     psi = 0.334*[#   7]+0.334*[#   8]+0.161*[#   1]+0.059*[#   5]+0.052*[#   3]
          +0.052*[#   4]
    |psi|^2 = 0.992
==== e(   3) =    -7.53982 eV ==== 
     psi = 0.341*[#   7]+0.341*[#   8]+0.158*[#   3]+0.158*[#   4]
    |psi|^2 = 0.997
==== e(   4) =    -5.91505 eV ==== 
     psi = 0.704*[#   6]+0.290*[#   2]
    |psi|^2 = 0.995
==== e(   5) =     2.76002 eV ==== 
     psi = 0.672*[#   2]+0.267*[#   6]
    |psi|^2 = 0.939
==== e(   6) =     5.13105 eV ==== 
     psi = 0.159*[#   1]+0.121*[#   5]+0.058*[#   3]+0.058*[#   4]+0.004*[#   7]
          +0.004*[#   8]
    |psi|^2 = 0.406
==== e(   7) =     6.73957 eV ==== 
     psi = 0.005*[#   2]+0.004*[#   6]
    |psi|^2 = 0.010
==== e(   8) =     6.82486 eV ==== 
     psi = 0.094*[#   1]+0.072*[#   5]+0.035*[#   3]+0.035*[#   4]+0.004*[#   7]
          +0.004*[#   8]
    |psi|^2 = 0.243
==== e(   9) =     7.44331 eV ==== 
     psi = 0.108*[#   1]+0.100*[#   5]+0.078*[#   3]+0.078*[#   4]+0.012*[#   7]
          +0.012*[#   8]
    |psi|^2 = 0.389
==== e(  10) =     8.96356 eV ==== 
     psi = 0.004*[#   2]+0.002*[#   6]
    |psi|^2 = 0.007

 k =   0.0000000000  0.4426352064  0.0000000000
==== e(   1) =   -18.80421 eV ==== 
     psi = 0.524*[#   5]+0.166*[#   3]+0.166*[#   4]+0.094*[#   1]+0.019*[#   7]
          +0.019*[#   8]
    |psi|^2 = 0.989
==== e(   2) =   -11.53824 eV ==== 
     psi = 0.336*[#   7]+0.336*[#   8]+0.169*[#   1]+0.053*[#   5]+0.049*[#   3]
          +0.049*[#   4]
    |psi|^2 = 0.992
==== e(   3) =    -7.62478 eV ==== 
     psi = 0.339*[#   7]+0.339*[#   8]+0.159*[#   3]+0.159*[#   4]
    |psi|^2 = 0.997
==== e(   4) =    -5.67667 eV ==== 
     psi = 0.725*[#   6]+0.270*[#   2]
    |psi|^2 = 0.995
==== e(   5) =     2.43496 eV ==== 
     psi = 0.692*[#   2]+0.248*[#   6]
    |psi|^2 = 0.940
==== e(   6) =     5.43395 eV ==== 
     psi = 0.191*[#   1]+0.138*[#   5]+0.062*[#   3]+0.062*[#   4]+0.005*[#   7]
          +0.005*[#   8]
    |psi|^2 = 0.463
==== e(   7) =     7.06191 eV ==== 
     psi = 0.127*[#   1]+0.106*[#   5]+0.059*[#   3]+0.059*[#   4]+0.007*[#   7]
          +0.007*[#   8]
    |psi|^2 = 0.364
==== e(   8) =     7.10276 eV ==== 
     psi = 0.005*[#   2]+0.003*[#   6]
    |psi|^2 = 0.008
==== e(   9) =     7.66818 eV ==== 
     psi = 0.051*[#   5]+0.050*[#   1]+0.046*[#   3]+0.046*[#   4]+0.008*[#   7]
          +0.008*[#   8]
    |psi|^2 = 0.209
==== e(  10) =     9.32172 eV ==== 
     psi = 0.005*[#   2]+0.002*[#   6]
    |psi|^2 = 0.007

 k =   0.0000000000  0.4618802154  0.0000000000
==== e(   1) =   -18.64600 eV ==== 
     psi = 0.532*[#   5]+0.171*[#   3]+0.171*[#   4]+0.082*[#   1]+0.016*[#   7]
          +0.016*[#   8]
    |psi|^2 = 0.989
==== e(   2) =   -11.81086 eV ==== 
     psi = 0.338*[#   7]+0.338*[#   8]+0.177*[#   1]+0.047*[#   3]+0.047*[#   4]
          +0.047*[#   5]
    |psi|^2 = 0.992
==== e(   3) =    -7.69949 eV ==== 
     psi = 0.338*[#   7]+0.338*[#   8]+0.160*[#   3]+0.160*[#   4]
    |psi|^2 = 0.997
==== e(   4) =    -5.44636 eV ==== 
     psi = 0.748*[#   6]+0.247*[#   2]
    |psi|^2 = 0.995
==== e(   5) =     2.12256 eV ==== 
     psi = 0.714*[#   2]+0.226*[#   6]
    |psi|^2 = 0.940
==== e(   6) =     5.71296 eV ==== 
     psi = 0.232*[#   1]+0.162*[#   5]+0.070*[#   3]+0.070*[#   4]+0.006*[#   7]
          +0.006*[#   8]
    |psi|^2 = 0.544
==== e(   7) =     7.24907 eV ==== 
     psi = 0.123*[#   1]+0.112*[#   5]+0.069*[#   3]+0.069*[#   4]+0.009*[#   7]
          +0.009*[#   8]
    |psi|^2 = 0.391
==== e(   8) =     7.48647 eV ==== 
     psi = 0.006*[#   2]+0.002*[#   6]
    |psi|^2 = 0.008
==== e(   9) =     7.99797 eV ==== 
     psi = 0.024*[#   3]+0.024*[#   4]+0.022*[#   5]+0.020*[#   1]+0.005*[#   7]
          +0.005*[#   8]
    |psi|^2 = 0.100
==== e(  10) =     9.69312 eV ==== 
     psi = 0.005*[#   2]+0.002*[#   6]
    |psi|^2 = 0.008

 k =   0.0000000000  0.4811252243  0.0000000000
==== e(   1) =   -18.49970 eV ==== 
     psi = 0.541*[#   5]+0.175*[#   3]+0.175*[#   4]+0.071*[#   1]+0.013*[#   7]
          +0.013*[#   8]
    |psi|^2 = 0.989
==== e(   2) =   -12.05510 eV ==== 
     psi = 0.340*[#   7]+0.340*[#   8]+0.185*[#   1]+0.044*[#   3]+0.044*[#   4]
          +0.039*[#   5]
    |psi|^2 = 0.992
==== e(   3) =    -7.76325 eV ==== 
     psi = 0.338*[#   7]+0.338*[#   8]+0.161*[#   3]+0.161*[#   4]
    |psi|^2 = 0.997
==== e(   4) =    -5.23089 eV ==== 
     psi = 0.772*[#   6]+0.223*[#   2]
    |psi|^2 = 0.995
==== e(   5) =     1.83183 eV ==== 
     psi = 0.738*[#   2]+0.202*[#   6]
    |psi|^2 = 0.941
==== e(   6) =     5.95042 eV ==== 
     psi = 0.278*[#   1]+0.192*[#   5]+0.080*[#   3]+0.080*[#   4]+0.006*[#   7]
          +0.006*[#   8]
    |psi|^2 = 0.642
==== e(   7) =     7.44505 eV ==== 
     psi = 0.094*[#   1]+0.093*[#   5]+0.065*[#   3]+0.065*[#   4]+0.009*[#   7]
          +0.009*[#   8]
    |psi|^2 = 0.334
==== e(   8) =     7.88754 eV ==== 
     psi = 0.006*[#   2]+0.002*[#   6]
    |psi|^2 = 0.008
==== e(   9) =     8.39110 eV ==== 
     psi = 0.014*[#   3]+0.014*[#   4]+0.011*[#   1]+0.011*[#   5]+0.003*[#   7]
          +0.003*[#   8]
    |psi|^2 = 0.057
==== e(  10) =    10.07260 eV ==== 
     psi = 0.006*[#   2]+0.003*[#   6]
    |psi|^2 = 0.009

 k =   0.0000000000  0.5003702333  0.0000000000
==== e(   1) =   -18.36976 eV ==== 
     psi = 0.550*[#   5]+0.180*[#   3]+0.180*[#   4]+0.061*[#   1]+0.009*[#   7]
          +0.009*[#   8]
    |psi|^2 = 0.989
==== e(   2) =   -12.26542 eV ==== 
     psi = 0.343*[#   7]+0.343*[#   8]+0.193*[#   1]+0.041*[#   3]+0.041*[#   4]
          +0.031*[#   5]
    |psi|^2 = 0.992
==== e(   3) =    -7.81568 eV ==== 
     psi = 0.337*[#   7]+0.337*[#   8]+0.161*[#   3]+0.161*[#   4]
    |psi|^2 = 0.997
==== e(   4) =    -5.03684 eV ==== 
     psi = 0.796*[#   6]+0.198*[#   2]
    |psi|^2 = 0.994
==== e(   5) =     1.57303 eV ==== 
     psi = 0.762*[#   2]+0.179*[#   6]
    |psi|^2 = 0.941
==== e(   6) =     6.13237 eV ==== 
     psi = 0.318*[#   1]+0.222*[#   5]+0.091*[#   3]+0.091*[#   4]+0.007*[#   7]
          +0.007*[#   8]
    |psi|^2 = 0.736
==== e(   7) =     7.68954 eV ==== 
     psi = 0.068*[#   5]+0.062*[#   1]+0.055*[#   3]+0.055*[#   4]+0.008*[#   7]
          +0.008*[#   8]
    |psi|^2 = 0.257
==== e(   8) =     8.30285 eV ==== 
     psi = 0.006*[#   2]+0.003*[#   6]
    |psi|^2 = 0.009
==== e(   9) =     8.82038 eV ==== 
     psi = 0.010*[#   3]+0.010*[#   4]+0.009*[#   1]+0.006*[#   5]+0.003*[#   7]
          +0.003*[#   8]
    |psi|^2 = 0.041
==== e(  10) =    10.44913 eV ==== 
     psi = 0.008*[#   2]+0.004*[#   6]
    |psi|^2 = 0.011

 k =   0.0000000000  0.5196152423  0.0000000000
==== e(   1) =   -18.26112 eV ==== 
     psi = 0.558*[#   5]+0.184*[#   3]+0.184*[#   4]+0.052*[#   1]+0.006*[#   7]
          +0.006*[#   8]
    |psi|^2 = 0.989
==== e(   2) =   -12.43721 eV ==== 
     psi = 0.346*[#   7]+0.346*[#   8]+0.200*[#   1]+0.038*[#   3]+0.038*[#   4]
          +0.024*[#   5]
    |psi|^2 = 0.992
==== e(   3) =    -7.85665 eV ==== 
     psi = 0.336*[#   7]+0.336*[#   8]+0.162*[#   3]+0.162*[#   4]
    |psi|^2 = 0.997
==== e(   4) =    -4.87211 eV ==== 
     psi = 0.819*[#   6]+0.175*[#   2]
    |psi|^2 = 0.994
==== e(   5) =     1.35676 eV ==== 
     psi = 0.785*[#   2]+0.156*[#   6]
    |psi|^2 = 0.942
==== e(   6) =     6.25687 eV ==== 
     psi = 0.346*[#   1]+0.246*[#   5]+0.100*[#   3]+0.100*[#   4]+0.007*[#   7]
          +0.007*[#   8]
    |psi|^2 = 0.806
==== e(   7) =     7.99173 eV ==== 
     psi = 0.046*[#   5]+0.046*[#   3]+0.046*[#   4]+0.042*[#   1]+0.008*[#   7]
          +0.008*[#   8]
    |psi|^2 = 0.196
==== e(   8) =     8.72803 eV ==== 
     psi = 0.007*[#   2]+0.003*[#   6]
    |psi|^2 = 0.010
==== e(   9) =     9.27277 eV ==== 
     psi = 0.009*[#   1]+0.008*[#   3]+0.008*[#   4]+0.004*[#   5]+0.003*[#   7]
          +0.003*[#   8]
    |psi|^2 = 0.036
==== e(  10) =    10.66970 eV ==== 
     psi = 0.047*[#   1]+0.016*[#   3]+0.016*[#   4]+0.011*[#   7]+0.011*[#   8]
          +0.010*[#   5]
    |psi|^2 = 0.110

 k =   0.0000000000  0.5388602512  0.0000000000
==== e(   1) =   -18.17889 eV ==== 
     psi = 0.565*[#   5]+0.187*[#   3]+0.187*[#   4]+0.045*[#   1]+0.003*[#   7]
          +0.003*[#   8]
    |psi|^2 = 0.989
==== e(   2) =   -12.56466 eV ==== 
     psi = 0.348*[#   7]+0.348*[#   8]+0.205*[#   1]+0.036*[#   3]+0.036*[#   4]
          +0.018*[#   5]
    |psi|^2 = 0.992
==== e(   3) =    -7.88599 eV ==== 
     psi = 0.336*[#   7]+0.336*[#   8]+0.162*[#   3]+0.162*[#   4]
    |psi|^2 = 0.997
==== e(   4) =    -4.74565 eV ==== 
     psi = 0.838*[#   6]+0.156*[#   2]
    |psi|^2 = 0.994
==== e(   5) =     1.19242 eV ==== 
     psi = 0.805*[#   2]+0.138*[#   6]
    |psi|^2 = 0.942
==== e(   6) =     6.33364 eV ==== 
     psi = 0.362*[#   1]+0.260*[#   5]+0.105*[#   3]+0.105*[#   4]+0.007*[#   7]
          +0.007*[#   8]
    |psi|^2 = 0.848
==== e(   7) =     8.34018 eV ==== 
     psi = 0.040*[#   3]+0.040*[#   4]+0.035*[#   1]+0.032*[#   5]+0.009*[#   7]
          +0.009*[#   8]
    |psi|^2 = 0.165
==== e(   8) =     9.15392 eV ==== 
     psi = 0.009*[#   2]+0.004*[#   6]
    |psi|^2 = 0.013
==== e(   9) =     9.72663 eV ==== 
     psi = 0.015*[#   1]+0.010*[#   3]+0.010*[#   4]+0.004*[#   5]+0.004*[#   7]
          +0.004*[#   8]
    |psi|^2 = 0.048
==== e(  10) =    10.25373 eV ==== 
     psi = 0.024*[#   1]+0.009*[#   3]+0.009*[#   4]+0.008*[#   5]+0.005*[#   7]
          +0.005*[#   8]
    |psi|^2 = 0.060

 k =   0.0000000000  0.5581052602  0.0000000000
==== e(   1) =   -18.12752 eV ==== 
     psi = 0.570*[#   5]+0.189*[#   3]+0.189*[#   4]+0.041*[#   1]
    |psi|^2 = 0.990
==== e(   2) =   -12.64310 eV ==== 
     psi = 0.350*[#   7]+0.350*[#   8]+0.209*[#   1]+0.034*[#   3]+0.034*[#   4]
          +0.013*[#   5]
    |psi|^2 = 0.991
==== e(   3) =    -7.90368 eV ==== 
     psi = 0.336*[#   7]+0.336*[#   8]+0.163*[#   3]+0.163*[#   4]
    |psi|^2 = 0.996
==== e(   4) =    -4.66586 eV ==== 
     psi = 0.851*[#   6]+0.143*[#   2]
    |psi|^2 = 0.993
==== e(   5) =     1.08933 eV ==== 
     psi = 0.818*[#   2]+0.125*[#   6]
    |psi|^2 = 0.943
==== e(   6) =     6.37446 eV ==== 
     psi = 0.369*[#   1]+0.268*[#   5]+0.108*[#   3]+0.108*[#   4]+0.008*[#   7]
          +0.008*[#   8]
    |psi|^2 = 0.868
==== e(   7) =     8.70292 eV ==== 
     psi = 0.041*[#   3]+0.041*[#   4]+0.040*[#   1]+0.024*[#   5]+0.011*[#   7]
          +0.011*[#   8]
    |psi|^2 = 0.168
==== e(   8) =     9.55143 eV ==== 
     psi = 0.012*[#   2]+0.005*[#   6]
    |psi|^2 = 0.017
==== e(   9) =     9.75177 eV ==== 
     psi = 0.022*[#   1]+0.011*[#   3]+0.011*[#   4]+0.010*[#   5]+0.005*[#   7]
          +0.005*[#   8]
    |psi|^2 = 0.065
==== e(  10) =    10.30034 eV ==== 
     psi = 0.002*[#   1]+0.002*[#   5]+0.001*[#   3]+0.001*[#   4]
    |psi|^2 = 0.008

 k =   0.0000000000 -0.5773502692  0.0000000000
==== e(   1) =   -18.11007 eV ==== 
     psi = 0.571*[#   5]+0.189*[#   3]+0.189*[#   4]+0.039*[#   1]
    |psi|^2 = 0.990
==== e(   2) =   -12.66983 eV ==== 
     psi = 0.351*[#   7]+0.351*[#   8]+0.210*[#   1]+0.034*[#   3]+0.034*[#   4]
          +0.012*[#   5]
    |psi|^2 = 0.991
==== e(   3) =    -7.90968 eV ==== 
     psi = 0.336*[#   7]+0.336*[#   8]+0.163*[#   3]+0.163*[#   4]
    |psi|^2 = 0.996
==== e(   4) =    -4.63861 eV ==== 
     psi = 0.855*[#   6]+0.138*[#   2]
    |psi|^2 = 0.993
==== e(   5) =     1.05422 eV ==== 
     psi = 0.823*[#   2]+0.120*[#   6]
    |psi|^2 = 0.943
==== e(   6) =     6.38710 eV ==== 
     psi = 0.371*[#   1]+0.270*[#   5]+0.109*[#   3]+0.109*[#   4]+0.008*[#   7]
          +0.008*[#   8]
    |psi|^2 = 0.874
==== e(   7) =     8.92827 eV ==== 
     psi = 0.054*[#   1]+0.049*[#   3]+0.049*[#   4]+0.023*[#   5]+0.015*[#   7]
          +0.015*[#   8]
    |psi|^2 = 0.204
==== e(   8) =     9.52380 eV ==== 
     psi = 0.010*[#   5]+0.003*[#   1]
    |psi|^2 = 0.013
==== e(   9) =     9.77019 eV ==== 
     psi = 0.015*[#   2]+0.007*[#   6]
    |psi|^2 = 0.023
==== e(  10) =    10.50389 eV ==== 

    |psi|^2 = 0.002

 k =   0.0166666667  0.0288675135  0.0000000000
==== e(   1) =   -21.28978 eV ==== 
     psi = 0.556*[#   5]+0.428*[#   1]+0.003*[#   3]+0.003*[#   4]
    |psi|^2 = 0.992
==== e(   2) =    -9.11836 eV ==== 
     psi = 0.556*[#   6]+0.406*[#   2]
    |psi|^2 = 0.962
==== e(   3) =    -5.08874 eV ==== 
     psi = 0.390*[#   7]+0.390*[#   8]+0.106*[#   3]+0.106*[#   4]+0.003*[#   1]
          +0.002*[#   5]
    |psi|^2 = 0.996
==== e(   4) =    -5.05324 eV ==== 
     psi = 0.390*[#   7]+0.390*[#   8]+0.109*[#   3]+0.109*[#   4]
    |psi|^2 = 0.997
==== e(   5) =     1.12883 eV ==== 
     psi = 0.178*[#   1]+0.097*[#   5]+0.004*[#   3]+0.004*[#   4]
    |psi|^2 = 0.282
==== e(   6) =     2.27343 eV ==== 
     psi = 0.195*[#   2]+0.049*[#   6]
    |psi|^2 = 0.244
==== e(   7) =     2.70058 eV ==== 
     psi = 0.029*[#   1]+0.017*[#   5]
    |psi|^2 = 0.047
==== e(   8) =     4.53414 eV ==== 
     psi = 0.125*[#   2]+0.046*[#   6]
    |psi|^2 = 0.171
==== e(   9) =     5.25224 eV ==== 
     psi = 0.074*[#   1]+0.049*[#   5]
    |psi|^2 = 0.125
==== e(  10) =     7.92790 eV ==== 
     psi = 0.160*[#   2]+0.139*[#   6]
    |psi|^2 = 0.299

 k =   0.0166666667  0.0481125224  0.0000000000
==== e(   1) =   -21.26794 eV ==== 
     psi = 0.553*[#   5]+0.420*[#   1]+0.008*[#   3]+0.008*[#   4]+0.002*[#   7]
          +0.002*[#   8]
    |psi|^2 = 0.992
==== e(   2) =    -9.08875 eV ==== 
     psi = 0.556*[#   6]+0.406*[#   2]
    |psi|^2 = 0.962
==== e(   3) =    -5.18015 eV ==== 
     psi = 0.388*[#   7]+0.388*[#   8]+0.104*[#   3]+0.104*[#   4]+0.008*[#   1]
          +0.004*[#   5]
    |psi|^2 = 0.996
==== e(   4) =    -5.09787 eV ==== 
     psi = 0.388*[#   7]+0.388*[#   8]+0.110*[#   3]+0.110*[#   4]
    |psi|^2 = 0.997
==== e(   5) =     1.16626 eV ==== 
     psi = 0.170*[#   1]+0.097*[#   5]+0.008*[#   3]+0.008*[#   4]
    |psi|^2 = 0.284
==== e(   6) =     2.30732 eV ==== 
     psi = 0.194*[#   2]+0.049*[#   6]
    |psi|^2 = 0.244
==== e(   7) =     2.73700 eV ==== 
     psi = 0.029*[#   1]+0.017*[#   5]
    |psi|^2 = 0.047
==== e(   8) =     4.56585 eV ==== 
     psi = 0.125*[#   2]+0.047*[#   6]
    |psi|^2 = 0.172
==== e(   9) =     5.28925 eV ==== 
     psi = 0.073*[#   1]+0.049*[#   5]+0.001*[#   3]+0.001*[#   4]
    |psi|^2 = 0.124
==== e(  10) =     7.93256 eV ==== 
     psi = 0.164*[#   2]+0.144*[#   6]
    |psi|^2 = 0.308

 k =   0.0166666667  0.0673575314  0.0000000000
==== e(   1) =   -21.23526 eV ==== 
     psi = 0.549*[#   5]+0.408*[#   1]+0.014*[#   3]+0.014*[#   4]+0.003*[#   7]
          +0.003*[#   8]
    |psi|^2 = 0.992
==== e(   2) =    -9.04450 eV ==== 
     psi = 0.557*[#   6]+0.406*[#   2]
    |psi|^2 = 0.963
==== e(   3) =    -5.31437 eV ==== 
     psi = 0.386*[#   7]+0.386*[#   8]+0.101*[#   3]+0.101*[#   4]+0.014*[#   1]
          +0.008*[#   5]
    |psi|^2 = 0.996
==== e(   4) =    -5.16396 eV ==== 
     psi = 0.387*[#   7]+0.387*[#   8]+0.112*[#   3]+0.112*[#   4]
    |psi|^2 = 0.997
==== e(   5) =     1.22208 eV ==== 
     psi = 0.160*[#   1]+0.098*[#   5]+0.015*[#   3]+0.015*[#   4]
    |psi|^2 = 0.287
==== e(   6) =     2.35806 eV ==== 
     psi = 0.194*[#   2]+0.049*[#   6]
    |psi|^2 = 0.243
==== e(   7) =     2.79154 eV ==== 
     psi = 0.027*[#   1]+0.017*[#   5]+0.002*[#   3]+0.002*[#   4]
    |psi|^2 = 0.048
==== e(   8) =     4.61315 eV ==== 
     psi = 0.126*[#   2]+0.048*[#   6]
    |psi|^2 = 0.174
==== e(   9) =     5.34440 eV ==== 
     psi = 0.071*[#   1]+0.049*[#   5]+0.002*[#   3]+0.002*[#   4]
    |psi|^2 = 0.124
==== e(  10) =     7.93669 eV ==== 
     psi = 0.170*[#   2]+0.153*[#   6]
    |psi|^2 = 0.323

 k =   0.0166666667  0.0866025404  0.0000000000
==== e(   1) =   -21.19178 eV ==== 
     psi = 0.545*[#   5]+0.394*[#   1]+0.022*[#   3]+0.022*[#   4]+0.004*[#   7]
          +0.004*[#   8]
    |psi|^2 = 0.991
==== e(   2) =    -8.98560 eV ==== 
     psi = 0.559*[#   6]+0.405*[#   2]
    |psi|^2 = 0.964
==== e(   3) =    -5.48861 eV ==== 
     psi = 0.384*[#   7]+0.384*[#   8]+0.097*[#   3]+0.097*[#   4]+0.021*[#   1]
          +0.012*[#   5]
    |psi|^2 = 0.996
==== e(   4) =    -5.24898 eV ==== 
     psi = 0.384*[#   7]+0.384*[#   8]+0.114*[#   3]+0.114*[#   4]
    |psi|^2 = 0.997
==== e(   5) =     1.29592 eV ==== 
     psi = 0.148*[#   1]+0.098*[#   5]+0.022*[#   3]+0.022*[#   4]
    |psi|^2 = 0.290
==== e(   6) =     2.42552 eV ==== 
     psi = 0.193*[#   2]+0.050*[#   6]
    |psi|^2 = 0.243
==== e(   7) =     2.86415 eV ==== 
     psi = 0.026*[#   1]+0.017*[#   5]+0.002*[#   3]+0.002*[#   4]
    |psi|^2 = 0.048
==== e(   8) =     4.67569 eV ==== 
     psi = 0.127*[#   2]+0.049*[#   6]
    |psi|^2 = 0.176
==== e(   9) =     5.41728 eV ==== 
     psi = 0.069*[#   1]+0.048*[#   5]+0.003*[#   3]+0.003*[#   4]
    |psi|^2 = 0.124
==== e(  10) =     7.93657 eV ==== 
     psi = 0.179*[#   2]+0.164*[#   6]
    |psi|^2 = 0.343

 k =   0.0166666667  0.1058475494  0.0000000000
==== e(   1) =   -21.13753 eV ==== 
     psi = 0.540*[#   5]+0.378*[#   1]+0.031*[#   3]+0.031*[#   4]+0.006*[#   7]
          +0.006*[#   8]
    |psi|^2 = 0.991
==== e(   2) =    -8.91197 eV ==== 
     psi = 0.560*[#   6]+0.405*[#   2]
    |psi|^2 = 0.965
==== e(   3) =    -5.69932 eV ==== 
     psi = 0.381*[#   7]+0.381*[#   8]+0.094*[#   3]+0.094*[#   4]+0.030*[#   1]
          +0.017*[#   5]
    |psi|^2 = 0.995
==== e(   4) =    -5.35071 eV ==== 
     psi = 0.382*[#   7]+0.382*[#   8]+0.116*[#   3]+0.116*[#   4]
    |psi|^2 = 0.997
==== e(   5) =     1.38746 eV ==== 
     psi = 0.135*[#   1]+0.099*[#   5]+0.029*[#   3]+0.029*[#   4]
    |psi|^2 = 0.294
==== e(   6) =     2.50959 eV ==== 
     psi = 0.193*[#   2]+0.050*[#   6]
    |psi|^2 = 0.243
==== e(   7) =     2.95473 eV ==== 
     psi = 0.024*[#   1]+0.017*[#   5]+0.003*[#   3]+0.003*[#   4]
    |psi|^2 = 0.048
==== e(   8) =     4.75302 eV ==== 
     psi = 0.129*[#   2]+0.051*[#   6]
    |psi|^2 = 0.180
==== e(   9) =     5.50740 eV ==== 
     psi = 0.067*[#   1]+0.048*[#   5]+0.004*[#   3]+0.004*[#   4]
    |psi|^2 = 0.124
==== e(  10) =     7.92742 eV ==== 
     psi = 0.189*[#   2]+0.178*[#   6]
    |psi|^2 = 0.368

 k =   0.0166666667  0.1250925583  0.0000000000
==== e(   1) =   -21.07259 eV ==== 
     psi = 0.534*[#   5]+0.360*[#   1]+0.041*[#   3]+0.041*[#   4]+0.008*[#   7]
          +0.008*[#   8]
    |psi|^2 = 0.991
==== e(   2) =    -8.82378 eV ==== 
     psi = 0.562*[#   6]+0.404*[#   2]
    |psi|^2 = 0.966
==== e(   3) =    -5.94215 eV ==== 
     psi = 0.377*[#   7]+0.377*[#   8]+0.090*[#   3]+0.090*[#   4]+0.038*[#   1]
          +0.023*[#   5]
    |psi|^2 = 0.995
==== e(   4) =    -5.46671 eV ==== 
     psi = 0.379*[#   7]+0.379*[#   8]+0.119*[#   3]+0.119*[#   4]
    |psi|^2 = 0.997
==== e(   5) =     1.49635 eV ==== 
     psi = 0.123*[#   1]+0.099*[#   5]+0.037*[#   3]+0.037*[#   4]
    |psi|^2 = 0.297
==== e(   6) =     2.61001 eV ==== 
     psi = 0.193*[#   2]+0.050*[#   6]
    |psi|^2 = 0.243
==== e(   7) =     3.06321 eV ==== 
     psi = 0.023*[#   1]+0.017*[#   5]+0.004*[#   3]+0.004*[#   4]
    |psi|^2 = 0.048
==== e(   8) =     4.84435 eV ==== 
     psi = 0.132*[#   2]+0.054*[#   6]
    |psi|^2 = 0.186
==== e(   9) =     5.61416 eV ==== 
     psi = 0.065*[#   1]+0.048*[#   5]+0.005*[#   3]+0.005*[#   4]
    |psi|^2 = 0.125
==== e(  10) =     7.90300 eV ==== 
     psi = 0.201*[#   2]+0.194*[#   6]
    |psi|^2 = 0.395

 k =   0.0166666667  0.1443375673  0.0000000000
==== e(   1) =   -20.99725 eV ==== 
     psi = 0.528*[#   5]+0.341*[#   1]+0.051*[#   3]+0.051*[#   4]+0.010*[#   7]
          +0.010*[#   8]
    |psi|^2 = 0.991
==== e(   2) =    -8.72146 eV ==== 
     psi = 0.565*[#   6]+0.403*[#   2]
    |psi|^2 = 0.968
==== e(   3) =    -6.21377 eV ==== 
     psi = 0.373*[#   7]+0.373*[#   8]+0.086*[#   3]+0.086*[#   4]+0.047*[#   1]
          +0.029*[#   5]
    |psi|^2 = 0.994
==== e(   4) =    -5.59525 eV ==== 
     psi = 0.376*[#   7]+0.376*[#   8]+0.122*[#   3]+0.122*[#   4]
    |psi|^2 = 0.997
==== e(   5) =     1.62224 eV ==== 
     psi = 0.112*[#   1]+0.100*[#   5]+0.043*[#   3]+0.043*[#   4]
    |psi|^2 = 0.300
==== e(   6) =     2.72633 eV ==== 
     psi = 0.193*[#   2]+0.051*[#   6]
    |psi|^2 = 0.244
==== e(   7) =     3.18949 eV ==== 
     psi = 0.021*[#   1]+0.017*[#   5]+0.005*[#   3]+0.005*[#   4]
    |psi|^2 = 0.048
==== e(   8) =     4.94833 eV ==== 
     psi = 0.136*[#   2]+0.058*[#   6]
    |psi|^2 = 0.194
==== e(   9) =     5.73683 eV ==== 
     psi = 0.064*[#   1]+0.048*[#   5]+0.007*[#   3]+0.007*[#   4]+0.001*[#   7]
          +0.001*[#   8]
    |psi|^2 = 0.128
==== e(  10) =     7.85593 eV ==== 
     psi = 0.212*[#   2]+0.211*[#   6]
    |psi|^2 = 0.422

 k =   0.0166666667  0.1635825763  0.0000000000
==== e(   1) =   -20.91164 eV ==== 
     psi = 0.523*[#   5]+0.321*[#   1]+0.061*[#   3]+0.061*[#   4]+0.012*[#   7]
          +0.012*[#   8]
    |psi|^2 = 0.991
==== e(   2) =    -8.60513 eV ==== 
     psi = 0.568*[#   6]+0.402*[#   2]
    |psi|^2 = 0.969
==== e(   3) =    -6.51075 eV ==== 
     psi = 0.369*[#   7]+0.369*[#   8]+0.082*[#   3]+0.082*[#   4]+0.056*[#   1]
          +0.035*[#   5]
    |psi|^2 = 0.994
==== e(   4) =    -5.73292 eV ==== 
     psi = 0.372*[#   7]+0.372*[#   8]+0.126*[#   3]+0.126*[#   4]+0.001*[#   1]
          
    |psi|^2 = 0.997
==== e(   5) =     1.76486 eV ==== 
     psi = 0.102*[#   1]+0.101*[#   5]+0.049*[#   3]+0.049*[#   4]+0.001*[#   7]
          +0.001*[#   8]
    |psi|^2 = 0.303
==== e(   6) =     2.85801 eV ==== 
     psi = 0.194*[#   2]+0.052*[#   6]
    |psi|^2 = 0.246
==== e(   7) =     3.33349 eV ==== 
     psi = 0.020*[#   1]+0.017*[#   5]+0.005*[#   3]+0.005*[#   4]
    |psi|^2 = 0.048
==== e(   8) =     5.06298 eV ==== 
     psi = 0.142*[#   2]+0.063*[#   6]
    |psi|^2 = 0.206
==== e(   9) =     5.87452 eV ==== 
     psi = 0.064*[#   1]+0.048*[#   5]+0.008*[#   3]+0.008*[#   4]+0.001*[#   7]
          +0.001*[#   8]
    |psi|^2 = 0.131
==== e(  10) =     7.78048 eV ==== 
     psi = 0.224*[#   6]+0.219*[#   2]
    |psi|^2 = 0.443

 k =   0.0166666667  0.1828275852  0.0000000000
==== e(   1) =   -20.81583 eV ==== 
     psi = 0.517*[#   5]+0.302*[#   1]+0.071*[#   3]+0.071*[#   4]+0.015*[#   7]
          +0.015*[#   8]
    |psi|^2 = 0.990
==== e(   2) =    -8.47469 eV ==== 
     psi = 0.571*[#   6]+0.400*[#   2]
    |psi|^2 = 0.971
==== e(   3) =    -6.82765 eV ==== 
     psi = 0.365*[#   7]+0.365*[#   8]+0.079*[#   3]+0.079*[#   4]+0.065*[#   1]
          +0.040*[#   5]
    |psi|^2 = 0.994
==== e(   4) =    -5.87750 eV ==== 
     psi = 0.369*[#   7]+0.369*[#   8]+0.129*[#   3]+0.129*[#   4]+0.001*[#   1]
          
    |psi|^2 = 0.997
==== e(   5) =     1.92403 eV ==== 
     psi = 0.101*[#   5]+0.094*[#   1]+0.053*[#   3]+0.053*[#   4]+0.001*[#   7]
          +0.001*[#   8]
    |psi|^2 = 0.304
==== e(   6) =     3.00438 eV ==== 
     psi = 0.196*[#   2]+0.054*[#   6]
    |psi|^2 = 0.251
==== e(   7) =     3.49516 eV ==== 
     psi = 0.019*[#   1]+0.017*[#   5]+0.006*[#   3]+0.006*[#   4]
    |psi|^2 = 0.048
==== e(   8) =     5.18542 eV ==== 
     psi = 0.152*[#   2]+0.071*[#   6]
    |psi|^2 = 0.223
==== e(   9) =     6.02610 eV ==== 
     psi = 0.065*[#   1]+0.050*[#   5]+0.010*[#   3]+0.010*[#   4]+0.002*[#   7]
          +0.002*[#   8]
    |psi|^2 = 0.138
==== e(  10) =     7.67630 eV ==== 
     psi = 0.231*[#   6]+0.220*[#   2]
    |psi|^2 = 0.452

 k =   0.0166666667  0.2020725942  0.0000000000
==== e(   1) =   -20.71027 eV ==== 
     psi = 0.512*[#   5]+0.283*[#   1]+0.081*[#   3]+0.081*[#   4]+0.017*[#   7]
          +0.017*[#   8]
    |psi|^2 = 0.990
==== e(   2) =    -8.33092 eV ==== 
     psi = 0.575*[#   6]+0.398*[#   2]
    |psi|^2 = 0.973
==== e(   3) =    -7.16179 eV ==== 
     psi = 0.361*[#   7]+0.361*[#   8]+0.076*[#   3]+0.076*[#   4]+0.073*[#   1]
          +0.046*[#   5]
    |psi|^2 = 0.993
==== e(   4) =    -6.02742 eV ==== 
     psi = 0.366*[#   7]+0.366*[#   8]+0.132*[#   3]+0.132*[#   4]+0.001*[#   1]
          
    |psi|^2 = 0.997
==== e(   5) =     2.09948 eV ==== 
     psi = 0.101*[#   5]+0.088*[#   1]+0.057*[#   3]+0.057*[#   4]+0.002*[#   7]
          +0.002*[#   8]
    |psi|^2 = 0.306
==== e(   6) =     3.16400 eV ==== 
     psi = 0.201*[#   2]+0.058*[#   6]
    |psi|^2 = 0.259
==== e(   7) =     3.67439 eV ==== 
     psi = 0.018*[#   1]+0.017*[#   5]+0.006*[#   3]+0.006*[#   4]
    |psi|^2 = 0.048
==== e(   8) =     5.31008 eV ==== 
     psi = 0.165*[#   2]+0.083*[#   6]
    |psi|^2 = 0.249
==== e(   9) =     6.18984 eV ==== 
     psi = 0.068*[#   1]+0.052*[#   5]+0.012*[#   3]+0.012*[#   4]+0.002*[#   7]
          +0.002*[#   8]
    |psi|^2 = 0.149
==== e(  10) =     7.54655 eV ==== 
     psi = 0.229*[#   6]+0.212*[#   2]
    |psi|^2 = 0.441

 k =   0.0166666667  0.2213176032  0.0000000000
==== e(   1) =   -20.59511 eV ==== 
     psi = 0.508*[#   5]+0.264*[#   1]+0.090*[#   3]+0.090*[#   4]+0.019*[#   7]
          +0.019*[#   8]
    |psi|^2 = 0.990
==== e(   2) =    -8.17391 eV ==== 
     psi = 0.580*[#   6]+0.395*[#   2]
    |psi|^2 = 0.975
==== e(   3) =    -7.50939 eV ==== 
     psi = 0.357*[#   7]+0.357*[#   8]+0.081*[#   1]+0.073*[#   3]+0.073*[#   4]
          +0.051*[#   5]
    |psi|^2 = 0.993
==== e(   4) =    -6.17965 eV ==== 
     psi = 0.363*[#   7]+0.363*[#   8]+0.135*[#   3]+0.135*[#   4]+0.001*[#   1]
          
    |psi|^2 = 0.997
==== e(   5) =     2.29103 eV ==== 
     psi = 0.101*[#   5]+0.083*[#   1]+0.059*[#   3]+0.059*[#   4]+0.002*[#   7]
          +0.002*[#   8]
    |psi|^2 = 0.306
==== e(   6) =     3.33490 eV ==== 
     psi = 0.209*[#   2]+0.063*[#   6]
    |psi|^2 = 0.272
==== e(   7) =     3.87113 eV ==== 
     psi = 0.018*[#   1]+0.017*[#   5]+0.006*[#   3]+0.006*[#   4]
    |psi|^2 = 0.048
==== e(   8) =     5.42821 eV ==== 
     psi = 0.185*[#   2]+0.101*[#   6]
    |psi|^2 = 0.287
==== e(   9) =     6.36309 eV ==== 
     psi = 0.074*[#   1]+0.056*[#   5]+0.016*[#   3]+0.016*[#   4]+0.002*[#   7]
          +0.002*[#   8]
    |psi|^2 = 0.167
==== e(  10) =     7.40479 eV ==== 
     psi = 0.213*[#   6]+0.191*[#   2]
    |psi|^2 = 0.404

 k =   0.0166666667  0.2405626122  0.0000000000
==== e(   1) =   -20.47077 eV ==== 
     psi = 0.505*[#   5]+0.246*[#   1]+0.099*[#   3]+0.099*[#   4]+0.020*[#   7]
          +0.020*[#   8]
    |psi|^2 = 0.989
==== e(   2) =    -8.00410 eV ==== 
     psi = 0.586*[#   6]+0.392*[#   2]
    |psi|^2 = 0.978
==== e(   3) =    -7.86744 eV ==== 
     psi = 0.353*[#   7]+0.353*[#   8]+0.089*[#   1]+0.071*[#   3]+0.071*[#   4]
          +0.056*[#   5]
    |psi|^2 = 0.993
==== e(   4) =    -6.33265 eV ==== 
     psi = 0.360*[#   7]+0.360*[#   8]+0.138*[#   3]+0.138*[#   4]+0.001*[#   1]
          
    |psi|^2 = 0.997
==== e(   5) =     2.49849 eV ==== 
     psi = 0.101*[#   5]+0.080*[#   1]+0.061*[#   3]+0.061*[#   4]+0.002*[#   7]
          +0.002*[#   8]
    |psi|^2 = 0.307
==== e(   6) =     3.51355 eV ==== 
     psi = 0.224*[#   2]+0.071*[#   6]
    |psi|^2 = 0.295
==== e(   7) =     4.08526 eV ==== 
     psi = 0.018*[#   1]+0.016*[#   5]+0.006*[#   3]+0.006*[#   4]
    |psi|^2 = 0.048
==== e(   8) =     5.52506 eV ==== 
     psi = 0.212*[#   2]+0.127*[#   6]
    |psi|^2 = 0.339
==== e(   9) =     6.54144 eV ==== 
     psi = 0.084*[#   1]+0.063*[#   5]+0.022*[#   3]+0.022*[#   4]+0.003*[#   7]
          +0.003*[#   8]
    |psi|^2 = 0.198
==== e(  10) =     7.27350 eV ==== 
     psi = 0.182*[#   6]+0.155*[#   2]
    |psi|^2 = 0.337

 k =   0.0166666667  0.2598076211  0.0000000000
==== e(   1) =   -20.33780 eV ==== 
     psi = 0.502*[#   5]+0.229*[#   1]+0.107*[#   3]+0.107*[#   4]+0.022*[#   7]
          +0.022*[#   8]
    |psi|^2 = 0.989
==== e(   2) =    -8.23268 eV ==== 
     psi = 0.349*[#   7]+0.349*[#   8]+0.097*[#   1]+0.069*[#   3]+0.069*[#   4]
          +0.060*[#   5]
    |psi|^2 = 0.993
==== e(   3) =    -7.82205 eV ==== 
     psi = 0.593*[#   6]+0.387*[#   2]
    |psi|^2 = 0.980
==== e(   4) =    -6.48480 eV ==== 
     psi = 0.357*[#   7]+0.357*[#   8]+0.141*[#   3]+0.141*[#   4]+0.001*[#   1]
          
    |psi|^2 = 0.997
==== e(   5) =     2.72154 eV ==== 
     psi = 0.101*[#   5]+0.079*[#   1]+0.061*[#   3]+0.061*[#   4]+0.002*[#   7]
          +0.002*[#   8]
    |psi|^2 = 0.307
==== e(   6) =     3.69344 eV ==== 
     psi = 0.248*[#   2]+0.085*[#   6]
    |psi|^2 = 0.333
==== e(   7) =     4.31666 eV ==== 
     psi = 0.018*[#   1]+0.016*[#   5]+0.006*[#   3]+0.006*[#   4]
    |psi|^2 = 0.048
==== e(   8) =     5.58002 eV ==== 
     psi = 0.240*[#   2]+0.157*[#   6]
    |psi|^2 = 0.397
==== e(   9) =     6.71739 eV ==== 
     psi = 0.100*[#   1]+0.074*[#   5]+0.032*[#   3]+0.032*[#   4]+0.005*[#   7]
          +0.005*[#   8]
    |psi|^2 = 0.247
==== e(  10) =     7.18471 eV ==== 
     psi = 0.136*[#   6]+0.108*[#   2]
    |psi|^2 = 0.244

 k =   0.0166666667  0.2790526301  0.0000000000
==== e(   1) =   -20.19659 eV ==== 
     psi = 0.500*[#   5]+0.212*[#   1]+0.115*[#   3]+0.115*[#   4]+0.023*[#   7]
          +0.023*[#   8]
    |psi|^2 = 0.989
==== e(   2) =    -8.60219 eV ==== 
     psi = 0.346*[#   7]+0.346*[#   8]+0.104*[#   1]+0.067*[#   3]+0.067*[#   4]
          +0.064*[#   5]
    |psi|^2 = 0.993
==== e(   3) =    -7.62830 eV ==== 
     psi = 0.601*[#   6]+0.382*[#   2]
    |psi|^2 = 0.982
==== e(   4) =    -6.63447 eV ==== 
     psi = 0.355*[#   7]+0.355*[#   8]+0.143*[#   3]+0.143*[#   4]+0.001*[#   1]
          
    |psi|^2 = 0.997
==== e(   5) =     2.95991 eV ==== 
     psi = 0.100*[#   5]+0.080*[#   1]+0.061*[#   3]+0.061*[#   4]+0.003*[#   7]
          +0.003*[#   8]
    |psi|^2 = 0.307
==== e(   6) =     3.86208 eV ==== 
     psi = 0.290*[#   2]+0.109*[#   6]
    |psi|^2 = 0.399
==== e(   7) =     4.56516 eV ==== 
     psi = 0.018*[#   1]+0.016*[#   5]+0.006*[#   3]+0.006*[#   4]
    |psi|^2 = 0.049
==== e(   8) =     5.57816 eV ==== 
     psi = 0.250*[#   2]+0.178*[#   6]
    |psi|^2 = 0.427
==== e(   9) =     6.87913 eV ==== 
     psi = 0.123*[#   1]+0.091*[#   5]+0.048*[#   3]+0.048*[#   4]+0.007*[#   7]
          +0.007*[#   8]
    |psi|^2 = 0.325
==== e(  10) =     7.17154 eV ==== 
     psi = 0.087*[#   6]+0.061*[#   2]
    |psi|^2 = 0.148

 k =   0.0166666667  0.2982976391  0.0000000000
==== e(   1) =   -20.04774 eV ==== 
     psi = 0.499*[#   5]+0.196*[#   1]+0.122*[#   3]+0.122*[#   4]+0.025*[#   7]
          +0.025*[#   8]
    |psi|^2 = 0.989
==== e(   2) =    -8.97321 eV ==== 
     psi = 0.343*[#   7]+0.343*[#   8]+0.111*[#   1]+0.066*[#   5]+0.065*[#   3]
          +0.065*[#   4]
    |psi|^2 = 0.993
==== e(   3) =    -7.42353 eV ==== 
     psi = 0.610*[#   6]+0.375*[#   2]
    |psi|^2 = 0.985
==== e(   4) =    -6.77983 eV ==== 
     psi = 0.352*[#   7]+0.352*[#   8]+0.146*[#   3]+0.146*[#   4]+0.001*[#   1]
          
    |psi|^2 = 0.997
==== e(   5) =     3.21318 eV ==== 
     psi = 0.100*[#   5]+0.082*[#   1]+0.061*[#   3]+0.061*[#   4]+0.003*[#   7]
          +0.003*[#   8]
    |psi|^2 = 0.308
==== e(   6) =     3.99504 eV ==== 
     psi = 0.359*[#   2]+0.148*[#   6]
    |psi|^2 = 0.507
==== e(   7) =     4.83048 eV ==== 
     psi = 0.019*[#   1]+0.017*[#   5]+0.006*[#   3]+0.006*[#   4]
    |psi|^2 = 0.050
==== e(   8) =     5.53551 eV ==== 
     psi = 0.218*[#   2]+0.169*[#   6]
    |psi|^2 = 0.388
==== e(   9) =     7.01221 eV ==== 
     psi = 0.152*[#   1]+0.113*[#   5]+0.069*[#   3]+0.069*[#   4]+0.010*[#   7]
          +0.010*[#   8]
    |psi|^2 = 0.424
==== e(  10) =     7.24774 eV ==== 
     psi = 0.049*[#   6]+0.029*[#   2]
    |psi|^2 = 0.077

 k =   0.0166666667  0.3175426481  0.0000000000
==== e(   1) =   -19.89201 eV ==== 
     psi = 0.499*[#   5]+0.181*[#   1]+0.129*[#   3]+0.129*[#   4]+0.025*[#   7]
          +0.025*[#   8]
    |psi|^2 = 0.989
==== e(   2) =    -9.34286 eV ==== 
     psi = 0.340*[#   7]+0.340*[#   8]+0.119*[#   1]+0.068*[#   5]+0.063*[#   3]
          +0.063*[#   4]
    |psi|^2 = 0.993
==== e(   3) =    -7.20868 eV ==== 
     psi = 0.620*[#   6]+0.367*[#   2]
    |psi|^2 = 0.987
==== e(   4) =    -6.92001 eV ==== 
     psi = 0.350*[#   7]+0.350*[#   8]+0.148*[#   3]+0.148*[#   4]+0.001*[#   1]
          
    |psi|^2 = 0.997
==== e(   5) =     3.48079 eV ==== 
     psi = 0.099*[#   5]+0.086*[#   1]+0.060*[#   3]+0.060*[#   4]+0.003*[#   7]
          +0.003*[#   8]
    |psi|^2 = 0.310
==== e(   6) =     4.05072 eV ==== 
     psi = 0.453*[#   2]+0.205*[#   6]
    |psi|^2 = 0.658
==== e(   7) =     5.11220 eV ==== 
     psi = 0.021*[#   1]+0.017*[#   5]+0.006*[#   3]+0.006*[#   4]
    |psi|^2 = 0.052
==== e(   8) =     5.50985 eV ==== 
     psi = 0.147*[#   2]+0.126*[#   6]
    |psi|^2 = 0.273
==== e(   9) =     7.10771 eV ==== 
     psi = 0.177*[#   1]+0.134*[#   5]+0.091*[#   3]+0.091*[#   4]+0.014*[#   7]
          +0.014*[#   8]
    |psi|^2 = 0.521
==== e(  10) =     7.40180 eV ==== 
     psi = 0.026*[#   6]+0.013*[#   2]
    |psi|^2 = 0.038

 k =   0.0166666667  0.3367876570  0.0000000000
==== e(   1) =   -19.73030 eV ==== 
     psi = 0.500*[#   5]+0.166*[#   1]+0.136*[#   3]+0.136*[#   4]+0.026*[#   7]
          +0.026*[#   8]
    |psi|^2 = 0.988
==== e(   2) =    -9.70894 eV ==== 
     psi = 0.338*[#   7]+0.338*[#   8]+0.126*[#   1]+0.069*[#   5]+0.061*[#   3]
          +0.061*[#   4]
    |psi|^2 = 0.993
==== e(   3) =    -7.05375 eV ==== 
     psi = 0.348*[#   7]+0.348*[#   8]+0.150*[#   3]+0.150*[#   4]+0.001*[#   1]
          
    |psi|^2 = 0.997
==== e(   4) =    -6.98481 eV ==== 
     psi = 0.632*[#   6]+0.357*[#   2]
    |psi|^2 = 0.989
==== e(   5) =     3.76186 eV ==== 
     psi = 0.100*[#   5]+0.091*[#   1]+0.058*[#   3]+0.058*[#   4]+0.003*[#   7]
          +0.003*[#   8]
    |psi|^2 = 0.314
==== e(   6) =     3.98802 eV ==== 
     psi = 0.542*[#   2]+0.260*[#   6]
    |psi|^2 = 0.801
==== e(   7) =     5.40958 eV ==== 
     psi = 0.024*[#   1]+0.018*[#   5]+0.007*[#   3]+0.007*[#   4]
    |psi|^2 = 0.057
==== e(   8) =     5.56670 eV ==== 
     psi = 0.072*[#   6]+0.072*[#   2]
    |psi|^2 = 0.144
==== e(   9) =     7.17024 eV ==== 
     psi = 0.193*[#   1]+0.149*[#   5]+0.106*[#   3]+0.106*[#   4]+0.016*[#   7]
          +0.016*[#   8]
    |psi|^2 = 0.586
==== e(  10) =     7.61367 eV ==== 
     psi = 0.014*[#   6]+0.006*[#   2]
    |psi|^2 = 0.020

 k =   0.0166666667  0.3560326660  0.0000000000
==== e(   1) =   -19.56400 eV ==== 
     psi = 0.502*[#   5]+0.152*[#   1]+0.142*[#   3]+0.142*[#   4]+0.026*[#   7]
          +0.026*[#   8]
    |psi|^2 = 0.988
==== e(   2) =   -10.06910 eV ==== 
     psi = 0.336*[#   7]+0.336*[#   8]+0.133*[#   1]+0.069*[#   5]+0.060*[#   3]
          +0.060*[#   4]
    |psi|^2 = 0.993
==== e(   3) =    -7.18059 eV ==== 
     psi = 0.346*[#   7]+0.346*[#   8]+0.152*[#   3]+0.152*[#   4]+0.001*[#   1]
          
    |psi|^2 = 0.997
==== e(   4) =    -6.75338 eV ==== 
     psi = 0.645*[#   6]+0.346*[#   2]
    |psi|^2 = 0.991
==== e(   5) =     3.80782 eV ==== 
     psi = 0.596*[#   2]+0.289*[#   6]
    |psi|^2 = 0.886
==== e(   6) =     4.05513 eV ==== 
     psi = 0.100*[#   5]+0.100*[#   1]+0.057*[#   3]+0.057*[#   4]+0.004*[#   7]
          +0.004*[#   8]
    |psi|^2 = 0.321
==== e(   7) =     5.72126 eV ==== 
     psi = 0.028*[#   1]+0.020*[#   5]+0.007*[#   3]+0.007*[#   4]
    |psi|^2 = 0.065
==== e(   8) =     5.72474 eV ==== 
     psi = 0.036*[#   6]+0.029*[#   2]
    |psi|^2 = 0.065
==== e(   9) =     7.21359 eV ==== 
     psi = 0.198*[#   1]+0.156*[#   5]+0.113*[#   3]+0.113*[#   4]+0.017*[#   7]
          +0.017*[#   8]
    |psi|^2 = 0.614
==== e(  10) =     7.86738 eV ==== 
     psi = 0.008*[#   6]+0.004*[#   2]
    |psi|^2 = 0.012

 k =   0.0166666667  0.3752776750  0.0000000000
==== e(   1) =   -19.39422 eV ==== 
     psi = 0.505*[#   5]+0.147*[#   3]+0.147*[#   4]+0.138*[#   1]+0.025*[#   7]
          +0.025*[#   8]
    |psi|^2 = 0.988
==== e(   2) =   -10.42035 eV ==== 
     psi = 0.335*[#   7]+0.335*[#   8]+0.141*[#   1]+0.067*[#   5]+0.058*[#   3]
          +0.058*[#   4]
    |psi|^2 = 0.993
==== e(   3) =    -7.29926 eV ==== 
     psi = 0.344*[#   7]+0.344*[#   8]+0.154*[#   3]+0.154*[#   4]+0.001*[#   1]
          
    |psi|^2 = 0.997
==== e(   4) =    -6.51577 eV ==== 
     psi = 0.660*[#   6]+0.332*[#   2]
    |psi|^2 = 0.992
==== e(   5) =     3.54857 eV ==== 
     psi = 0.626*[#   2]+0.296*[#   6]
    |psi|^2 = 0.921
==== e(   6) =     4.35883 eV ==== 
     psi = 0.111*[#   1]+0.103*[#   5]+0.056*[#   3]+0.056*[#   4]+0.004*[#   7]
          +0.004*[#   8]
    |psi|^2 = 0.333
==== e(   7) =     5.96069 eV ==== 
     psi = 0.017*[#   6]+0.013*[#   2]
    |psi|^2 = 0.030
==== e(   8) =     6.04449 eV ==== 
     psi = 0.035*[#   1]+0.025*[#   5]+0.009*[#   3]+0.009*[#   4]
    |psi|^2 = 0.080
==== e(   9) =     7.25256 eV ==== 
     psi = 0.193*[#   1]+0.156*[#   5]+0.113*[#   3]+0.113*[#   4]+0.017*[#   7]
          +0.017*[#   8]
    |psi|^2 = 0.610
==== e(  10) =     8.15285 eV ==== 
     psi = 0.005*[#   6]+0.004*[#   2]
    |psi|^2 = 0.008

 k =   0.0166666667  0.3945226839  0.0000000000
==== e(   1) =   -19.22262 eV ==== 
     psi = 0.509*[#   5]+0.153*[#   3]+0.153*[#   4]+0.125*[#   1]+0.024*[#   7]
          +0.024*[#   8]
    |psi|^2 = 0.988
==== e(   2) =   -10.75960 eV ==== 
     psi = 0.334*[#   7]+0.334*[#   8]+0.148*[#   1]+0.065*[#   5]+0.056*[#   3]
          +0.056*[#   4]
    |psi|^2 = 0.993
==== e(   3) =    -7.40894 eV ==== 
     psi = 0.342*[#   7]+0.342*[#   8]+0.155*[#   3]+0.155*[#   4]+0.001*[#   1]
          
    |psi|^2 = 0.997
==== e(   4) =    -6.27417 eV ==== 
     psi = 0.676*[#   6]+0.317*[#   2]
    |psi|^2 = 0.993
==== e(   5) =     3.24577 eV ==== 
     psi = 0.645*[#   2]+0.289*[#   6]
    |psi|^2 = 0.934
==== e(   6) =     4.67019 eV ==== 
     psi = 0.125*[#   1]+0.107*[#   5]+0.056*[#   3]+0.056*[#   4]+0.004*[#   7]
          +0.004*[#   8]
    |psi|^2 = 0.352
==== e(   7) =     6.24857 eV ==== 
     psi = 0.009*[#   6]+0.007*[#   2]
    |psi|^2 = 0.016
==== e(   8) =     6.37304 eV ==== 
     psi = 0.048*[#   1]+0.034*[#   5]+0.013*[#   3]+0.013*[#   4]+0.001*[#   7]
          +0.001*[#   8]
    |psi|^2 = 0.111
==== e(   9) =     7.30323 eV ==== 
     psi = 0.175*[#   1]+0.147*[#   5]+0.108*[#   3]+0.108*[#   4]+0.016*[#   7]
          +0.016*[#   8]
    |psi|^2 = 0.570
==== e(  10) =     8.46371 eV ==== 
     psi = 0.004*[#   2]+0.003*[#   6]
    |psi|^2 = 0.007

 k =   0.0166666667  0.4137676929  0.0000000000
==== e(   1) =   -19.05138 eV ==== 
     psi = 0.514*[#   5]+0.158*[#   3]+0.158*[#   4]+0.112*[#   1]+0.023*[#   7]
          +0.023*[#   8]
    |psi|^2 = 0.988
==== e(   2) =   -11.08432 eV ==== 
     psi = 0.334*[#   7]+0.334*[#   8]+0.156*[#   1]+0.061*[#   5]+0.054*[#   3]
          +0.054*[#   4]
    |psi|^2 = 0.993
==== e(   3) =    -7.50916 eV ==== 
     psi = 0.341*[#   7]+0.341*[#   8]+0.157*[#   3]+0.157*[#   4]+0.001*[#   1]
          
    |psi|^2 = 0.997
==== e(   4) =    -6.03128 eV ==== 
     psi = 0.695*[#   6]+0.300*[#   2]
    |psi|^2 = 0.994
==== e(   5) =     2.92308 eV ==== 
     psi = 0.663*[#   2]+0.275*[#   6]
    |psi|^2 = 0.938
==== e(   6) =     4.98464 eV ==== 
     psi = 0.145*[#   1]+0.115*[#   5]+0.057*[#   3]+0.057*[#   4]+0.004*[#   7]
          +0.004*[#   8]
    |psi|^2 = 0.383
==== e(   7) =     6.57259 eV ==== 
     psi = 0.006*[#   2]+0.005*[#   6]
    |psi|^2 = 0.011
==== e(   8) =     6.69131 eV ==== 
     psi = 0.073*[#   1]+0.054*[#   5]+0.024*[#   3]+0.024*[#   4]+0.003*[#   7]
          +0.003*[#   8]
    |psi|^2 = 0.181
==== e(   9) =     7.38938 eV ==== 
     psi = 0.138*[#   1]+0.122*[#   5]+0.093*[#   3]+0.093*[#   4]+0.014*[#   7]
          +0.014*[#   8]
    |psi|^2 = 0.474
==== e(  10) =     8.79576 eV ==== 
     psi = 0.004*[#   2]+0.002*[#   6]
    |psi|^2 = 0.007

 k =   0.0166666667  0.4330127019  0.0000000000
==== e(   1) =   -18.88306 eV ==== 
     psi = 0.521*[#   5]+0.163*[#   3]+0.163*[#   4]+0.100*[#   1]+0.021*[#   7]
          +0.021*[#   8]
    |psi|^2 = 0.988
==== e(   2) =   -11.39109 eV ==== 
     psi = 0.335*[#   7]+0.335*[#   8]+0.164*[#   1]+0.056*[#   5]+0.051*[#   3]
          +0.051*[#   4]
    |psi|^2 = 0.992
==== e(   3) =    -7.59958 eV ==== 
     psi = 0.340*[#   7]+0.340*[#   8]+0.158*[#   3]+0.158*[#   4]+0.001*[#   1]
          
    |psi|^2 = 0.997
==== e(   4) =    -5.79052 eV ==== 
     psi = 0.715*[#   6]+0.280*[#   2]
    |psi|^2 = 0.995
==== e(   5) =     2.59599 eV ==== 
     psi = 0.682*[#   2]+0.257*[#   6]
    |psi|^2 = 0.940
==== e(   6) =     5.29487 eV ==== 
     psi = 0.173*[#   1]+0.127*[#   5]+0.060*[#   3]+0.060*[#   4]+0.005*[#   7]
          +0.005*[#   8]
    |psi|^2 = 0.429
==== e(   7) =     6.92406 eV ==== 
     psi = 0.005*[#   2]+0.003*[#   6]
    |psi|^2 = 0.009
==== e(   8) =     6.96567 eV ==== 
     psi = 0.112*[#   1]+0.089*[#   5]+0.047*[#   3]+0.047*[#   4]+0.005*[#   7]
          +0.005*[#   8]
    |psi|^2 = 0.305
==== e(   9) =     7.55398 eV ==== 
     psi = 0.080*[#   1]+0.077*[#   5]+0.063*[#   3]+0.063*[#   4]+0.010*[#   7]
          +0.010*[#   8]
    |psi|^2 = 0.303
==== e(  10) =     9.14579 eV ==== 
     psi = 0.005*[#   2]+0.002*[#   6]
    |psi|^2 = 0.007

 k =   0.0166666667  0.4522577109  0.0000000000
==== e(   1) =   -18.72069 eV ==== 
     psi = 0.528*[#   5]+0.168*[#   3]+0.168*[#   4]+0.088*[#   1]+0.018*[#   7]
          +0.018*[#   8]
    |psi|^2 = 0.989
==== e(   2) =   -11.67589 eV ==== 
     psi = 0.336*[#   7]+0.336*[#   8]+0.173*[#   1]+0.050*[#   5]+0.048*[#   3]
          +0.048*[#   4]
    |psi|^2 = 0.992
==== e(   3) =    -7.67958 eV ==== 
     psi = 0.339*[#   7]+0.339*[#   8]+0.159*[#   3]+0.159*[#   4]+0.001*[#   1]
          
    |psi|^2 = 0.997
==== e(   4) =    -5.55571 eV ==== 
     psi = 0.737*[#   6]+0.258*[#   2]
    |psi|^2 = 0.995
==== e(   5) =     2.27628 eV ==== 
     psi = 0.704*[#   2]+0.237*[#   6]
    |psi|^2 = 0.940
==== e(   6) =     5.58947 eV ==== 
     psi = 0.209*[#   1]+0.147*[#   5]+0.065*[#   3]+0.065*[#   4]+0.005*[#   7]
          +0.005*[#   8]
    |psi|^2 = 0.497
==== e(   7) =     7.17350 eV ==== 
     psi = 0.130*[#   1]+0.113*[#   5]+0.066*[#   3]+0.066*[#   4]+0.008*[#   7]
          +0.008*[#   8]
    |psi|^2 = 0.391
==== e(   8) =     7.29784 eV ==== 
     psi = 0.005*[#   2]+0.003*[#   6]
    |psi|^2 = 0.008
==== e(   9) =     7.83199 eV ==== 
     psi = 0.035*[#   5]+0.034*[#   3]+0.034*[#   4]+0.033*[#   1]+0.006*[#   7]
          +0.006*[#   8]
    |psi|^2 = 0.147
==== e(  10) =     9.51071 eV ==== 
     psi = 0.005*[#   2]+0.002*[#   6]
    |psi|^2 = 0.007

 k =   0.0166666667  0.4715027198  0.0000000000
==== e(   1) =   -18.56799 eV ==== 
     psi = 0.537*[#   5]+0.173*[#   3]+0.173*[#   4]+0.076*[#   1]+0.015*[#   7]
          +0.015*[#   8]
    |psi|^2 = 0.989
==== e(   2) =   -11.93462 eV ==== 
     psi = 0.339*[#   7]+0.339*[#   8]+0.181*[#   1]+0.046*[#   3]+0.046*[#   4]
          +0.043*[#   5]
    |psi|^2 = 0.992
==== e(   3) =    -7.74871 eV ==== 
     psi = 0.338*[#   7]+0.338*[#   8]+0.160*[#   3]+0.160*[#   4]+0.001*[#   1]
          
    |psi|^2 = 0.997
==== e(   4) =    -5.33208 eV ==== 
     psi = 0.760*[#   6]+0.235*[#   2]
    |psi|^2 = 0.995
==== e(   5) =     1.97387 eV ==== 
     psi = 0.727*[#   2]+0.214*[#   6]
    |psi|^2 = 0.941
==== e(   6) =     5.85212 eV ==== 
     psi = 0.253*[#   1]+0.174*[#   5]+0.074*[#   3]+0.074*[#   4]+0.006*[#   7]
          +0.006*[#   8]
    |psi|^2 = 0.587
==== e(   7) =     7.35763 eV ==== 
     psi = 0.111*[#   1]+0.105*[#   5]+0.069*[#   3]+0.069*[#   4]+0.009*[#   7]
          +0.009*[#   8]
    |psi|^2 = 0.371
==== e(   8) =     7.69045 eV ==== 
     psi = 0.006*[#   2]+0.002*[#   6]
    |psi|^2 = 0.008
==== e(   9) =     8.19662 eV ==== 
     psi = 0.019*[#   3]+0.019*[#   4]+0.015*[#   5]+0.014*[#   1]+0.004*[#   7]
          +0.004*[#   8]
    |psi|^2 = 0.075
==== e(  10) =     9.88652 eV ==== 
     psi = 0.006*[#   2]+0.003*[#   6]
    |psi|^2 = 0.008

 k =   0.0166666667  0.4907477288  0.0000000000
==== e(   1) =   -18.42934 eV ==== 
     psi = 0.546*[#   5]+0.178*[#   3]+0.178*[#   4]+0.066*[#   1]+0.011*[#   7]
          +0.011*[#   8]
    |psi|^2 = 0.989
==== e(   2) =   -12.16239 eV ==== 
     psi = 0.341*[#   7]+0.341*[#   8]+0.189*[#   1]+0.043*[#   3]+0.043*[#   4]
          +0.035*[#   5]
    |psi|^2 = 0.992
==== e(   3) =    -7.80693 eV ==== 
     psi = 0.337*[#   7]+0.337*[#   8]+0.161*[#   3]+0.161*[#   4]+0.001*[#   1]
          
    |psi|^2 = 0.997
==== e(   4) =    -5.12640 eV ==== 
     psi = 0.784*[#   6]+0.210*[#   2]
    |psi|^2 = 0.995
==== e(   5) =     1.69822 eV ==== 
     psi = 0.751*[#   2]+0.190*[#   6]
    |psi|^2 = 0.941
==== e(   6) =     6.06544 eV ==== 
     psi = 0.298*[#   1]+0.206*[#   5]+0.085*[#   3]+0.085*[#   4]+0.007*[#   7]
          +0.007*[#   8]
    |psi|^2 = 0.687
==== e(   7) =     7.57295 eV ==== 
     psi = 0.082*[#   5]+0.078*[#   1]+0.060*[#   3]+0.060*[#   4]+0.009*[#   7]
          +0.009*[#   8]
    |psi|^2 = 0.298
==== e(   8) =     8.09883 eV ==== 
     psi = 0.006*[#   2]+0.002*[#   6]
    |psi|^2 = 0.009
==== e(   9) =     8.60931 eV ==== 
     psi = 0.012*[#   3]+0.012*[#   4]+0.009*[#   1]+0.008*[#   5]+0.003*[#   7]
          +0.003*[#   8]
    |psi|^2 = 0.048
==== e(  10) =    10.26596 eV ==== 
     psi = 0.007*[#   2]+0.003*[#   6]
    |psi|^2 = 0.010

 k =   0.0166666667  0.5099927378  0.0000000000
==== e(   1) =   -18.30944 eV ==== 
     psi = 0.554*[#   5]+0.182*[#   3]+0.182*[#   4]+0.056*[#   1]+0.008*[#   7]
          +0.008*[#   8]
    |psi|^2 = 0.989
==== e(   2) =   -12.35375 eV ==== 
     psi = 0.344*[#   7]+0.344*[#   8]+0.196*[#   1]+0.040*[#   3]+0.040*[#   4]
          +0.028*[#   5]
    |psi|^2 = 0.992
==== e(   3) =    -7.85358 eV ==== 
     psi = 0.336*[#   7]+0.336*[#   8]+0.161*[#   3]+0.161*[#   4]+0.001*[#   1]
          
    |psi|^2 = 0.997
==== e(   4) =    -4.94593 eV ==== 
     psi = 0.808*[#   6]+0.186*[#   2]
    |psi|^2 = 0.994
==== e(   5) =     1.45970 eV ==== 
     psi = 0.775*[#   2]+0.167*[#   6]
    |psi|^2 = 0.942
==== e(   6) =     6.22045 eV ==== 
     psi = 0.333*[#   1]+0.233*[#   5]+0.095*[#   3]+0.095*[#   4]+0.007*[#   7]
          +0.007*[#   8]
    |psi|^2 = 0.772
==== e(   7) =     7.84447 eV ==== 
     psi = 0.057*[#   5]+0.051*[#   1]+0.050*[#   3]+0.050*[#   4]+0.009*[#   7]
          +0.009*[#   8]
    |psi|^2 = 0.225
==== e(   8) =     8.51938 eV ==== 
     psi = 0.007*[#   2]+0.003*[#   6]
    |psi|^2 = 0.010
==== e(   9) =     9.05116 eV ==== 
     psi = 0.009*[#   3]+0.009*[#   4]+0.009*[#   1]+0.005*[#   5]+0.003*[#   7]
          +0.003*[#   8]
    |psi|^2 = 0.038
==== e(  10) =    10.62979 eV ==== 
     psi = 0.009*[#   2]+0.004*[#   6]
    |psi|^2 = 0.013

 k =   0.0166666667  0.5292377468  0.0000000000
==== e(   1) =   -18.21350 eV ==== 
     psi = 0.562*[#   5]+0.185*[#   3]+0.185*[#   4]+0.048*[#   1]+0.004*[#   7]
          +0.004*[#   8]
    |psi|^2 = 0.989
==== e(   2) =   -12.50385 eV ==== 
     psi = 0.347*[#   7]+0.347*[#   8]+0.202*[#   1]+0.037*[#   3]+0.037*[#   4]
          +0.021*[#   5]
    |psi|^2 = 0.992
==== e(   3) =    -7.88897 eV ==== 
     psi = 0.336*[#   7]+0.336*[#   8]+0.162*[#   3]+0.162*[#   4]+0.001*[#   1]
          
    |psi|^2 = 0.996
==== e(   4) =    -4.79942 eV ==== 
     psi = 0.829*[#   6]+0.165*[#   2]
    |psi|^2 = 0.994
==== e(   5) =     1.26829 eV ==== 
     psi = 0.796*[#   2]+0.146*[#   6]
    |psi|^2 = 0.942
==== e(   6) =     6.32123 eV ==== 
     psi = 0.355*[#   1]+0.253*[#   5]+0.103*[#   3]+0.103*[#   4]+0.008*[#   7]
          +0.008*[#   8]
    |psi|^2 = 0.828
==== e(   7) =     8.17040 eV ==== 
     psi = 0.042*[#   3]+0.042*[#   4]+0.039*[#   5]+0.037*[#   1]+0.009*[#   7]
          +0.009*[#   8]
    |psi|^2 = 0.178
==== e(   8) =     8.94602 eV ==== 
     psi = 0.008*[#   2]+0.003*[#   6]
    |psi|^2 = 0.011
==== e(   9) =     9.50982 eV ==== 
     psi = 0.011*[#   1]+0.008*[#   3]+0.008*[#   4]+0.004*[#   5]+0.003*[#   7]
          +0.003*[#   8]
    |psi|^2 = 0.038
==== e(  10) =    10.46398 eV ==== 
     psi = 0.036*[#   1]+0.013*[#   3]+0.013*[#   4]+0.009*[#   5]+0.008*[#   7]
          +0.008*[#   8]
    |psi|^2 = 0.087

 k =   0.0166666667  0.5484827557  0.0000000000
==== e(   1) =   -18.14629 eV ==== 
     psi = 0.568*[#   5]+0.188*[#   3]+0.188*[#   4]+0.043*[#   1]+0.002*[#   7]
          +0.002*[#   8]
    |psi|^2 = 0.990
==== e(   2) =   -12.60730 eV ==== 
     psi = 0.349*[#   7]+0.349*[#   8]+0.207*[#   1]+0.035*[#   3]+0.035*[#   4]
          +0.015*[#   5]
    |psi|^2 = 0.991
==== e(   3) =    -7.91268 eV ==== 
     psi = 0.336*[#   7]+0.336*[#   8]+0.162*[#   3]+0.162*[#   4]+0.001*[#   1]
          
    |psi|^2 = 0.996
==== e(   4) =    -4.69539 eV ==== 
     psi = 0.846*[#   6]+0.148*[#   2]
    |psi|^2 = 0.994
==== e(   5) =     1.13382 eV ==== 
     psi = 0.813*[#   2]+0.130*[#   6]
    |psi|^2 = 0.943
==== e(   6) =     6.37967 eV ==== 
     psi = 0.366*[#   1]+0.264*[#   5]+0.107*[#   3]+0.107*[#   4]+0.008*[#   7]
          +0.008*[#   8]
    |psi|^2 = 0.859
==== e(   7) =     8.53079 eV ==== 
     psi = 0.040*[#   3]+0.040*[#   4]+0.036*[#   1]+0.028*[#   5]+0.010*[#   7]
          +0.010*[#   8]
[...]
     psi = 0.584*[#   5]+0.196*[#   3]+0.196*[#   4]+0.010*[#   1]+0.003*[#   7]
          +0.003*[#   8]
    |psi|^2 = 0.993
==== e(   2) =   -11.93659 eV ==== 
     psi = 0.311*[#   7]+0.311*[#   8]+0.144*[#   3]+0.144*[#   4]+0.068*[#   1]
          +0.008*[#   5]
    |psi|^2 = 0.988
==== e(   3) =   -10.39782 eV ==== 
     psi = 0.340*[#   7]+0.340*[#   8]+0.206*[#   1]+0.054*[#   3]+0.054*[#   4]
          +0.002*[#   5]
    |psi|^2 = 0.994
==== e(   4) =    -3.91491 eV ==== 
     psi = 0.946*[#   6]+0.047*[#   2]
    |psi|^2 = 0.993
==== e(   5) =     1.11858 eV ==== 
     psi = 0.944*[#   2]+0.045*[#   6]
    |psi|^2 = 0.989
==== e(   6) =     8.80329 eV ==== 
     psi = 0.003*[#   2]+0.001*[#   6]
    |psi|^2 = 0.004
==== e(   7) =     9.12232 eV ==== 
     psi = 0.276*[#   1]+0.044*[#   7]+0.044*[#   8]+0.021*[#   5]+0.018*[#   3]
          +0.018*[#   4]
    |psi|^2 = 0.419
==== e(   8) =    10.51679 eV ==== 
     psi = 0.164*[#   1]+0.068*[#   3]+0.068*[#   4]+0.048*[#   7]+0.048*[#   8]
          +0.020*[#   5]
    |psi|^2 = 0.414
==== e(   9) =    11.35284 eV ==== 
     psi = 0.021*[#   3]+0.021*[#   4]+0.012*[#   5]+0.006*[#   1]+0.006*[#   7]
          +0.006*[#   8]
    |psi|^2 = 0.072
==== e(  10) =    11.42113 eV ==== 

    |psi|^2 = 0.000

 k =   0.2666666667  0.5581052602  0.0000000000
==== e(   1) =   -17.58656 eV ==== 
     psi = 0.588*[#   5]+0.198*[#   3]+0.198*[#   4]+0.007*[#   1]+0.002*[#   7]
          +0.002*[#   8]
    |psi|^2 = 0.993
==== e(   2) =   -11.96954 eV ==== 
     psi = 0.312*[#   7]+0.312*[#   8]+0.146*[#   3]+0.146*[#   4]+0.068*[#   1]
          +0.004*[#   5]
    |psi|^2 = 0.988
==== e(   3) =   -10.44009 eV ==== 
     psi = 0.340*[#   7]+0.340*[#   8]+0.208*[#   1]+0.052*[#   3]+0.052*[#   4]
          +0.002*[#   5]
    |psi|^2 = 0.995
==== e(   4) =    -3.85316 eV ==== 
     psi = 0.959*[#   6]+0.033*[#   2]
    |psi|^2 = 0.993
==== e(   5) =     1.05868 eV ==== 
     psi = 0.958*[#   2]+0.032*[#   6]
    |psi|^2 = 0.989
==== e(   6) =     8.79604 eV ==== 
     psi = 0.003*[#   2]+0.001*[#   6]
    |psi|^2 = 0.005
==== e(   7) =     9.38199 eV ==== 
     psi = 0.355*[#   1]+0.057*[#   7]+0.057*[#   8]+0.018*[#   5]+0.011*[#   3]
          +0.011*[#   4]
    |psi|^2 = 0.510
==== e(   8) =    10.46282 eV ==== 
     psi = 0.078*[#   3]+0.078*[#   4]+0.062*[#   1]+0.029*[#   7]+0.029*[#   8]
          +0.023*[#   5]
    |psi|^2 = 0.298
==== e(   9) =    11.63306 eV ==== 
     psi = 0.042*[#   1]+0.024*[#   3]+0.024*[#   4]+0.021*[#   5]+0.014*[#   7]
          +0.014*[#   8]
    |psi|^2 = 0.139
==== e(  10) =    11.78881 eV ==== 

    |psi|^2 = 0.000

 k =   0.2666666667  0.5773502692  0.0000000000
==== e(   1) =   -17.57383 eV ==== 
     psi = 0.589*[#   5]+0.198*[#   3]+0.198*[#   4]+0.006*[#   1]+0.001*[#   7]
          +0.001*[#   8]
    |psi|^2 = 0.993
==== e(   2) =   -11.98078 eV ==== 
     psi = 0.312*[#   7]+0.312*[#   8]+0.146*[#   3]+0.146*[#   4]+0.069*[#   1]
          +0.003*[#   5]
    |psi|^2 = 0.987
==== e(   3) =   -10.45406 eV ==== 
     psi = 0.340*[#   7]+0.340*[#   8]+0.209*[#   1]+0.051*[#   3]+0.051*[#   4]
          +0.003*[#   5]
    |psi|^2 = 0.995
==== e(   4) =    -3.83240 eV ==== 
     psi = 0.964*[#   6]+0.029*[#   2]
    |psi|^2 = 0.993
==== e(   5) =     1.03826 eV ==== 
     psi = 0.962*[#   2]+0.027*[#   6]
    |psi|^2 = 0.989
==== e(   6) =     8.79259 eV ==== 
     psi = 0.003*[#   2]+0.001*[#   6]
    |psi|^2 = 0.005
==== e(   7) =     9.48805 eV ==== 
     psi = 0.406*[#   1]+0.066*[#   7]+0.066*[#   8]+0.016*[#   5]+0.007*[#   3]
          +0.007*[#   4]
    |psi|^2 = 0.568
==== e(   8) =    10.42880 eV ==== 
     psi = 0.083*[#   3]+0.083*[#   4]+0.025*[#   5]+0.017*[#   7]+0.017*[#   8]
          
    |psi|^2 = 0.225
==== e(   9) =    11.66977 eV ==== 
     psi = 0.060*[#   1]+0.024*[#   5]+0.023*[#   3]+0.023*[#   4]+0.019*[#   7]
          +0.019*[#   8]
    |psi|^2 = 0.167
==== e(  10) =    12.00087 eV ==== 

    |psi|^2 = 0.000

 k =   0.2833333333  0.4907477288  0.0000000000
==== e(   1) =   -17.76504 eV ==== 
     psi = 0.572*[#   5]+0.192*[#   3]+0.192*[#   4]+0.021*[#   1]+0.007*[#   7]
          +0.007*[#   8]
    |psi|^2 = 0.992
==== e(   2) =   -11.79018 eV ==== 
     psi = 0.310*[#   7]+0.310*[#   8]+0.142*[#   3]+0.142*[#   4]+0.064*[#   1]
          +0.022*[#   5]
    |psi|^2 = 0.989
==== e(   3) =   -10.26265 eV ==== 
     psi = 0.338*[#   7]+0.338*[#   8]+0.200*[#   1]+0.059*[#   3]+0.059*[#   4]
          
    |psi|^2 = 0.994
==== e(   4) =    -4.14171 eV ==== 
     psi = 0.902*[#   6]+0.091*[#   2]
    |psi|^2 = 0.994
==== e(   5) =     1.34708 eV ==== 
     psi = 0.899*[#   2]+0.089*[#   6]
    |psi|^2 = 0.988
==== e(   6) =     8.42124 eV ==== 
     psi = 0.176*[#   1]+0.028*[#   5]+0.026*[#   7]+0.026*[#   8]+0.026*[#   3]
          +0.026*[#   4]
    |psi|^2 = 0.307
==== e(   7) =     8.76322 eV ==== 
     psi = 0.002*[#   2]
    |psi|^2 = 0.002
==== e(   8) =    10.32887 eV ==== 
     psi = 0.113*[#   1]+0.022*[#   7]+0.022*[#   8]+0.003*[#   3]+0.003*[#   4]
          +0.001*[#   5]
    |psi|^2 = 0.163
==== e(   9) =    10.72123 eV ==== 

    |psi|^2 = 0.000
==== e(  10) =    10.77273 eV ==== 
     psi = 0.176*[#   1]+0.076*[#   3]+0.076*[#   4]+0.058*[#   7]+0.058*[#   8]
          +0.014*[#   5]
    |psi|^2 = 0.458

 k =   0.2833333333  0.5099927378  0.0000000000
==== e(   1) =   -17.67914 eV ==== 
     psi = 0.579*[#   5]+0.195*[#   3]+0.195*[#   4]+0.015*[#   1]+0.005*[#   7]
          +0.005*[#   8]
    |psi|^2 = 0.993
==== e(   2) =   -11.84099 eV ==== 
     psi = 0.309*[#   7]+0.309*[#   8]+0.149*[#   3]+0.149*[#   4]+0.058*[#   1]
          +0.015*[#   5]
    |psi|^2 = 0.988
==== e(   3) =   -10.39382 eV ==== 
     psi = 0.341*[#   7]+0.341*[#   8]+0.213*[#   1]+0.050*[#   3]+0.050*[#   4]
          
    |psi|^2 = 0.994
==== e(   4) =    -4.00511 eV ==== 
     psi = 0.927*[#   6]+0.066*[#   2]
    |psi|^2 = 0.993
==== e(   5) =     1.22260 eV ==== 
     psi = 0.925*[#   2]+0.064*[#   6]
    |psi|^2 = 0.990
==== e(   6) =     8.76653 eV ==== 
     psi = 0.002*[#   2]
    |psi|^2 = 0.002
==== e(   7) =     8.78895 eV ==== 
     psi = 0.210*[#   1]+0.032*[#   7]+0.032*[#   8]+0.023*[#   5]+0.022*[#   3]
          +0.022*[#   4]
    |psi|^2 = 0.341
==== e(   8) =    10.59507 eV ==== 
     psi = 0.226*[#   1]+0.054*[#   7]+0.054*[#   8]+0.034*[#   3]+0.034*[#   4]
          +0.002*[#   5]
    |psi|^2 = 0.403
==== e(   9) =    10.97908 eV ==== 
     psi = 0.045*[#   3]+0.045*[#   4]+0.027*[#   1]+0.018*[#   7]+0.018*[#   8]
          +0.013*[#   5]
    |psi|^2 = 0.166
==== e(  10) =    11.03943 eV ==== 

    |psi|^2 = 0.000

 k =   0.2833333333  0.5292377468  0.0000000000
==== e(   1) =   -17.61172 eV ==== 
     psi = 0.585*[#   5]+0.196*[#   3]+0.196*[#   4]+0.009*[#   1]+0.003*[#   7]
          +0.003*[#   8]
    |psi|^2 = 0.993
==== e(   2) =   -11.87979 eV ==== 
     psi = 0.307*[#   7]+0.307*[#   8]+0.156*[#   3]+0.156*[#   4]+0.052*[#   1]
          +0.009*[#   5]
    |psi|^2 = 0.988
==== e(   3) =   -10.49486 eV ==== 
     psi = 0.343*[#   7]+0.343*[#   8]+0.223*[#   1]+0.043*[#   3]+0.043*[#   4]
          
    |psi|^2 = 0.995
==== e(   4) =    -3.89600 eV ==== 
     psi = 0.949*[#   6]+0.044*[#   2]
    |psi|^2 = 0.993
==== e(   5) =     1.12336 eV ==== 
     psi = 0.948*[#   2]+0.043*[#   6]
    |psi|^2 = 0.991
==== e(   6) =     8.74676 eV ==== 
     psi = 0.002*[#   2]
    |psi|^2 = 0.002
==== e(   7) =     9.13278 eV ==== 
     psi = 0.260*[#   1]+0.042*[#   7]+0.042*[#   8]+0.018*[#   5]+0.017*[#   3]
          +0.017*[#   4]
    |psi|^2 = 0.395
==== e(   8) =    10.65669 eV ==== 
     psi = 0.196*[#   1]+0.059*[#   3]+0.059*[#   4]+0.055*[#   7]+0.055*[#   8]
          +0.008*[#   5]
    |psi|^2 = 0.433
==== e(   9) =    11.35887 eV ==== 
     psi = 0.024*[#   3]+0.024*[#   4]+0.010*[#   5]+0.006*[#   7]+0.006*[#   8]
          
    |psi|^2 = 0.070
==== e(  10) =    11.40552 eV ==== 

    |psi|^2 = 0.000

 k =   0.2833333333  0.5484827557  0.0000000000
==== e(   1) =   -17.56534 eV ==== 
     psi = 0.589*[#   5]+0.198*[#   3]+0.198*[#   4]+0.006*[#   1]+0.002*[#   7]
          +0.002*[#   8]
    |psi|^2 = 0.994
==== e(   2) =   -11.90618 eV ==== 
     psi = 0.307*[#   7]+0.307*[#   8]+0.161*[#   3]+0.161*[#   4]+0.048*[#   1]
          +0.005*[#   5]
    |psi|^2 = 0.987
==== e(   3) =   -10.56368 eV ==== 
     psi = 0.344*[#   7]+0.344*[#   8]+0.231*[#   1]+0.037*[#   3]+0.037*[#   4]
          +0.001*[#   5]
    |psi|^2 = 0.995
==== e(   4) =    -3.81996 eV ==== 
     psi = 0.965*[#   6]+0.028*[#   2]
    |psi|^2 = 0.993
==== e(   5) =     1.05394 eV ==== 
     psi = 0.965*[#   2]+0.027*[#   6]
    |psi|^2 = 0.991
==== e(   6) =     8.72396 eV ==== 
     psi = 0.002*[#   2]
    |psi|^2 = 0.002
==== e(   7) =     9.42223 eV ==== 
     psi = 0.331*[#   1]+0.054*[#   7]+0.054*[#   8]+0.013*[#   5]+0.011*[#   3]
          +0.011*[#   4]
    |psi|^2 = 0.474
==== e(   8) =    10.64682 eV ==== 
     psi = 0.106*[#   1]+0.071*[#   3]+0.071*[#   4]+0.039*[#   7]+0.039*[#   8]
          +0.013*[#   5]
    |psi|^2 = 0.339
==== e(   9) =    11.71227 eV ==== 
     psi = 0.023*[#   3]+0.023*[#   4]+0.022*[#   1]+0.012*[#   5]+0.011*[#   7]
          +0.011*[#   8]
    |psi|^2 = 0.102
==== e(  10) =    11.79285 eV ==== 

    |psi|^2 = 0.000

 k =   0.2833333333  0.5677277647  0.0000000000
==== e(   1) =   -17.54164 eV ==== 
     psi = 0.591*[#   5]+0.198*[#   3]+0.198*[#   4]+0.004*[#   1]
    |psi|^2 = 0.994
==== e(   2) =   -11.91967 eV ==== 
     psi = 0.306*[#   7]+0.306*[#   8]+0.163*[#   3]+0.163*[#   4]+0.046*[#   1]
          +0.002*[#   5]
    |psi|^2 = 0.987
==== e(   3) =   -10.59846 eV ==== 
     psi = 0.345*[#   7]+0.345*[#   8]+0.235*[#   1]+0.034*[#   3]+0.034*[#   4]
          +0.001*[#   5]
    |psi|^2 = 0.995
==== e(   4) =    -3.78082 eV ==== 
     psi = 0.974*[#   6]+0.019*[#   2]
    |psi|^2 = 0.993
==== e(   5) =     1.01819 eV ==== 
     psi = 0.974*[#   2]+0.018*[#   6]
    |psi|^2 = 0.992
==== e(   6) =     8.70992 eV ==== 
     psi = 0.002*[#   2]
    |psi|^2 = 0.003
==== e(   7) =     9.60103 eV ==== 
     psi = 0.403*[#   1]+0.067*[#   7]+0.067*[#   8]+0.009*[#   5]+0.005*[#   3]
          +0.005*[#   4]
    |psi|^2 = 0.555
==== e(   8) =    10.62137 eV ==== 
     psi = 0.080*[#   3]+0.080*[#   4]+0.022*[#   7]+0.022*[#   8]+0.017*[#   5]
          +0.017*[#   1]
    |psi|^2 = 0.237
==== e(   9) =    11.79510 eV ==== 
     psi = 0.049*[#   1]+0.020*[#   3]+0.020*[#   4]+0.017*[#   7]+0.017*[#   8]
          +0.012*[#   5]
    |psi|^2 = 0.134
==== e(  10) =    12.13291 eV ==== 

    |psi|^2 = 0.000

 k =   0.3000000000  0.5196152423  0.0000000000
==== e(   1) =   -17.60746 eV ==== 
     psi = 0.585*[#   5]+0.197*[#   3]+0.197*[#   4]+0.009*[#   1]+0.003*[#   7]
          +0.003*[#   8]
    |psi|^2 = 0.993
==== e(   2) =   -11.85846 eV ==== 
     psi = 0.306*[#   7]+0.306*[#   8]+0.160*[#   3]+0.160*[#   4]+0.045*[#   1]
          +0.010*[#   5]
    |psi|^2 = 0.987
==== e(   3) =   -10.52945 eV ==== 
     psi = 0.344*[#   7]+0.344*[#   8]+0.230*[#   1]+0.038*[#   3]+0.038*[#   4]
          
    |psi|^2 = 0.995
==== e(   4) =    -3.88952 eV ==== 
     psi = 0.950*[#   6]+0.043*[#   2]
    |psi|^2 = 0.993
==== e(   5) =     1.12524 eV ==== 
     psi = 0.949*[#   2]+0.042*[#   6]
    |psi|^2 = 0.991
==== e(   6) =     8.72751 eV ==== 
     psi = 0.001*[#   2]
    |psi|^2 = 0.002
==== e(   7) =     9.13538 eV ==== 
     psi = 0.255*[#   1]+0.041*[#   7]+0.041*[#   8]+0.017*[#   3]+0.017*[#   4]
          +0.017*[#   5]
    |psi|^2 = 0.387
==== e(   8) =    10.70652 eV ==== 
     psi = 0.208*[#   1]+0.057*[#   7]+0.057*[#   8]+0.056*[#   3]+0.056*[#   4]
          +0.004*[#   5]
    |psi|^2 = 0.437
==== e(   9) =    11.36144 eV ==== 
     psi = 0.025*[#   3]+0.025*[#   4]+0.009*[#   5]+0.006*[#   7]+0.006*[#   8]
          
    |psi|^2 = 0.072
==== e(  10) =    11.39980 eV ==== 

    |psi|^2 = 0.000

 k =   0.3000000000  0.5388602512  0.0000000000
==== e(   1) =   -17.55461 eV ==== 
     psi = 0.589*[#   5]+0.198*[#   3]+0.198*[#   4]+0.005*[#   1]+0.002*[#   7]
          +0.002*[#   8]
    |psi|^2 = 0.994
==== e(   2) =   -11.86829 eV ==== 
     psi = 0.303*[#   7]+0.303*[#   8]+0.170*[#   3]+0.170*[#   4]+0.034*[#   1]
          +0.005*[#   5]
    |psi|^2 = 0.987
==== e(   3) =   -10.63161 eV ==== 
     psi = 0.347*[#   7]+0.347*[#   8]+0.245*[#   1]+0.027*[#   3]+0.027*[#   4]
          
    |psi|^2 = 0.995
==== e(   4) =    -3.80308 eV ==== 
     psi = 0.968*[#   6]+0.025*[#   2]
    |psi|^2 = 0.993
==== e(   5) =     1.05203 eV ==== 
     psi = 0.968*[#   2]+0.024*[#   6]
    |psi|^2 = 0.993
==== e(   6) =     8.68660 eV ==== 
     psi = 0.001*[#   2]
    |psi|^2 = 0.001
==== e(   7) =     9.43772 eV ==== 
     psi = 0.318*[#   1]+0.053*[#   7]+0.053*[#   8]+0.011*[#   3]+0.011*[#   4]
          +0.011*[#   5]
    |psi|^2 = 0.457
==== e(   8) =    10.75567 eV ==== 
     psi = 0.135*[#   1]+0.067*[#   3]+0.067*[#   4]+0.045*[#   7]+0.045*[#   8]
          +0.006*[#   5]
    |psi|^2 = 0.364
==== e(   9) =    11.74219 eV ==== 
     psi = 0.023*[#   3]+0.023*[#   4]+0.012*[#   1]+0.009*[#   7]+0.009*[#   8]
          +0.008*[#   5]
    |psi|^2 = 0.084
==== e(  10) =    11.79040 eV ==== 

    |psi|^2 = 0.000

 k =   0.3000000000  0.5581052602  0.0000000000
==== e(   1) =   -17.52202 eV ==== 
     psi = 0.592*[#   5]+0.199*[#   3]+0.199*[#   4]+0.003*[#   1]
    |psi|^2 = 0.994
==== e(   2) =   -11.87262 eV ==== 
     psi = 0.301*[#   7]+0.301*[#   8]+0.177*[#   3]+0.177*[#   4]+0.026*[#   1]
          +0.002*[#   5]
    |psi|^2 = 0.986
==== e(   3) =   -10.69527 eV ==== 
     psi = 0.350*[#   7]+0.350*[#   8]+0.256*[#   1]+0.020*[#   3]+0.020*[#   4]
          
    |psi|^2 = 0.996
==== e(   4) =    -3.74920 eV ==== 
     psi = 0.980*[#   6]+0.013*[#   2]
    |psi|^2 = 0.993
==== e(   5) =     1.00656 eV ==== 
     psi = 0.981*[#   2]+0.012*[#   6]
    |psi|^2 = 0.993
==== e(   6) =     8.65740 eV ==== 

    |psi|^2 = 0.001
==== e(   7) =     9.65564 eV ==== 
     psi = 0.391*[#   1]+0.066*[#   7]+0.066*[#   8]+0.006*[#   5]+0.005*[#   3]
          +0.005*[#   4]
    |psi|^2 = 0.539
==== e(   8) =    10.78338 eV ==== 
     psi = 0.076*[#   3]+0.076*[#   4]+0.047*[#   1]+0.030*[#   7]+0.030*[#   8]
          +0.008*[#   5]
    |psi|^2 = 0.267
==== e(   9) =    11.85454 eV ==== 
     psi = 0.028*[#   1]+0.019*[#   3]+0.019*[#   4]+0.012*[#   7]+0.012*[#   8]
          +0.004*[#   5]
    |psi|^2 = 0.094
==== e(  10) =    12.17734 eV ==== 

    |psi|^2 = 0.000

 k =   0.3000000000  0.5773502692  0.0000000000
==== e(   1) =   -17.51112 eV ==== 
     psi = 0.593*[#   5]+0.199*[#   3]+0.199*[#   4]+0.002*[#   1]
    |psi|^2 = 0.994
==== e(   2) =   -11.87398 eV ==== 
     psi = 0.301*[#   7]+0.301*[#   8]+0.180*[#   3]+0.180*[#   4]+0.023*[#   1]
          +0.001*[#   5]
    |psi|^2 = 0.986
==== e(   3) =   -10.71706 eV ==== 
     psi = 0.350*[#   7]+0.350*[#   8]+0.260*[#   1]+0.017*[#   3]+0.017*[#   4]
          
    |psi|^2 = 0.996
==== e(   4) =    -3.73117 eV ==== 
     psi = 0.984*[#   6]+0.009*[#   2]
    |psi|^2 = 0.992
==== e(   5) =     0.99110 eV ==== 
     psi = 0.985*[#   2]+0.008*[#   6]
    |psi|^2 = 0.993
==== e(   6) =     8.64695 eV ==== 

    |psi|^2 = 0.001
==== e(   7) =     9.73691 eV ==== 
     psi = 0.428*[#   1]+0.073*[#   7]+0.073*[#   8]+0.004*[#   5]+0.002*[#   3]
          +0.002*[#   4]
    |psi|^2 = 0.581
==== e(   8) =    10.79387 eV ==== 
     psi = 0.081*[#   3]+0.081*[#   4]+0.022*[#   7]+0.022*[#   8]+0.010*[#   5]
          +0.002*[#   1]
    |psi|^2 = 0.217
==== e(   9) =    11.82931 eV ==== 
     psi = 0.032*[#   1]+0.015*[#   3]+0.015*[#   4]+0.012*[#   7]+0.012*[#   8]
          +0.002*[#   5]
    |psi|^2 = 0.087
==== e(  10) =    12.40638 eV ==== 

    |psi|^2 = 0.000

 k =   0.3166666667  0.5484827557  0.0000000000
==== e(   1) =   -17.51552 eV ==== 
     psi = 0.592*[#   5]+0.199*[#   3]+0.199*[#   4]+0.002*[#   1]
    |psi|^2 = 0.994
==== e(   2) =   -11.85467 eV ==== 
     psi = 0.299*[#   7]+0.299*[#   8]+0.183*[#   3]+0.183*[#   4]+0.018*[#   1]
          +0.002*[#   5]
    |psi|^2 = 0.986
==== e(   3) =   -10.73011 eV ==== 
     psi = 0.351*[#   7]+0.351*[#   8]+0.265*[#   1]+0.014*[#   3]+0.014*[#   4]
          
    |psi|^2 = 0.996
==== e(   4) =    -3.73867 eV ==== 
     psi = 0.982*[#   6]+0.011*[#   2]
    |psi|^2 = 0.992
==== e(   5) =     1.00279 eV ==== 
     psi = 0.983*[#   2]+0.010*[#   6]
    |psi|^2 = 0.994
==== e(   6) =     8.63942 eV ==== 

    |psi|^2 = 0.001
==== e(   7) =     9.67127 eV ==== 
     psi = 0.386*[#   1]+0.066*[#   7]+0.066*[#   8]+0.005*[#   3]+0.005*[#   4]
          +0.005*[#   5]
    |psi|^2 = 0.532
==== e(   8) =    10.84842 eV ==== 
     psi = 0.075*[#   3]+0.075*[#   4]+0.063*[#   1]+0.033*[#   7]+0.033*[#   8]
          +0.004*[#   5]
    |psi|^2 = 0.284
==== e(   9) =    11.86945 eV ==== 
     psi = 0.019*[#   3]+0.019*[#   4]+0.016*[#   1]+0.009*[#   7]+0.009*[#   8]
          +0.002*[#   5]
    |psi|^2 = 0.075
==== e(  10) =    12.18681 eV ==== 

    |psi|^2 = 0.000

 k =   0.3166666667  0.5677277647  0.0000000000
==== e(   1) =   -17.49571 eV ==== 
     psi = 0.594*[#   5]+0.199*[#   3]+0.199*[#   4]
    |psi|^2 = 0.994
==== e(   2) =   -11.84574 eV ==== 
     psi = 0.297*[#   7]+0.297*[#   8]+0.191*[#   3]+0.191*[#   4]+0.008*[#   1]
          
    |psi|^2 = 0.985
==== e(   3) =   -10.78219 eV ==== 
     psi = 0.354*[#   7]+0.354*[#   8]+0.277*[#   1]+0.006*[#   3]+0.006*[#   4]
          
    |psi|^2 = 0.996
==== e(   4) =    -3.70625 eV ==== 
     psi = 0.989*[#   6]+0.003*[#   2]
    |psi|^2 = 0.992
==== e(   5) =     0.97744 eV ==== 
     psi = 0.991*[#   2]+0.003*[#   6]
    |psi|^2 = 0.994
==== e(   6) =     8.61391 eV ==== 

    |psi|^2 = 0.000
==== e(   7) =     9.79802 eV ==== 
     psi = 0.435*[#   1]+0.075*[#   7]+0.075*[#   8]+0.001*[#   5]+0.001*[#   3]
          +0.001*[#   4]
    |psi|^2 = 0.588
==== e(   8) =    10.92336 eV ==== 
     psi = 0.082*[#   3]+0.082*[#   4]+0.026*[#   7]+0.026*[#   8]+0.010*[#   1]
          +0.003*[#   5]
    |psi|^2 = 0.229
==== e(   9) =    11.80435 eV ==== 
     psi = 0.011*[#   3]+0.011*[#   4]+0.010*[#   1]+0.005*[#   7]+0.005*[#   8]
          
    |psi|^2 = 0.041
==== e(  10) =    12.53321 eV ==== 

    |psi|^2 = 0.001

 k =   0.3333333333  0.5773502692  0.0000000000
==== e(   1) =   -17.48673 eV ==== 
     psi = 0.595*[#   5]+0.200*[#   3]+0.200*[#   4]
    |psi|^2 = 0.994
==== e(   2) =   -11.83511 eV ==== 
     psi = 0.295*[#   7]+0.295*[#   8]+0.197*[#   3]+0.197*[#   4]
    |psi|^2 = 0.985
==== e(   3) =   -10.81277 eV ==== 
     psi = 0.356*[#   7]+0.356*[#   8]+0.285*[#   1]
    |psi|^2 = 0.996
==== e(   4) =    -3.69126 eV ==== 
     psi = 0.992*[#   6]
    |psi|^2 = 0.992
==== e(   5) =     0.96775 eV ==== 
     psi = 0.995*[#   2]
    |psi|^2 = 0.995
==== e(   6) =     8.59885 eV ==== 

    |psi|^2 = 0.000
==== e(   7) =     9.84480 eV ==== 
     psi = 0.449*[#   1]+0.078*[#   7]+0.078*[#   8]
    |psi|^2 = 0.605
==== e(   8) =    10.99374 eV ==== 
     psi = 0.086*[#   3]+0.086*[#   4]+0.026*[#   7]+0.026*[#   8]
    |psi|^2 = 0.225
==== e(   9) =    11.75561 eV ==== 
     psi = 0.006*[#   3]+0.006*[#   4]
    |psi|^2 = 0.014
==== e(  10) =    12.71944 eV ==== 

    |psi|^2 = 0.001

Lowdin Charges: 

     Atom #   1: total charge =   2.5440, s =  0.6018, 
     Atom #   1: total charge =   2.5440, p =  1.9423, pz=  0.5299, px=  0.7062, py=  0.7062, 
     Atom #   2: total charge =   5.3881, s =  1.1555, 
     Atom #   2: total charge =   5.3881, p =  4.2327, pz=  1.4471, px=  1.3928, py=  1.3928, 
     Spilling Parameter:   0.0085

     PROJWFC      :      2.56s CPU      3.29s WALL


   This run was terminated on:  15: 6:45  16Apr2024            

=------------------------------------------------------------------------------=
   JOB DONE.
=------------------------------------------------------------------------------=
