
     Program PWSCF v.7.0 starts on 13Apr2025 at 19:44: 8 

     This program is part of the open-source Quantum ESPRESSO suite
     for quantum simulation of materials; please cite
         "P. Giannozzi et al., J. Phys.:Condens. Matter 21 395502 (2009);
         "P. Giannozzi et al., J. Phys.:Condens. Matter 29 465901 (2017);
         "P. Giannozzi et al., J. Chem. Phys. 152 154105 (2020);
          URL http://www.quantum-espresso.org", 
     in publications or presentations arising from this work. More details at
     http://www.quantum-espresso.org/quote

     Parallel version (MPI & OpenMP), running on       8 processor cores
     Number of MPI processes:                 8
     Threads/MPI process:                     1

     MPI processes distributed on     1 nodes
     R & G space division:  proc/nbgrp/npool/nimage =       8
     0 MiB available memory on the printing compute node when the environment starts

     Waiting for input...
     Reading input from standard input
Warning: card &IONS ignored
Warning: card / ignored

     Current dimensions of program PWSCF are:
     Max number of different atomic species (ntypx) = 10
     Max number of k-points (npk) =  40000
     Max angular momentum in pseudopotentials (lmaxx) =  4

     Atomic positions and unit cell read from directory:
     ./tmp_3/C2L_AB_PBE_vdW.save/
     Atomic positions from file used, from input discarded


     IMPORTANT: XC functional enforced from input :
     Exchange-correlation= VDW-DF2-B86R
                           (   1   4  26   0   2   0   0)
     Any further DFT definition will be discarded
     Please, verify this is what you really want


     Subspace diagonalization in iterative solution of the eigenvalue problem:
     one sub-group per band group will be used
     scalapack distributed-memory algorithm (size of sub-group:  2*  2 procs)


     Parallelization info
     --------------------
     sticks:   dense  smooth     PW     G-vecs:    dense   smooth      PW
     Min          45      45     15                 5519     5519    1107
     Max          46      46     16                 5546     5546    1138
     Sum         361     361    121                44285    44285    8929

     Using Slab Decomposition



     bravais-lattice index     =            4
     lattice parameter (alat)  =       4.6645  a.u.
     unit-cell volume          =     703.1169 (a.u.)^3
     number of atoms/cell      =            4
     number of atomic types    =            1
     number of electrons       =        16.00
     number of Kohn-Sham states=           16
     kinetic-energy cutoff     =      60.0000  Ry
     charge density cutoff     =     240.0000  Ry
     Exchange-correlation= VDW-DF2-B86R
                           (   1   4  26   0   2   0   0)

     celldm(1)=   4.664470  celldm(2)=   0.000000  celldm(3)=   8.000000
     celldm(4)=   0.000000  celldm(5)=   0.000000  celldm(6)=   0.000000

     crystal axes: (cart. coord. in units of alat)
               a(1) = (   1.000000   0.000000   0.000000 )  
               a(2) = (  -0.500000   0.866025   0.000000 )  
               a(3) = (   0.000000   0.000000   8.000000 )  

     reciprocal axes: (cart. coord. in units 2 pi/alat)
               b(1) = (  1.000000  0.577350 -0.000000 )  
               b(2) = (  0.000000  1.154701  0.000000 )  
               b(3) = (  0.000000 -0.000000  0.125000 )  


     PseudoPot. # 1 for C  read from file:
     ../../../../Pseudo/PBE/C.upf
     MD5 check sum: 34a24e64c0a39f27c6c36b90a16ac686
     Pseudo is Norm-conserving + core correction, Zval =  4.0
     Generated using ONCVPSP code by D. R. Hamann
     Using radial grid of 1248 points,  4 beta functions with: 
                l(1) =   0
                l(2) =   0
                l(3) =   1
                l(4) =   1

     atomic species   valence    mass     pseudopotential
        C              4.00    12.01100     C ( 1.00)

     No symmetry found


                                    s                        frac. trans.

      isym =  1     identity                                     

 cryst.   s( 1) = (     1          0          0      )
                  (     0          1          0      )
                  (     0          0          1      )

 cart.    s( 1) = (  1.0000000  0.0000000  0.0000000 )
                  (  0.0000000  1.0000000  0.0000000 )
                  (  0.0000000  0.0000000  1.0000000 )


     point group C_1 (1)    
     there are  1 classes
     the character table:

       E    
A      1.00

     the symmetry operations in each class and the name of the first element:

     E        1
          identity                                               

   Cartesian axes

     site n.     atom                  positions (alat units)
         1           C   tau(   1) = (   0.0000000   0.0000000   0.0000000  )
         2           C   tau(   2) = (   0.0000000   0.0000000   1.3401360  )
         3           C   tau(   3) = (   0.5000005   0.2886748   0.0000000  )
         4           C   tau(   4) = (  -0.0000005   0.5773506   1.3401360  )

   Crystallographic axes

     site n.     atom                  positions (cryst. coord.)
         1           C   tau(   1) = (  0.0000000  0.0000000  0.0000000  )
         2           C   tau(   2) = (  0.0000000  0.0000000  0.1675170  )
         3           C   tau(   3) = (  0.6666670  0.3333330  0.0000000  )
         4           C   tau(   4) = (  0.3333330  0.6666670  0.1675170  )

     number of k points=    74  Marzari-Vanderbilt smearing, width (Ry)=  0.0050
                       cart. coord. in units 2pi/alat
        k(    1) = (   0.0000000   0.0000000   0.0000000), wk =   0.0138889
        k(    2) = (   0.0000000   0.0962250   0.0000000), wk =   0.0277778
        k(    3) = (   0.0000000   0.1924501   0.0000000), wk =   0.0277778
        k(    4) = (   0.0000000   0.2886751   0.0000000), wk =   0.0277778
        k(    5) = (   0.0000000   0.3849002   0.0000000), wk =   0.0277778
        k(    6) = (   0.0000000   0.4811252   0.0000000), wk =   0.0277778
        k(    7) = (   0.0000000  -0.5773503   0.0000000), wk =   0.0138889
        k(    8) = (   0.0833333   0.0481125   0.0000000), wk =   0.0277778
        k(    9) = (   0.0833333   0.1443376   0.0000000), wk =   0.0277778
        k(   10) = (   0.0833333   0.2405626   0.0000000), wk =   0.0277778
        k(   11) = (   0.0833333   0.3367877   0.0000000), wk =   0.0277778
        k(   12) = (   0.0833333   0.4330127   0.0000000), wk =   0.0277778
        k(   13) = (   0.0833333   0.5292377   0.0000000), wk =   0.0277778
        k(   14) = (   0.0833333  -0.5292377   0.0000000), wk =   0.0277778
        k(   15) = (   0.0833333  -0.4330127   0.0000000), wk =   0.0277778
        k(   16) = (   0.0833333  -0.3367877   0.0000000), wk =   0.0277778
        k(   17) = (   0.0833333  -0.2405626   0.0000000), wk =   0.0277778
        k(   18) = (   0.0833333  -0.1443376   0.0000000), wk =   0.0277778
        k(   19) = (   0.0833333  -0.0481125   0.0000000), wk =   0.0277778
        k(   20) = (   0.1666667   0.0962250   0.0000000), wk =   0.0277778
        k(   21) = (   0.1666667   0.1924501   0.0000000), wk =   0.0277778
        k(   22) = (   0.1666667   0.2886751   0.0000000), wk =   0.0277778
        k(   23) = (   0.1666667   0.3849002   0.0000000), wk =   0.0277778
        k(   24) = (   0.1666667   0.4811252   0.0000000), wk =   0.0277778
        k(   25) = (   0.1666667   0.5773503   0.0000000), wk =   0.0277778
        k(   26) = (   0.1666667  -0.4811252   0.0000000), wk =   0.0277778
        k(   27) = (   0.1666667  -0.3849002   0.0000000), wk =   0.0277778
        k(   28) = (   0.1666667  -0.2886751   0.0000000), wk =   0.0277778
        k(   29) = (   0.1666667  -0.1924501   0.0000000), wk =   0.0277778
        k(   30) = (   0.1666667  -0.0962250   0.0000000), wk =   0.0277778
        k(   31) = (   0.1666667  -0.0000000   0.0000000), wk =   0.0277778
        k(   32) = (   0.2500000   0.1443376   0.0000000), wk =   0.0277778
        k(   33) = (   0.2500000   0.2405626   0.0000000), wk =   0.0277778
        k(   34) = (   0.2500000   0.3367877   0.0000000), wk =   0.0277778
        k(   35) = (   0.2500000   0.4330127   0.0000000), wk =   0.0277778
        k(   36) = (   0.2500000   0.5292377   0.0000000), wk =   0.0277778
        k(   37) = (   0.2500000   0.6254628   0.0000000), wk =   0.0277778
        k(   38) = (   0.2500000  -0.4330127   0.0000000), wk =   0.0277778
        k(   39) = (   0.2500000  -0.3367877   0.0000000), wk =   0.0277778
        k(   40) = (   0.2500000  -0.2405626   0.0000000), wk =   0.0277778
        k(   41) = (   0.2500000  -0.1443376   0.0000000), wk =   0.0277778
        k(   42) = (   0.2500000  -0.0481125   0.0000000), wk =   0.0277778
        k(   43) = (   0.2500000   0.0481125   0.0000000), wk =   0.0277778
        k(   44) = (   0.3333333   0.1924501   0.0000000), wk =   0.0277778
        k(   45) = (   0.3333333   0.2886751   0.0000000), wk =   0.0277778
        k(   46) = (   0.3333333   0.3849002   0.0000000), wk =   0.0277778
        k(   47) = (   0.3333333   0.4811252   0.0000000), wk =   0.0277778
        k(   48) = (   0.3333333   0.5773503   0.0000000), wk =   0.0277778
        k(   49) = (   0.3333333   0.6735753   0.0000000), wk =   0.0277778
        k(   50) = (   0.3333333  -0.3849002   0.0000000), wk =   0.0277778
        k(   51) = (   0.3333333  -0.2886751   0.0000000), wk =   0.0277778
        k(   52) = (   0.3333333  -0.1924501   0.0000000), wk =   0.0277778
        k(   53) = (   0.3333333  -0.0962250   0.0000000), wk =   0.0277778
        k(   54) = (   0.3333333   0.0000000   0.0000000), wk =   0.0277778
        k(   55) = (   0.3333333   0.0962250   0.0000000), wk =   0.0277778
        k(   56) = (   0.4166667   0.2405626   0.0000000), wk =   0.0277778
        k(   57) = (   0.4166667   0.3367877   0.0000000), wk =   0.0277778
        k(   58) = (   0.4166667   0.4330127   0.0000000), wk =   0.0277778
        k(   59) = (   0.4166667   0.5292377   0.0000000), wk =   0.0277778
        k(   60) = (   0.4166667   0.6254628   0.0000000), wk =   0.0277778
        k(   61) = (   0.4166667   0.7216878   0.0000000), wk =   0.0277778
        k(   62) = (   0.4166667  -0.3367877   0.0000000), wk =   0.0277778
        k(   63) = (   0.4166667  -0.2405626   0.0000000), wk =   0.0277778
        k(   64) = (   0.4166667  -0.1443376   0.0000000), wk =   0.0277778
        k(   65) = (   0.4166667  -0.0481125   0.0000000), wk =   0.0277778
        k(   66) = (   0.4166667   0.0481125   0.0000000), wk =   0.0277778
        k(   67) = (   0.4166667   0.1443376   0.0000000), wk =   0.0277778
        k(   68) = (  -0.5000000  -0.2886751   0.0000000), wk =   0.0138889
        k(   69) = (  -0.5000000  -0.1924501   0.0000000), wk =   0.0277778
        k(   70) = (  -0.5000000  -0.0962250   0.0000000), wk =   0.0277778
        k(   71) = (  -0.5000000   0.0000000   0.0000000), wk =   0.0277778
        k(   72) = (  -0.5000000   0.0962250   0.0000000), wk =   0.0277778
        k(   73) = (  -0.5000000   0.1924501   0.0000000), wk =   0.0277778
        k(   74) = (  -0.5000000  -0.8660254   0.0000000), wk =   0.0138889

                       cryst. coord.
        k(    1) = (   0.0000000   0.0000000   0.0000000), wk =   0.0138889
        k(    2) = (   0.0000000   0.0833333   0.0000000), wk =   0.0277778
        k(    3) = (   0.0000000   0.1666667   0.0000000), wk =   0.0277778
        k(    4) = (   0.0000000   0.2500000   0.0000000), wk =   0.0277778
        k(    5) = (   0.0000000   0.3333333   0.0000000), wk =   0.0277778
        k(    6) = (   0.0000000   0.4166667   0.0000000), wk =   0.0277778
        k(    7) = (   0.0000000  -0.5000000   0.0000000), wk =   0.0138889
        k(    8) = (   0.0833333   0.0000000   0.0000000), wk =   0.0277778
        k(    9) = (   0.0833333   0.0833333   0.0000000), wk =   0.0277778
        k(   10) = (   0.0833333   0.1666667   0.0000000), wk =   0.0277778
        k(   11) = (   0.0833333   0.2500000   0.0000000), wk =   0.0277778
        k(   12) = (   0.0833333   0.3333333   0.0000000), wk =   0.0277778
        k(   13) = (   0.0833333   0.4166667   0.0000000), wk =   0.0277778
        k(   14) = (   0.0833333  -0.5000000   0.0000000), wk =   0.0277778
        k(   15) = (   0.0833333  -0.4166667   0.0000000), wk =   0.0277778
        k(   16) = (   0.0833333  -0.3333333   0.0000000), wk =   0.0277778
        k(   17) = (   0.0833333  -0.2500000   0.0000000), wk =   0.0277778
        k(   18) = (   0.0833333  -0.1666667   0.0000000), wk =   0.0277778
        k(   19) = (   0.0833333  -0.0833333   0.0000000), wk =   0.0277778
        k(   20) = (   0.1666667   0.0000000   0.0000000), wk =   0.0277778
        k(   21) = (   0.1666667   0.0833333   0.0000000), wk =   0.0277778
        k(   22) = (   0.1666667   0.1666667   0.0000000), wk =   0.0277778
        k(   23) = (   0.1666667   0.2500000   0.0000000), wk =   0.0277778
        k(   24) = (   0.1666667   0.3333333   0.0000000), wk =   0.0277778
        k(   25) = (   0.1666667   0.4166667   0.0000000), wk =   0.0277778
        k(   26) = (   0.1666667  -0.5000000   0.0000000), wk =   0.0277778
        k(   27) = (   0.1666667  -0.4166667   0.0000000), wk =   0.0277778
        k(   28) = (   0.1666667  -0.3333333   0.0000000), wk =   0.0277778
        k(   29) = (   0.1666667  -0.2500000   0.0000000), wk =   0.0277778
        k(   30) = (   0.1666667  -0.1666667   0.0000000), wk =   0.0277778
        k(   31) = (   0.1666667  -0.0833333   0.0000000), wk =   0.0277778
        k(   32) = (   0.2500000   0.0000000   0.0000000), wk =   0.0277778
        k(   33) = (   0.2500000   0.0833333   0.0000000), wk =   0.0277778
        k(   34) = (   0.2500000   0.1666667   0.0000000), wk =   0.0277778
        k(   35) = (   0.2500000   0.2500000   0.0000000), wk =   0.0277778
        k(   36) = (   0.2500000   0.3333333   0.0000000), wk =   0.0277778
        k(   37) = (   0.2500000   0.4166667   0.0000000), wk =   0.0277778
        k(   38) = (   0.2500000  -0.5000000   0.0000000), wk =   0.0277778
        k(   39) = (   0.2500000  -0.4166667   0.0000000), wk =   0.0277778
        k(   40) = (   0.2500000  -0.3333333   0.0000000), wk =   0.0277778
        k(   41) = (   0.2500000  -0.2500000   0.0000000), wk =   0.0277778
        k(   42) = (   0.2500000  -0.1666667   0.0000000), wk =   0.0277778
        k(   43) = (   0.2500000  -0.0833333   0.0000000), wk =   0.0277778
        k(   44) = (   0.3333333   0.0000000   0.0000000), wk =   0.0277778
        k(   45) = (   0.3333333   0.0833333   0.0000000), wk =   0.0277778
        k(   46) = (   0.3333333   0.1666667   0.0000000), wk =   0.0277778
        k(   47) = (   0.3333333   0.2500000   0.0000000), wk =   0.0277778
        k(   48) = (   0.3333333   0.3333333   0.0000000), wk =   0.0277778
        k(   49) = (   0.3333333   0.4166667   0.0000000), wk =   0.0277778
        k(   50) = (   0.3333333  -0.5000000   0.0000000), wk =   0.0277778
        k(   51) = (   0.3333333  -0.4166667   0.0000000), wk =   0.0277778
        k(   52) = (   0.3333333  -0.3333333   0.0000000), wk =   0.0277778
        k(   53) = (   0.3333333  -0.2500000   0.0000000), wk =   0.0277778
        k(   54) = (   0.3333333  -0.1666667   0.0000000), wk =   0.0277778
        k(   55) = (   0.3333333  -0.0833333   0.0000000), wk =   0.0277778
        k(   56) = (   0.4166667   0.0000000   0.0000000), wk =   0.0277778
        k(   57) = (   0.4166667   0.0833333   0.0000000), wk =   0.0277778
        k(   58) = (   0.4166667   0.1666667   0.0000000), wk =   0.0277778
        k(   59) = (   0.4166667   0.2500000   0.0000000), wk =   0.0277778
        k(   60) = (   0.4166667   0.3333333   0.0000000), wk =   0.0277778
        k(   61) = (   0.4166667   0.4166667   0.0000000), wk =   0.0277778
        k(   62) = (   0.4166667  -0.5000000   0.0000000), wk =   0.0277778
        k(   63) = (   0.4166667  -0.4166667   0.0000000), wk =   0.0277778
        k(   64) = (   0.4166667  -0.3333333   0.0000000), wk =   0.0277778
        k(   65) = (   0.4166667  -0.2500000   0.0000000), wk =   0.0277778
        k(   66) = (   0.4166667  -0.1666667   0.0000000), wk =   0.0277778
        k(   67) = (   0.4166667  -0.0833333   0.0000000), wk =   0.0277778
        k(   68) = (  -0.5000000   0.0000000   0.0000000), wk =   0.0138889
        k(   69) = (  -0.5000000   0.0833333   0.0000000), wk =   0.0277778
        k(   70) = (  -0.5000000   0.1666667   0.0000000), wk =   0.0277778
        k(   71) = (  -0.5000000   0.2500000   0.0000000), wk =   0.0277778
        k(   72) = (  -0.5000000   0.3333333   0.0000000), wk =   0.0277778
        k(   73) = (  -0.5000000   0.4166667   0.0000000), wk =   0.0277778
        k(   74) = (  -0.5000000  -0.5000000   0.0000000), wk =   0.0138889

     Dense  grid:    44285 G-vectors     FFT dimensions: (  24,  24, 192)

     Dynamical RAM for                 wfc:       0.17 MB

     Dynamical RAM for     wfc (w. buffer):       0.17 MB

     Dynamical RAM for           str. fact:       0.08 MB

     Dynamical RAM for           local pot:       0.00 MB

     Dynamical RAM for          nlocal pot:       0.34 MB

     Dynamical RAM for                qrad:       0.36 MB

     Dynamical RAM for          rho,v,vnew:       0.57 MB

     Dynamical RAM for           G-vectors:       0.36 MB

     Dynamical RAM for          h,s,v(r/c):       0.01 MB

     Dynamical RAM for          <psi|beta>:       0.01 MB

     Dynamical RAM for                 psi:       0.34 MB

     Dynamical RAM for                hpsi:       0.34 MB

     Dynamical RAM for      wfcinit/wfcrot:       0.34 MB

     Estimated static dynamical RAM per process >       2.57 MB

     Estimated max dynamical RAM per process >       3.26 MB

     Estimated total dynamical RAM >      26.10 MB

     The potential is recalculated from file :
     ./tmp_3/C2L_AB_PBE_vdW.save/charge-density



     %%%%%%%%%%%%%%%%%%%%%%%%%%%%%%%%%%%%%%%%%%%%%%%%%%%%%%%%%%%%%%%%%%%%%%%%
     %                                                                      %
     % You are using vdW-DF, which was implemented by the Thonhauser group. %
     % Please cite the following two papers that made this development      %
     % possible and the two reviews that describe the various versions:     %
     %                                                                      %
     %   T. Thonhauser et al., PRL 115, 136402 (2015).                      %
     %   T. Thonhauser et al., PRB 76, 125112 (2007).                       %
     %   K. Berland et al., Rep. Prog. Phys. 78, 066501 (2015).             %
     %   D.C. Langreth et al., J. Phys.: Condens. Matter 21, 084203 (2009). %
     %                                                                      %
     %                                                                      %
     % If you are calculating the stress with vdW-DF, please also cite:     %
     %                                                                      %
     %   R. Sabatini et al., J. Phys.: Condens. Matter 24, 424209 (2012).   %
     %                                                                      %
     %%%%%%%%%%%%%%%%%%%%%%%%%%%%%%%%%%%%%%%%%%%%%%%%%%%%%%%%%%%%%%%%%%%%%%%%


     Carrying out vdW-DF run using the following parameters:
     Nqs    =  20  Npoints =  1024  r_max =  100.000
     q_mesh =  0.00001000  0.04494208  0.09755937  0.15916263
               0.23128650  0.31572767  0.41458969  0.53033537
               0.66584808  0.82450364  1.01025438  1.22772762
               1.48234092  1.78043706  2.12944203  2.53805004
               3.01644009  3.57652955  4.23227104  5.00000000


     -----------------------------------------------
     Non-local corr. energy    =       0.19408782 Ry
     -----------------------------------------------

     Starting wfcs are   16 randomized atomic wfcs

     Band Structure Calculation
     Davidson diagonalization with overlap

     Computing kpt #:     1  of    74
     total cpu time spent up to now is        9.3 secs

     Computing kpt #:     2  of    74
     total cpu time spent up to now is        9.5 secs

     Computing kpt #:     3  of    74
     total cpu time spent up to now is        9.7 secs

     Computing kpt #:     4  of    74
     total cpu time spent up to now is       10.0 secs

     Computing kpt #:     5  of    74
     total cpu time spent up to now is       10.1 secs

     Computing kpt #:     6  of    74
     total cpu time spent up to now is       10.3 secs

     Computing kpt #:     7  of    74
     total cpu time spent up to now is       10.5 secs

     Computing kpt #:     8  of    74
     total cpu time spent up to now is       10.6 secs

     Computing kpt #:     9  of    74
     total cpu time spent up to now is       10.8 secs

     Computing kpt #:    10  of    74
     total cpu time spent up to now is       11.1 secs

     Computing kpt #:    11  of    74
     total cpu time spent up to now is       11.3 secs

     Computing kpt #:    12  of    74
     total cpu time spent up to now is       11.5 secs

     Computing kpt #:    13  of    74
     total cpu time spent up to now is       11.7 secs

     Computing kpt #:    14  of    74
     total cpu time spent up to now is       11.9 secs

     Computing kpt #:    15  of    74
     total cpu time spent up to now is       12.1 secs

     Computing kpt #:    16  of    74
     total cpu time spent up to now is       12.3 secs

     Computing kpt #:    17  of    74
     total cpu time spent up to now is       12.5 secs

     Computing kpt #:    18  of    74
     total cpu time spent up to now is       12.7 secs

     Computing kpt #:    19  of    74
     total cpu time spent up to now is       12.8 secs

     Computing kpt #:    20  of    74
     total cpu time spent up to now is       13.0 secs

     Computing kpt #:    21  of    74
     total cpu time spent up to now is       13.2 secs

     Computing kpt #:    22  of    74
     total cpu time spent up to now is       13.5 secs

     Computing kpt #:    23  of    74
     total cpu time spent up to now is       13.6 secs

     Computing kpt #:    24  of    74
     total cpu time spent up to now is       13.8 secs

     Computing kpt #:    25  of    74
     total cpu time spent up to now is       14.0 secs

     Computing kpt #:    26  of    74
     total cpu time spent up to now is       14.1 secs

     Computing kpt #:    27  of    74
     total cpu time spent up to now is       14.3 secs

     Computing kpt #:    28  of    74
     total cpu time spent up to now is       14.5 secs

     Computing kpt #:    29  of    74
     total cpu time spent up to now is       14.7 secs

     Computing kpt #:    30  of    74
     total cpu time spent up to now is       15.0 secs

     Computing kpt #:    31  of    74
     total cpu time spent up to now is       15.2 secs

     Computing kpt #:    32  of    74
     total cpu time spent up to now is       15.4 secs

     Computing kpt #:    33  of    74
     total cpu time spent up to now is       15.6 secs

     Computing kpt #:    34  of    74
     total cpu time spent up to now is       15.8 secs

     Computing kpt #:    35  of    74
     total cpu time spent up to now is       16.1 secs

     Computing kpt #:    36  of    74
     total cpu time spent up to now is       16.3 secs

     Computing kpt #:    37  of    74
     total cpu time spent up to now is       16.6 secs

     Computing kpt #:    38  of    74
     total cpu time spent up to now is       16.8 secs

     Computing kpt #:    39  of    74
     total cpu time spent up to now is       17.0 secs

     Computing kpt #:    40  of    74
     total cpu time spent up to now is       17.1 secs

     Computing kpt #:    41  of    74
     total cpu time spent up to now is       17.3 secs

     Computing kpt #:    42  of    74
     total cpu time spent up to now is       17.5 secs

     Computing kpt #:    43  of    74
     total cpu time spent up to now is       17.7 secs

     Computing kpt #:    44  of    74
     total cpu time spent up to now is       17.9 secs

     Computing kpt #:    45  of    74
     total cpu time spent up to now is       18.1 secs

     Computing kpt #:    46  of    74
     total cpu time spent up to now is       18.2 secs

     Computing kpt #:    47  of    74
     total cpu time spent up to now is       18.4 secs

     Computing kpt #:    48  of    74
     total cpu time spent up to now is       18.6 secs

     Computing kpt #:    49  of    74
     total cpu time spent up to now is       18.8 secs

     Computing kpt #:    50  of    74
     total cpu time spent up to now is       19.0 secs

     Computing kpt #:    51  of    74
     total cpu time spent up to now is       19.2 secs

     Computing kpt #:    52  of    74
     total cpu time spent up to now is       19.3 secs

     Computing kpt #:    53  of    74
     total cpu time spent up to now is       19.5 secs

     Computing kpt #:    54  of    74
     total cpu time spent up to now is       19.7 secs

     Computing kpt #:    55  of    74
     total cpu time spent up to now is       20.0 secs

     Computing kpt #:    56  of    74
     total cpu time spent up to now is       20.1 secs

     Computing kpt #:    57  of    74
     total cpu time spent up to now is       20.3 secs

     Computing kpt #:    58  of    74
     total cpu time spent up to now is       20.4 secs

     Computing kpt #:    59  of    74
     total cpu time spent up to now is       20.7 secs

     Computing kpt #:    60  of    74
     total cpu time spent up to now is       20.9 secs

     Computing kpt #:    61  of    74
     total cpu time spent up to now is       21.0 secs

     Computing kpt #:    62  of    74
     total cpu time spent up to now is       21.2 secs

     Computing kpt #:    63  of    74
     total cpu time spent up to now is       21.4 secs

     Computing kpt #:    64  of    74
     total cpu time spent up to now is       21.5 secs

     Computing kpt #:    65  of    74
     total cpu time spent up to now is       21.8 secs

     Computing kpt #:    66  of    74
     total cpu time spent up to now is       21.9 secs

     Computing kpt #:    67  of    74
     total cpu time spent up to now is       22.1 secs

     Computing kpt #:    68  of    74
     total cpu time spent up to now is       22.3 secs

     Computing kpt #:    69  of    74
     total cpu time spent up to now is       22.5 secs

     Computing kpt #:    70  of    74
     total cpu time spent up to now is       22.7 secs

     Computing kpt #:    71  of    74
     total cpu time spent up to now is       23.0 secs

     Computing kpt #:    72  of    74
     total cpu time spent up to now is       23.2 secs

     Computing kpt #:    73  of    74
     total cpu time spent up to now is       23.4 secs

     Computing kpt #:    74  of    74
     total cpu time spent up to now is       23.5 secs

     ethr =  5.00E-06,  avg # of iterations = 29.6

     total cpu time spent up to now is       23.5 secs

     End of band structure calculation

          k = 0.0000 0.0000 0.0000 (  5505 PWs)   bands (ev):

   -20.1554 -19.9824  -8.7256  -7.6499  -3.6388  -3.6387  -3.6280  -3.6280
     2.5620   2.9839   4.0502   5.1877   5.6433   7.4775   7.8231   7.8232

     occupation numbers 
     1.0000   1.0000   1.0000   1.0000   1.0000   1.0000   1.0000   1.0000
     0.0000   0.0000   0.0000   0.0000   0.0000   0.0000   0.0000   0.0000

          k = 0.0000 0.0962 0.0000 (  5518 PWs)   bands (ev):

   -19.9911 -19.8198  -8.5260  -7.4573  -4.2935  -4.2743  -3.9797  -3.9635
     2.7821   3.2058   4.2765   5.4122   5.8530   7.6706   7.8717   7.9450

     occupation numbers 
     1.0000   1.0000   1.0000   1.0000   1.0000   1.0000   1.0000   1.0000
     0.0000   0.0000   0.0000   0.0000   0.0000   0.0000   0.0000   0.0000

          k = 0.0000 0.1925 0.0000 (  5532 PWs)   bands (ev):

   -19.4999 -19.3338  -7.9333  -6.8859  -5.9374  -5.8989  -4.7738  -4.7511
     3.4422   3.8699   4.9553   6.0846   6.4765   7.7805   7.8842   8.3022

     occupation numbers 
     1.0000   1.0000   1.0000   1.0000   1.0000   1.0000   1.0000   1.0000
     0.0000   0.0000   0.0000   0.0000   0.0000   0.0000   0.0000   0.0000

          k = 0.0000 0.2887 0.0000 (  5500 PWs)   bands (ev):

   -18.6872 -18.5297  -8.0408  -7.9823  -6.9634  -5.9562  -5.6543  -5.6275
     4.5390   4.9609   6.0843   6.4843   6.8004   7.2026   7.4181   7.5192

     occupation numbers 
     1.0000   1.0000   1.0000   1.0000   1.0000   1.0000   1.0000   1.0000
     0.0000   0.0000   0.0000   0.0000   0.0000   0.0000   0.0000   0.0000

          k = 0.0000 0.3849 0.0000 (  5544 PWs)   bands (ev):

   -17.5667 -17.4206 -10.2484 -10.1714  -6.3898  -6.3601  -5.6611  -4.7292
     4.0738   4.5862   6.0649   6.5352   7.1178   7.2906   7.6843   8.7869

     occupation numbers 
     1.0000   1.0000   1.0000   1.0000   1.0000   1.0000   1.0000   1.0000
     0.0000   0.0000   0.0000   0.0000   0.0000   0.0000   0.0000   0.0000

          k = 0.0000 0.4811 0.0000 (  5530 PWs)   bands (ev):

   -16.1678 -16.0379 -12.3509 -12.2571  -6.8636  -6.8330  -4.1605  -3.4011
     1.9263   2.4858   6.8433   7.0595   8.0370   8.5046   9.6963  10.7857

     occupation numbers 
     1.0000   1.0000   1.0000   1.0000   1.0000   1.0000   1.0000   1.0000
     0.0000   0.0000   0.0000   0.0000   0.0000   0.0000   0.0000   0.0000

          k = 0.0000-0.5774 0.0000 (  5540 PWs)   bands (ev):

   -14.8841 -14.8187 -13.8229 -13.7734  -7.0265  -6.9956  -3.1589  -2.7607
     0.9424   1.3242   6.7564   6.9844  10.3080  10.3854  10.7997  10.8683

     occupation numbers 
     1.0000   1.0000   1.0000   1.0000   1.0000   1.0000   1.0000   1.0000
     0.0000   0.0000   0.0000   0.0000   0.0000   0.0000   0.0000   0.0000

          k = 0.0833 0.0481 0.0000 (  5518 PWs)   bands (ev):

   -19.9911 -19.8198  -8.5260  -7.4573  -4.2935  -4.2743  -3.9797  -3.9635
     2.7821   3.2058   4.2765   5.4123   5.8530   7.6706   7.8717   7.9449

     occupation numbers 
     1.0000   1.0000   1.0000   1.0000   1.0000   1.0000   1.0000   1.0000
     0.0000   0.0000   0.0000   0.0000   0.0000   0.0000   0.0000   0.0000

          k = 0.0833 0.1443 0.0000 (  5513 PWs)   bands (ev):

   -19.6633 -19.4954  -8.1298  -7.0748  -5.3266  -5.3070  -4.6521  -4.6383
     3.2224   3.6491   4.7292   5.8612   6.2724   8.0531   8.1500   8.2813

     occupation numbers 
     1.0000   1.0000   1.0000   1.0000   1.0000   1.0000   1.0000   1.0000
     0.0000   0.0000   0.0000   0.0000   0.0000   0.0000   0.0000   0.0000

          k = 0.0833 0.2406 0.0000 (  5507 PWs)   bands (ev):

   -19.0113 -18.8504  -7.3479  -7.0430  -7.0031  -6.3229  -5.6534  -5.6279
     4.1019   4.5315   5.6342   6.7544   7.0930   7.3761   7.6258   8.2798

     occupation numbers 
     1.0000   1.0000   1.0000   1.0000   1.0000   1.0000   1.0000   1.0000
     0.0000   0.0000   0.0000   0.0000   0.0000   0.0000   0.0000   0.0000

          k = 0.0833 0.3368 0.0000 (  5525 PWs)   bands (ev):

   -18.0447 -17.8938  -9.1227  -9.0589  -6.5441  -6.5102  -6.2066  -5.2369
     5.1262   5.4117   5.5497   5.8921   6.9884   7.9433   8.0671   8.1542

     occupation numbers 
     1.0000   1.0000   1.0000   1.0000   1.0000   1.0000   1.0000   1.0000
     0.0000   0.0000   0.0000   0.0000   0.0000   0.0000   0.0000   0.0000

          k = 0.0833 0.4330 0.0000 (  5525 PWs)   bands (ev):

   -16.7820 -16.6444 -11.2500 -11.1658  -7.1810  -7.1434  -4.7775  -3.9148
     2.8881   3.4046   7.1421   7.5563   7.7297   7.8918   8.8008   9.8885

     occupation numbers 
     1.0000   1.0000   1.0000   1.0000   1.0000   1.0000   1.0000   1.0000
     0.0000   0.0000   0.0000   0.0000   0.0000   0.0000   0.0000   0.0000

          k = 0.0833 0.5292 0.0000 (  5533 PWs)   bands (ev):

   -15.2977 -15.1836 -13.1882 -13.0951  -7.5108  -7.4714  -3.3411  -2.7705
     1.1752   1.6195   7.4840   7.7216   9.3005   9.7433  11.0061  11.5992

     occupation numbers 
     1.0000   1.0000   1.0000   1.0000   1.0000   1.0000   1.0000   1.0000
     0.0000   0.0000   0.0000   0.0000   0.0000   0.0000   0.0000   0.0000

          k = 0.0833-0.5292 0.0000 (  5533 PWs)   bands (ev):

   -15.2977 -15.1836 -13.1882 -13.0951  -7.5108  -7.4714  -3.3411  -2.7705
     1.1752   1.6195   7.4840   7.7216   9.3005   9.7433  11.0061  11.5993

     occupation numbers 
     1.0000   1.0000   1.0000   1.0000   1.0000   1.0000   1.0000   1.0000
     0.0000   0.0000   0.0000   0.0000   0.0000   0.0000   0.0000   0.0000

          k = 0.0833-0.4330 0.0000 (  5525 PWs)   bands (ev):

   -16.7820 -16.6444 -11.2500 -11.1658  -7.1810  -7.1434  -4.7775  -3.9148
     2.8881   3.4046   7.1421   7.5563   7.7297   7.8918   8.8008   9.8885

     occupation numbers 
     1.0000   1.0000   1.0000   1.0000   1.0000   1.0000   1.0000   1.0000
     0.0000   0.0000   0.0000   0.0000   0.0000   0.0000   0.0000   0.0000

          k = 0.0833-0.3368 0.0000 (  5525 PWs)   bands (ev):

   -18.0447 -17.8938  -9.1227  -9.0589  -6.5441  -6.5102  -6.2066  -5.2369
     5.1261   5.4117   5.5497   5.8921   6.9884   7.9434   8.0671   8.1542

     occupation numbers 
     1.0000   1.0000   1.0000   1.0000   1.0000   1.0000   1.0000   1.0000
     0.0000   0.0000   0.0000   0.0000   0.0000   0.0000   0.0000   0.0000

          k = 0.0833-0.2406 0.0000 (  5507 PWs)   bands (ev):

   -19.0113 -18.8504  -7.3479  -7.0430  -7.0031  -6.3229  -5.6534  -5.6279
     4.1019   4.5315   5.6342   6.7544   7.0934   7.3761   7.6259   8.2807

     occupation numbers 
     1.0000   1.0000   1.0000   1.0000   1.0000   1.0000   1.0000   1.0000
     0.0000   0.0000   0.0000   0.0000   0.0000   0.0000   0.0000   0.0000

          k = 0.0833-0.1443 0.0000 (  5513 PWs)   bands (ev):

   -19.6633 -19.4954  -8.1298  -7.0748  -5.3266  -5.3070  -4.6521  -4.6383
     3.2224   3.6491   4.7292   5.8612   6.2724   8.0527   8.1500   8.2809

     occupation numbers 
     1.0000   1.0000   1.0000   1.0000   1.0000   1.0000   1.0000   1.0000
     0.0000   0.0000   0.0000   0.0000   0.0000   0.0000   0.0000   0.0000

          k = 0.0833-0.0481 0.0000 (  5518 PWs)   bands (ev):

   -19.9911 -19.8198  -8.5260  -7.4573  -4.2935  -4.2743  -3.9796  -3.9635
     2.7821   3.2058   4.2765   5.4122   5.8530   7.6706   7.8718   7.9450

     occupation numbers 
     1.0000   1.0000   1.0000   1.0000   1.0000   1.0000   1.0000   1.0000
     0.0000   0.0000   0.0000   0.0000   0.0000   0.0000   0.0000   0.0000

          k = 0.1667 0.0962 0.0000 (  5532 PWs)   bands (ev):

   -19.4999 -19.3338  -7.9333  -6.8859  -5.9374  -5.8989  -4.7738  -4.7511
     3.4422   3.8699   4.9553   6.0847   6.4765   7.7805   7.8842   8.3021

     occupation numbers 
     1.0000   1.0000   1.0000   1.0000   1.0000   1.0000   1.0000   1.0000
     0.0000   0.0000   0.0000   0.0000   0.0000   0.0000   0.0000   0.0000

          k = 0.1667 0.1925 0.0000 (  5507 PWs)   bands (ev):

   -19.0113 -18.8504  -7.3479  -7.0430  -7.0031  -6.3229  -5.6534  -5.6279
     4.1019   4.5315   5.6341   6.7543   7.0930   7.3761   7.6258   8.2797

     occupation numbers 
     1.0000   1.0000   1.0000   1.0000   1.0000   1.0000   1.0000   1.0000
     0.0000   0.0000   0.0000   0.0000   0.0000   0.0000   0.0000   0.0000

          k = 0.1667 0.2887 0.0000 (  5510 PWs)   bands (ev):

   -18.2052 -18.0527  -8.3701  -8.3384  -7.0068  -6.9834  -6.3908  -5.4091
     5.1977   5.6253   5.6567   5.9311   6.7644   7.8727   8.1220   9.4500

     occupation numbers 
     1.0000   1.0000   1.0000   1.0000   1.0000   1.0000   1.0000   1.0000
     0.0000   0.0000   0.0000   0.0000   0.0000   0.0000   0.0000   0.0000

          k = 0.1667 0.3849 0.0000 (  5515 PWs)   bands (ev):

   -17.0951 -16.9542 -10.1068 -10.0465  -8.0710  -8.0293  -5.1025  -4.1962
     3.6714   4.0277   6.7210   7.1405   8.3389   9.3862   9.4041   9.6288

     occupation numbers 
     1.0000   1.0000   1.0000   1.0000   1.0000   1.0000   1.0000   1.0000
     0.0000   0.0000   0.0000   0.0000   0.0000   0.0000   0.0000   0.0000

          k = 0.1667 0.4811 0.0000 (  5530 PWs)   bands (ev):

   -15.7167 -15.5912 -12.0225 -11.9374  -8.6536  -8.6012  -3.6041  -2.8569
     1.7334   2.1581   8.6406   8.9820   9.3716   9.6156  10.3261  10.8234

     occupation numbers 
     1.0000   1.0000   1.0000   1.0000   1.0000   1.0000   1.0000   1.0000
     0.0000   0.0000   0.0000   0.0000   0.0000   0.0000   0.0000   0.0000

          k = 0.1667 0.5774 0.0000 (  5518 PWs)   bands (ev):

   -14.4622 -14.3998 -13.4239 -13.3808  -8.8401  -8.7851  -2.5595  -2.1678
     0.8124   0.9969   9.2242   9.5355  10.6730  10.8549  10.9242  10.9794

     occupation numbers 
     1.0000   1.0000   1.0000   1.0000   1.0000   1.0000   1.0000   1.0000
     0.0000   0.0000   0.0000   0.0000   0.0000   0.0000   0.0000   0.0000

          k = 0.1667-0.4811 0.0000 (  5530 PWs)   bands (ev):

   -15.7167 -15.5912 -12.0225 -11.9374  -8.6536  -8.6012  -3.6041  -2.8569
     1.7334   2.1581   8.6406   8.9820   9.3716   9.6156  10.3261  10.8234

     occupation numbers 
     1.0000   1.0000   1.0000   1.0000   1.0000   1.0000   1.0000   1.0000
     0.0000   0.0000   0.0000   0.0000   0.0000   0.0000   0.0000   0.0000

          k = 0.1667-0.3849 0.0000 (  5515 PWs)   bands (ev):

   -17.0951 -16.9542 -10.1068 -10.0465  -8.0710  -8.0293  -5.1025  -4.1962
     3.6714   4.0277   6.7210   7.1405   8.3389   9.3861   9.4040   9.6286

     occupation numbers 
     1.0000   1.0000   1.0000   1.0000   1.0000   1.0000   1.0000   1.0000
     0.0000   0.0000   0.0000   0.0000   0.0000   0.0000   0.0000   0.0000

          k = 0.1667-0.2887 0.0000 (  5510 PWs)   bands (ev):

   -18.2052 -18.0528  -8.3701  -8.3384  -7.0068  -6.9833  -6.3908  -5.4091
     5.1977   5.6253   5.6567   5.9311   6.7644   7.8727   8.1220   9.4500

     occupation numbers 
     1.0000   1.0000   1.0000   1.0000   1.0000   1.0000   1.0000   1.0000
     0.0000   0.0000   0.0000   0.0000   0.0000   0.0000   0.0000   0.0000

          k = 0.1667-0.1925 0.0000 (  5507 PWs)   bands (ev):

   -19.0113 -18.8504  -7.3479  -7.0430  -7.0032  -6.3229  -5.6534  -5.6278
     4.1019   4.5315   5.6341   6.7544   7.0930   7.3761   7.6258   8.2798

     occupation numbers 
     1.0000   1.0000   1.0000   1.0000   1.0000   1.0000   1.0000   1.0000
     0.0000   0.0000   0.0000   0.0000   0.0000   0.0000   0.0000   0.0000

          k = 0.1667-0.0962 0.0000 (  5532 PWs)   bands (ev):

   -19.4999 -19.3338  -7.9333  -6.8859  -5.9374  -5.8989  -4.7738  -4.7511
     3.4422   3.8699   4.9553   6.0846   6.4765   7.7806   7.8842   8.3026

     occupation numbers 
     1.0000   1.0000   1.0000   1.0000   1.0000   1.0000   1.0000   1.0000
     0.0000   0.0000   0.0000   0.0000   0.0000   0.0000   0.0000   0.0000

          k = 0.1667-0.0000 0.0000 (  5513 PWs)   bands (ev):

   -19.6633 -19.4954  -8.1298  -7.0748  -5.3266  -5.3070  -4.6521  -4.6383
     3.2224   3.6491   4.7292   5.8611   6.2724   8.0527   8.1499   8.2808

     occupation numbers 
     1.0000   1.0000   1.0000   1.0000   1.0000   1.0000   1.0000   1.0000
     0.0000   0.0000   0.0000   0.0000   0.0000   0.0000   0.0000   0.0000

          k = 0.2500 0.1443 0.0000 (  5500 PWs)   bands (ev):

   -18.6872 -18.5297  -8.0408  -7.9823  -6.9634  -5.9562  -5.6543  -5.6275
     4.5390   4.9609   6.0843   6.4843   6.8004   7.2026   7.4181   7.5192

     occupation numbers 
     1.0000   1.0000   1.0000   1.0000   1.0000   1.0000   1.0000   1.0000
     0.0000   0.0000   0.0000   0.0000   0.0000   0.0000   0.0000   0.0000

          k = 0.2500 0.2406 0.0000 (  5525 PWs)   bands (ev):

   -18.0447 -17.8938  -9.1227  -9.0589  -6.5441  -6.5102  -6.2066  -5.2369
     5.1262   5.4117   5.5497   5.8921   6.9884   7.9433   8.0671   8.1542

     occupation numbers 
     1.0000   1.0000   1.0000   1.0000   1.0000   1.0000   1.0000   1.0000
     0.0000   0.0000   0.0000   0.0000   0.0000   0.0000   0.0000   0.0000

          k = 0.2500 0.3368 0.0000 (  5515 PWs)   bands (ev):

   -17.0951 -16.9542 -10.1068 -10.0465  -8.0710  -8.0293  -5.1025  -4.1962
     3.6714   4.0277   6.7210   7.1405   8.3389   9.3864   9.4039   9.6292

     occupation numbers 
     1.0000   1.0000   1.0000   1.0000   1.0000   1.0000   1.0000   1.0000
     0.0000   0.0000   0.0000   0.0000   0.0000   0.0000   0.0000   0.0000

          k = 0.2500 0.4330 0.0000 (  5486 PWs)   bands (ev):

   -15.8646 -15.7368 -11.1363 -11.0922  -9.5395  -9.5068  -3.7113  -2.9096
     2.0672   2.4072   8.4300   8.7337  10.0303  10.4205  10.9639  11.5151

     occupation numbers 
     1.0000   1.0000   1.0000   1.0000   1.0000   1.0000   1.0000   1.0000
     0.0000   0.0000   0.0000   0.0000   0.0000   0.0000   0.0000   0.0000

          k = 0.2500 0.5292 0.0000 (  5487 PWs)   bands (ev):

   -14.4374 -14.3331 -12.5625 -12.4926 -10.2582 -10.2030  -2.2274  -1.6530
     0.5783   0.8863   9.9544  10.2549  10.4541  11.3869  11.7914  12.1125

     occupation numbers 
     1.0000   1.0000   1.0000   1.0000   1.0000   1.0000   1.0000   1.0000
     0.0000   0.0000   0.0000   0.0000   0.0000   0.0000   0.0000   0.0000

          k = 0.2500 0.6255 0.0000 (  5487 PWs)   bands (ev):

   -14.4374 -14.3331 -12.5625 -12.4926 -10.2582 -10.2030  -2.2274  -1.6530
     0.5783   0.8863   9.9544  10.2549  10.4541  11.3869  11.7913  12.1126

     occupation numbers 
     1.0000   1.0000   1.0000   1.0000   1.0000   1.0000   1.0000   1.0000
     0.0000   0.0000   0.0000   0.0000   0.0000   0.0000   0.0000   0.0000

          k = 0.2500-0.4330 0.0000 (  5486 PWs)   bands (ev):

   -15.8646 -15.7368 -11.1363 -11.0922  -9.5394  -9.5068  -3.7113  -2.9096
     2.0672   2.4072   8.4300   8.7337  10.0303  10.4205  10.9639  11.5145

     occupation numbers 
     1.0000   1.0000   1.0000   1.0000   1.0000   1.0000   1.0000   1.0000
     0.0000   0.0000   0.0000   0.0000   0.0000   0.0000   0.0000   0.0000

          k = 0.2500-0.3368 0.0000 (  5515 PWs)   bands (ev):

   -17.0951 -16.9542 -10.1069 -10.0465  -8.0710  -8.0293  -5.1025  -4.1962
     3.6713   4.0277   6.7210   7.1405   8.3389   9.3861   9.4040   9.6287

     occupation numbers 
     1.0000   1.0000   1.0000   1.0000   1.0000   1.0000   1.0000   1.0000
     0.0000   0.0000   0.0000   0.0000   0.0000   0.0000   0.0000   0.0000

          k = 0.2500-0.2406 0.0000 (  5525 PWs)   bands (ev):

   -18.0447 -17.8938  -9.1227  -9.0589  -6.5441  -6.5102  -6.2066  -5.2369
     5.1261   5.4117   5.5497   5.8921   6.9884   7.9434   8.0672   8.1542

     occupation numbers 
     1.0000   1.0000   1.0000   1.0000   1.0000   1.0000   1.0000   1.0000
     0.0000   0.0000   0.0000   0.0000   0.0000   0.0000   0.0000   0.0000

          k = 0.2500-0.1443 0.0000 (  5500 PWs)   bands (ev):

   -18.6872 -18.5297  -8.0408  -7.9824  -6.9634  -5.9562  -5.6542  -5.6275
     4.5390   4.9609   6.0843   6.4843   6.8004   7.2026   7.4181   7.5193

     occupation numbers 
     1.0000   1.0000   1.0000   1.0000   1.0000   1.0000   1.0000   1.0000
     0.0000   0.0000   0.0000   0.0000   0.0000   0.0000   0.0000   0.0000

          k = 0.2500-0.0481 0.0000 (  5507 PWs)   bands (ev):

   -19.0113 -18.8504  -7.3479  -7.0430  -7.0032  -6.3229  -5.6534  -5.6278
     4.1019   4.5315   5.6342   6.7544   7.0935   7.3761   7.6259   8.2856

     occupation numbers 
     1.0000   1.0000   1.0000   1.0000   1.0000   1.0000   1.0000   1.0000
     0.0000   0.0000   0.0000   0.0000   0.0000   0.0000   0.0000   0.0000

          k = 0.2500 0.0481 0.0000 (  5507 PWs)   bands (ev):

   -19.0113 -18.8504  -7.3479  -7.0430  -7.0031  -6.3229  -5.6534  -5.6279
     4.1019   4.5315   5.6342   6.7544   7.0931   7.3761   7.6259   8.2799

     occupation numbers 
     1.0000   1.0000   1.0000   1.0000   1.0000   1.0000   1.0000   1.0000
     0.0000   0.0000   0.0000   0.0000   0.0000   0.0000   0.0000   0.0000

          k = 0.3333 0.1925 0.0000 (  5544 PWs)   bands (ev):

   -17.5667 -17.4206 -10.2484 -10.1714  -6.3898  -6.3601  -5.6611  -4.7292
     4.0738   4.5862   6.0649   6.5352   7.1178   7.2906   7.6843   8.7866

     occupation numbers 
     1.0000   1.0000   1.0000   1.0000   1.0000   1.0000   1.0000   1.0000
     0.0000   0.0000   0.0000   0.0000   0.0000   0.0000   0.0000   0.0000

          k = 0.3333 0.2887 0.0000 (  5525 PWs)   bands (ev):

   -16.7820 -16.6444 -11.2500 -11.1658  -7.1810  -7.1434  -4.7775  -3.9148
     2.8881   3.4046   7.1421   7.5563   7.7297   7.8918   8.8008   9.8885

     occupation numbers 
     1.0000   1.0000   1.0000   1.0000   1.0000   1.0000   1.0000   1.0000
     0.0000   0.0000   0.0000   0.0000   0.0000   0.0000   0.0000   0.0000

          k = 0.3333 0.3849 0.0000 (  5530 PWs)   bands (ev):

   -15.7167 -15.5912 -12.0225 -11.9374  -8.6536  -8.6012  -3.6041  -2.8569
     1.7334   2.1581   8.6406   8.9820   9.3716   9.6156  10.3262  10.8235

     occupation numbers 
     1.0000   1.0000   1.0000   1.0000   1.0000   1.0000   1.0000   1.0000
     0.0000   0.0000   0.0000   0.0000   0.0000   0.0000   0.0000   0.0000

          k = 0.3333 0.4811 0.0000 (  5487 PWs)   bands (ev):

   -14.4374 -14.3331 -12.5625 -12.4926 -10.2582 -10.2030  -2.2274  -1.6530
     0.5783   0.8863   9.9544  10.2549  10.4541  11.3869  11.7914  12.1126

     occupation numbers 
     1.0000   1.0000   1.0000   1.0000   1.0000   1.0000   1.0000   1.0000
     0.0000   0.0000   0.0000   0.0000   0.0000   0.0000   0.0000   0.0000

          k = 0.3333 0.5774 0.0000 (  5484 PWs)   bands (ev):

   -13.2313 -13.1731 -13.1730 -13.1211 -11.1147 -11.1147  -0.9471  -0.5819
    -0.5818  -0.1912   9.8665   9.8665  11.8495  12.1630  12.1631  12.9574

     occupation numbers 
     1.0000   1.0000   1.0000   1.0000   1.0000   1.0000   1.0000   0.5008
     0.4992   0.0000   0.0000   0.0000   0.0000   0.0000   0.0000   0.0000

          k = 0.3333 0.6736 0.0000 (  5487 PWs)   bands (ev):

   -14.4374 -14.3330 -12.5626 -12.4927 -10.2582 -10.2029  -2.2274  -1.6530
     0.5783   0.8863   9.9544  10.2549  10.4541  11.3870  11.7914  12.1124

     occupation numbers 
     1.0000   1.0000   1.0000   1.0000   1.0000   1.0000   1.0000   1.0000
     0.0000   0.0000   0.0000   0.0000   0.0000   0.0000   0.0000   0.0000

          k = 0.3333-0.3849 0.0000 (  5530 PWs)   bands (ev):

   -15.7167 -15.5912 -12.0225 -11.9374  -8.6536  -8.6012  -3.6040  -2.8569
     1.7333   2.1580   8.6406   8.9820   9.3716   9.6156  10.3261  10.8235

     occupation numbers 
     1.0000   1.0000   1.0000   1.0000   1.0000   1.0000   1.0000   1.0000
     0.0000   0.0000   0.0000   0.0000   0.0000   0.0000   0.0000   0.0000

          k = 0.3333-0.2887 0.0000 (  5525 PWs)   bands (ev):

   -16.7819 -16.6444 -11.2501 -11.1659  -7.1810  -7.1434  -4.7775  -3.9148
     2.8881   3.4046   7.1421   7.5563   7.7297   7.8918   8.8008   9.8885

     occupation numbers 
     1.0000   1.0000   1.0000   1.0000   1.0000   1.0000   1.0000   1.0000
     0.0000   0.0000   0.0000   0.0000   0.0000   0.0000   0.0000   0.0000

          k = 0.3333-0.1925 0.0000 (  5544 PWs)   bands (ev):

   -17.5667 -17.4206 -10.2485 -10.1715  -6.3897  -6.3601  -5.6610  -4.7292
     4.0738   4.5862   6.0649   6.5352   7.1178   7.2906   7.6843   8.7866

     occupation numbers 
     1.0000   1.0000   1.0000   1.0000   1.0000   1.0000   1.0000   1.0000
     0.0000   0.0000   0.0000   0.0000   0.0000   0.0000   0.0000   0.0000

          k = 0.3333-0.0962 0.0000 (  5525 PWs)   bands (ev):

   -18.0447 -17.8938  -9.1227  -9.0589  -6.5441  -6.5102  -6.2066  -5.2369
     5.1261   5.4117   5.5497   5.8921   6.9884   7.9434   8.0672   8.1544

     occupation numbers 
     1.0000   1.0000   1.0000   1.0000   1.0000   1.0000   1.0000   1.0000
     0.0000   0.0000   0.0000   0.0000   0.0000   0.0000   0.0000   0.0000

          k = 0.3333 0.0000 0.0000 (  5510 PWs)   bands (ev):

   -18.2052 -18.0528  -8.3701  -8.3384  -7.0068  -6.9833  -6.3908  -5.4091
     5.1977   5.6253   5.6567   5.9311   6.7644   7.8727   8.1220   9.4501

     occupation numbers 
     1.0000   1.0000   1.0000   1.0000   1.0000   1.0000   1.0000   1.0000
     0.0000   0.0000   0.0000   0.0000   0.0000   0.0000   0.0000   0.0000

          k = 0.3333 0.0962 0.0000 (  5525 PWs)   bands (ev):

   -18.0447 -17.8938  -9.1227  -9.0589  -6.5441  -6.5102  -6.2066  -5.2369
     5.1261   5.4117   5.5497   5.8921   6.9884   7.9434   8.0671   8.1544

     occupation numbers 
     1.0000   1.0000   1.0000   1.0000   1.0000   1.0000   1.0000   1.0000
     0.0000   0.0000   0.0000   0.0000   0.0000   0.0000   0.0000   0.0000

          k = 0.4167 0.2406 0.0000 (  5530 PWs)   bands (ev):

   -16.1678 -16.0379 -12.3509 -12.2571  -6.8636  -6.8330  -4.1605  -3.4011
     1.9263   2.4858   6.8433   7.0595   8.0370   8.5046   9.6963  10.7858

     occupation numbers 
     1.0000   1.0000   1.0000   1.0000   1.0000   1.0000   1.0000   1.0000
     0.0000   0.0000   0.0000   0.0000   0.0000   0.0000   0.0000   0.0000

          k = 0.4167 0.3368 0.0000 (  5533 PWs)   bands (ev):

   -15.2977 -15.1836 -13.1882 -13.0951  -7.5108  -7.4714  -3.3411  -2.7705
     1.1752   1.6195   7.4840   7.7216   9.3005   9.7433  11.0061  11.5992

     occupation numbers 
     1.0000   1.0000   1.0000   1.0000   1.0000   1.0000   1.0000   1.0000
     0.0000   0.0000   0.0000   0.0000   0.0000   0.0000   0.0000   0.0000

          k = 0.4167 0.4330 0.0000 (  5518 PWs)   bands (ev):

   -14.4622 -14.3998 -13.4239 -13.3808  -8.8401  -8.7851  -2.5595  -2.1678
     0.8124   0.9969   9.2242   9.5355  10.6730  10.8549  10.9242  10.9794

     occupation numbers 
     1.0000   1.0000   1.0000   1.0000   1.0000   1.0000   1.0000   1.0000
     0.0000   0.0000   0.0000   0.0000   0.0000   0.0000   0.0000   0.0000

          k = 0.4167 0.5292 0.0000 (  5487 PWs)   bands (ev):

   -14.4374 -14.3331 -12.5625 -12.4926 -10.2582 -10.2030  -2.2274  -1.6530
     0.5783   0.8863   9.9544  10.2549  10.4541  11.3869  11.7914  12.1124

     occupation numbers 
     1.0000   1.0000   1.0000   1.0000   1.0000   1.0000   1.0000   1.0000
     0.0000   0.0000   0.0000   0.0000   0.0000   0.0000   0.0000   0.0000

          k = 0.4167 0.6255 0.0000 (  5487 PWs)   bands (ev):

   -14.4374 -14.3330 -12.5626 -12.4927 -10.2582 -10.2029  -2.2274  -1.6530
     0.5783   0.8863   9.9544  10.2549  10.4541  11.3870  11.7914  12.1125

     occupation numbers 
     1.0000   1.0000   1.0000   1.0000   1.0000   1.0000   1.0000   1.0000
     0.0000   0.0000   0.0000   0.0000   0.0000   0.0000   0.0000   0.0000

          k = 0.4167 0.7217 0.0000 (  5518 PWs)   bands (ev):

   -14.4622 -14.3998 -13.4239 -13.3808  -8.8401  -8.7851  -2.5595  -2.1678
     0.8124   0.9968   9.2242   9.5355  10.6730  10.8549  10.9242  10.9794

     occupation numbers 
     1.0000   1.0000   1.0000   1.0000   1.0000   1.0000   1.0000   1.0000
     0.0000   0.0000   0.0000   0.0000   0.0000   0.0000   0.0000   0.0000

          k = 0.4167-0.3368 0.0000 (  5533 PWs)   bands (ev):

   -15.2977 -15.1836 -13.1882 -13.0952  -7.5108  -7.4714  -3.3410  -2.7704
     1.1752   1.6194   7.4841   7.7216   9.3005   9.7433  11.0061  11.5992

     occupation numbers 
     1.0000   1.0000   1.0000   1.0000   1.0000   1.0000   1.0000   1.0000
     0.0000   0.0000   0.0000   0.0000   0.0000   0.0000   0.0000   0.0000

          k = 0.4167-0.2406 0.0000 (  5530 PWs)   bands (ev):

   -16.1678 -16.0379 -12.3509 -12.2571  -6.8636  -6.8329  -4.1605  -3.4011
     1.9263   2.4858   6.8433   7.0595   8.0370   8.5046   9.6962  10.7834

     occupation numbers 
     1.0000   1.0000   1.0000   1.0000   1.0000   1.0000   1.0000   1.0000
     0.0000   0.0000   0.0000   0.0000   0.0000   0.0000   0.0000   0.0000

          k = 0.4167-0.1443 0.0000 (  5525 PWs)   bands (ev):

   -16.7819 -16.6444 -11.2501 -11.1659  -7.1810  -7.1434  -4.7775  -3.9148
     2.8881   3.4046   7.1421   7.5563   7.7297   7.8918   8.8008   9.8885

     occupation numbers 
     1.0000   1.0000   1.0000   1.0000   1.0000   1.0000   1.0000   1.0000
     0.0000   0.0000   0.0000   0.0000   0.0000   0.0000   0.0000   0.0000

          k = 0.4167-0.0481 0.0000 (  5515 PWs)   bands (ev):

   -17.0951 -16.9542 -10.1069 -10.0465  -8.0710  -8.0293  -5.1025  -4.1962
     3.6713   4.0277   6.7210   7.1405   8.3389   9.3861   9.4039   9.6286

     occupation numbers 
     1.0000   1.0000   1.0000   1.0000   1.0000   1.0000   1.0000   1.0000
     0.0000   0.0000   0.0000   0.0000   0.0000   0.0000   0.0000   0.0000

          k = 0.4167 0.0481 0.0000 (  5515 PWs)   bands (ev):

   -17.0951 -16.9542 -10.1068 -10.0465  -8.0710  -8.0293  -5.1025  -4.1962
     3.6714   4.0277   6.7210   7.1405   8.3389   9.3861   9.4039   9.6286

     occupation numbers 
     1.0000   1.0000   1.0000   1.0000   1.0000   1.0000   1.0000   1.0000
     0.0000   0.0000   0.0000   0.0000   0.0000   0.0000   0.0000   0.0000

          k = 0.4167 0.1443 0.0000 (  5525 PWs)   bands (ev):

   -16.7820 -16.6444 -11.2500 -11.1658  -7.1810  -7.1434  -4.7775  -3.9148
     2.8881   3.4046   7.1421   7.5563   7.7297   7.8918   8.8008   9.8885

     occupation numbers 
     1.0000   1.0000   1.0000   1.0000   1.0000   1.0000   1.0000   1.0000
     0.0000   0.0000   0.0000   0.0000   0.0000   0.0000   0.0000   0.0000

          k =-0.5000-0.2887 0.0000 (  5540 PWs)   bands (ev):

   -14.8841 -14.8187 -13.8229 -13.7734  -7.0265  -6.9956  -3.1589  -2.7607
     0.9424   1.3242   6.7564   6.9844  10.3080  10.3854  10.7997  10.8682

     occupation numbers 
     1.0000   1.0000   1.0000   1.0000   1.0000   1.0000   1.0000   1.0000
     0.0000   0.0000   0.0000   0.0000   0.0000   0.0000   0.0000   0.0000

          k =-0.5000-0.1925 0.0000 (  5533 PWs)   bands (ev):

   -15.2977 -15.1836 -13.1882 -13.0951  -7.5108  -7.4714  -3.3411  -2.7705
     1.1752   1.6195   7.4840   7.7216   9.3005   9.7433  11.0061  11.5992

     occupation numbers 
     1.0000   1.0000   1.0000   1.0000   1.0000   1.0000   1.0000   1.0000
     0.0000   0.0000   0.0000   0.0000   0.0000   0.0000   0.0000   0.0000

          k =-0.5000-0.0962 0.0000 (  5530 PWs)   bands (ev):

   -15.7167 -15.5912 -12.0225 -11.9374  -8.6536  -8.6012  -3.6041  -2.8569
     1.7334   2.1581   8.6406   8.9820   9.3716   9.6156  10.3261  10.8234

     occupation numbers 
     1.0000   1.0000   1.0000   1.0000   1.0000   1.0000   1.0000   1.0000
     0.0000   0.0000   0.0000   0.0000   0.0000   0.0000   0.0000   0.0000

          k =-0.5000 0.0000 0.0000 (  5486 PWs)   bands (ev):

   -15.8646 -15.7368 -11.1363 -11.0922  -9.5394  -9.5068  -3.7113  -2.9096
     2.0672   2.4072   8.4300   8.7337  10.0303  10.4205  10.9639  11.5140

     occupation numbers 
     1.0000   1.0000   1.0000   1.0000   1.0000   1.0000   1.0000   1.0000
     0.0000   0.0000   0.0000   0.0000   0.0000   0.0000   0.0000   0.0000

          k =-0.5000 0.0962 0.0000 (  5530 PWs)   bands (ev):

   -15.7167 -15.5912 -12.0225 -11.9374  -8.6536  -8.6012  -3.6040  -2.8569
     1.7333   2.1580   8.6406   8.9820   9.3716   9.6156  10.3261  10.8234

     occupation numbers 
     1.0000   1.0000   1.0000   1.0000   1.0000   1.0000   1.0000   1.0000
     0.0000   0.0000   0.0000   0.0000   0.0000   0.0000   0.0000   0.0000

          k =-0.5000 0.1925 0.0000 (  5533 PWs)   bands (ev):

   -15.2977 -15.1836 -13.1882 -13.0952  -7.5108  -7.4714  -3.3410  -2.7704
     1.1752   1.6194   7.4841   7.7216   9.3005   9.7433  11.0061  11.5992

     occupation numbers 
     1.0000   1.0000   1.0000   1.0000   1.0000   1.0000   1.0000   1.0000
     0.0000   0.0000   0.0000   0.0000   0.0000   0.0000   0.0000   0.0000

          k =-0.5000-0.8660 0.0000 (  5540 PWs)   bands (ev):

   -14.8841 -14.8187 -13.8230 -13.7734  -7.0264  -6.9955  -3.1589  -2.7607
     0.9423   1.3241   6.7565   6.9844  10.3080  10.3854  10.7997  10.8683

     occupation numbers 
     1.0000   1.0000   1.0000   1.0000   1.0000   1.0000   1.0000   1.0000
     0.0000   0.0000   0.0000   0.0000   0.0000   0.0000   0.0000   0.0000

     the Fermi energy is    -0.5723 ev
     (compare with:    -0.5037 eV, computed in scf)

     Writing all to output data dir ./tmp_3/C2L_AB_PBE_vdW.save/

     init_run     :      8.96s CPU      8.98s WALL (       1 calls)
     electrons    :     13.88s CPU     14.41s WALL (       1 calls)

     Called by init_run:
     wfcinit      :      0.00s CPU      0.00s WALL (       1 calls)
     wfcinit:atom :      0.01s CPU      0.01s WALL (      74 calls)
     wfcinit:wfcr :      0.57s CPU      0.58s WALL (      74 calls)
     potinit      :      8.65s CPU      8.66s WALL (       1 calls)
     hinit0       :      0.30s CPU      0.30s WALL (       1 calls)

     Called by electrons:
     c_bands      :     13.88s CPU     14.41s WALL (       1 calls)
     v_of_rho     :      8.64s CPU      8.65s WALL (       1 calls)
     v_h          :      0.00s CPU      0.00s WALL (       1 calls)
     v_xc         :      8.64s CPU      8.65s WALL (       1 calls)
     vdW_kernel   :      8.60s CPU      8.61s WALL (       1 calls)

     Called by c_bands:
     init_us_2    :      0.01s CPU      0.01s WALL (      74 calls)
     init_us_2:cp :      0.01s CPU      0.01s WALL (      74 calls)
     cegterg      :     13.22s CPU     13.72s WALL (     142 calls)

     Called by sum_band:

     Called by *egterg:
     cdiaghg      :      1.55s CPU      1.58s WALL (    2261 calls)
     cegterg:over :      1.14s CPU      1.16s WALL (    2187 calls)
     cegterg:upda :      1.35s CPU      1.76s WALL (    2187 calls)
     cegterg:last :      1.32s CPU      1.22s WALL (     981 calls)
     cdiaghg:chol :      0.13s CPU      0.13s WALL (    2261 calls)
     cdiaghg:inve :      0.04s CPU      0.04s WALL (    2261 calls)
     cdiaghg:para :      0.21s CPU      0.22s WALL (    4522 calls)
     h_psi        :      8.05s CPU      8.16s WALL (    2403 calls)
     g_psi        :      0.06s CPU      0.07s WALL (    2187 calls)

     Called by h_psi:
     h_psi:calbec :      0.57s CPU      0.59s WALL (    2403 calls)
     vloc_psi     :      6.79s CPU      6.97s WALL (    2403 calls)
     add_vuspsi   :      0.64s CPU      0.54s WALL (    2403 calls)

     General routines
     calbec       :      0.57s CPU      0.58s WALL (    2403 calls)
     fft          :      0.28s CPU      0.28s WALL (      61 calls)
     fftw         :      6.18s CPU      6.32s WALL (   34422 calls)
     davcio       :      0.00s CPU      0.01s WALL (     148 calls)

     Parallel routines

     PWSCF        :     23.07s CPU     23.68s WALL


   This run was terminated on:  19:44:32  13Apr2025            

=------------------------------------------------------------------------------=
   JOB DONE.
=------------------------------------------------------------------------------=
