
     Program PWSCF v.6.7MaX starts on 14Feb2024 at 16:47:53 

     This program is part of the open-source Quantum ESPRESSO suite
     for quantum simulation of materials; please cite
         "P. Giannozzi et al., J. Phys.:Condens. Matter 21 395502 (2009);
         "P. Giannozzi et al., J. Phys.:Condens. Matter 29 465901 (2017);
          URL http://www.quantum-espresso.org", 
     in publications or presentations arising from this work. More details at
     http://www.quantum-espresso.org/quote

     Parallel version (MPI), running on     1 processors

     MPI processes distributed on     1 nodes
     Waiting for input...
     Reading input from standard input

     Current dimensions of program PWSCF are:
     Max number of different atomic species (ntypx) = 10
     Max number of k-points (npk) =  40000
     Max angular momentum in pseudopotentials (lmaxx) =  3
     Message from routine read_pp_mesh:
     mesh size missing, using the one in header

     Subspace diagonalization in iterative solution of the eigenvalue problem:
     a serial algorithm will be used


     G-vector sticks info
     --------------------
     sticks:   dense  smooth     PW     G-vecs:    dense   smooth      PW
     Sum         361     361    109                32597    32597    5681



     bravais-lattice index     =            4
     lattice parameter (alat)  =       4.6350  a.u.
     unit-cell volume          =     517.4056 (a.u.)^3
     number of atoms/cell      =            2
     number of atomic types    =            1
     number of electrons       =         8.00
     number of Kohn-Sham states=            8
     kinetic-energy cutoff     =      60.0000  Ry
     charge density cutoff     =     240.0000  Ry
     scf convergence threshold =      1.0E-06
     mixing beta               =       0.7000
     number of iterations used =            8  plain     mixing
     energy convergence thresh.=      1.0E-04
     force convergence thresh. =      1.0E-03
     press convergence thresh. =      5.0E-01
     Exchange-correlation= PZ
                           (   1   1   0   0   0   0   0)
     nstep                     =           50


     celldm(1)=   4.635000  celldm(2)=   0.000000  celldm(3)=   6.000000
     celldm(4)=   0.000000  celldm(5)=   0.000000  celldm(6)=   0.000000

     crystal axes: (cart. coord. in units of alat)
               a(1) = (   1.000000   0.000000   0.000000 )  
               a(2) = (  -0.500000   0.866025   0.000000 )  
               a(3) = (   0.000000   0.000000   6.000000 )  

     reciprocal axes: (cart. coord. in units 2 pi/alat)
               b(1) = (  1.000000  0.577350 -0.000000 )  
               b(2) = (  0.000000  1.154701  0.000000 )  
               b(3) = (  0.000000 -0.000000  0.166667 )  


     PseudoPot. # 1 for C  read from file:
     ../../../Pseudo/LDA/C.upf
     MD5 check sum: 9ef9f0a1c6c947210c7947280cfb54e2
     Pseudo is Norm-conserving + core correction, Zval =  4.0
     Generated using ONCVPSP code by D. R. Hamann
     Using radial grid of 1230 points,  4 beta functions with: 
                l(1) =   0
                l(2) =   0
                l(3) =   1
                l(4) =   1

     atomic species   valence    mass     pseudopotential
        C              4.00    12.01100     C ( 1.00)

     24 Sym. Ops., with inversion, found (12 have fractional translation)


                                    s                        frac. trans.

      isym =  1     identity                                     

 cryst.   s( 1) = (     1          0          0      )
                  (     0          1          0      )
                  (     0          0          1      )

 cart.    s( 1) = (  1.0000000  0.0000000  0.0000000 )
                  (  0.0000000  1.0000000  0.0000000 )
                  (  0.0000000  0.0000000  1.0000000 )


      isym =  2     180 deg rotation - cart. axis [0,0,1]        

 cryst.   s( 2) = (    -1          0          0      )    f =( -0.3333333 )
                  (     0         -1          0      )       (  0.3333333 )
                  (     0          0          1      )       (  0.0000000 )

 cart.    s( 2) = ( -1.0000000  0.0000000  0.0000000 )    f =( -0.5000000 )
                  (  0.0000000 -1.0000000  0.0000000 )       (  0.2886751 )
                  (  0.0000000  0.0000000  1.0000000 )       (  0.0000000 )


      isym =  3     180 deg rotation - cart. axis [0,1,0]        

 cryst.   s( 3) = (    -1          0          0      )
                  (     1          1          0      )
                  (     0          0         -1      )

 cart.    s( 3) = ( -1.0000000  0.0000000  0.0000000 )
                  (  0.0000000  1.0000000  0.0000000 )
                  (  0.0000000  0.0000000 -1.0000000 )


      isym =  4     180 deg rotation - cart. axis [1,0,0]        

 cryst.   s( 4) = (     1          0          0      )    f =( -0.3333333 )
                  (    -1         -1          0      )       (  0.3333333 )
                  (     0          0         -1      )       (  0.0000000 )

 cart.    s( 4) = (  1.0000000  0.0000000  0.0000000 )    f =( -0.5000000 )
                  (  0.0000000 -1.0000000  0.0000000 )       (  0.2886751 )
                  (  0.0000000  0.0000000 -1.0000000 )       (  0.0000000 )


      isym =  5      60 deg rotation - cryst. axis [0,0,1]       

 cryst.   s( 5) = (     1          1          0      )    f =( -0.3333333 )
                  (    -1          0          0      )       (  0.3333333 )
                  (     0          0          1      )       (  0.0000000 )

 cart.    s( 5) = (  0.5000000 -0.8660254  0.0000000 )    f =( -0.5000000 )
                  (  0.8660254  0.5000000  0.0000000 )       (  0.2886751 )
                  (  0.0000000  0.0000000  1.0000000 )       (  0.0000000 )


      isym =  6      60 deg rotation - cryst. axis [0,0,-1]      

 cryst.   s( 6) = (     0         -1          0      )    f =( -0.3333333 )
                  (     1          1          0      )       (  0.3333333 )
                  (     0          0          1      )       (  0.0000000 )

 cart.    s( 6) = (  0.5000000  0.8660254  0.0000000 )    f =( -0.5000000 )
                  ( -0.8660254  0.5000000  0.0000000 )       (  0.2886751 )
                  (  0.0000000  0.0000000  1.0000000 )       (  0.0000000 )


      isym =  7     120 deg rotation - cryst. axis [0,0,1]       

 cryst.   s( 7) = (     0          1          0      )
                  (    -1         -1          0      )
                  (     0          0          1      )

 cart.    s( 7) = ( -0.5000000 -0.8660254  0.0000000 )
                  (  0.8660254 -0.5000000  0.0000000 )
                  (  0.0000000  0.0000000  1.0000000 )


      isym =  8     120 deg rotation - cryst. axis [0,0,-1]      

 cryst.   s( 8) = (    -1         -1          0      )
                  (     1          0          0      )
                  (     0          0          1      )

 cart.    s( 8) = ( -0.5000000  0.8660254  0.0000000 )
                  ( -0.8660254 -0.5000000  0.0000000 )
                  (  0.0000000  0.0000000  1.0000000 )


      isym =  9     180 deg rotation - cryst. axis [1,-1,0]      

 cryst.   s( 9) = (     0         -1          0      )
                  (    -1          0          0      )
                  (     0          0         -1      )

 cart.    s( 9) = (  0.5000000 -0.8660254  0.0000000 )
                  ( -0.8660254 -0.5000000  0.0000000 )
                  (  0.0000000  0.0000000 -1.0000000 )


      isym = 10     180 deg rotation - cryst. axis [2,1,0]       

 cryst.   s(10) = (     1          1          0      )
                  (     0         -1          0      )
                  (     0          0         -1      )

 cart.    s(10) = (  0.5000000  0.8660254  0.0000000 )
                  (  0.8660254 -0.5000000  0.0000000 )
                  (  0.0000000  0.0000000 -1.0000000 )


      isym = 11     180 deg rotation - cryst. axis [0,1,0]       

 cryst.   s(11) = (    -1         -1          0      )    f =( -0.3333333 )
                  (     0          1          0      )       (  0.3333333 )
                  (     0          0         -1      )       (  0.0000000 )

 cart.    s(11) = ( -0.5000000 -0.8660254  0.0000000 )    f =( -0.5000000 )
                  ( -0.8660254  0.5000000  0.0000000 )       (  0.2886751 )
                  (  0.0000000  0.0000000 -1.0000000 )       (  0.0000000 )


      isym = 12     180 deg rotation - cryst. axis [1,1,0]       

 cryst.   s(12) = (     0          1          0      )    f =( -0.3333333 )
                  (     1          0          0      )       (  0.3333333 )
                  (     0          0         -1      )       (  0.0000000 )

 cart.    s(12) = ( -0.5000000  0.8660254  0.0000000 )    f =( -0.5000000 )
                  (  0.8660254  0.5000000  0.0000000 )       (  0.2886751 )
                  (  0.0000000  0.0000000 -1.0000000 )       (  0.0000000 )


      isym = 13     inversion                                    

 cryst.   s(13) = (    -1          0          0      )    f =( -0.3333333 )
                  (     0         -1          0      )       (  0.3333333 )
                  (     0          0         -1      )       (  0.0000000 )

 cart.    s(13) = ( -1.0000000  0.0000000  0.0000000 )    f =( -0.5000000 )
                  (  0.0000000 -1.0000000  0.0000000 )       (  0.2886751 )
                  (  0.0000000  0.0000000 -1.0000000 )       (  0.0000000 )


      isym = 14     inv. 180 deg rotation - cart. axis [0,0,1]   

 cryst.   s(14) = (     1          0          0      )
                  (     0          1          0      )
                  (     0          0         -1      )

 cart.    s(14) = (  1.0000000  0.0000000  0.0000000 )
                  (  0.0000000  1.0000000  0.0000000 )
                  (  0.0000000  0.0000000 -1.0000000 )


      isym = 15     inv. 180 deg rotation - cart. axis [0,1,0]   

 cryst.   s(15) = (     1          0          0      )    f =( -0.3333333 )
                  (    -1         -1          0      )       (  0.3333333 )
                  (     0          0          1      )       (  0.0000000 )

 cart.    s(15) = (  1.0000000  0.0000000  0.0000000 )    f =( -0.5000000 )
                  (  0.0000000 -1.0000000  0.0000000 )       (  0.2886751 )
                  (  0.0000000  0.0000000  1.0000000 )       (  0.0000000 )


      isym = 16     inv. 180 deg rotation - cart. axis [1,0,0]   

 cryst.   s(16) = (    -1          0          0      )
                  (     1          1          0      )
                  (     0          0          1      )

 cart.    s(16) = ( -1.0000000  0.0000000  0.0000000 )
                  (  0.0000000  1.0000000  0.0000000 )
                  (  0.0000000  0.0000000  1.0000000 )


      isym = 17     inv.  60 deg rotation - cryst. axis [0,0,1]  

 cryst.   s(17) = (    -1         -1          0      )
                  (     1          0          0      )
                  (     0          0         -1      )

 cart.    s(17) = ( -0.5000000  0.8660254  0.0000000 )
                  ( -0.8660254 -0.5000000  0.0000000 )
                  (  0.0000000  0.0000000 -1.0000000 )


      isym = 18     inv.  60 deg rotation - cryst. axis [0,0,-1] 

 cryst.   s(18) = (     0          1          0      )
                  (    -1         -1          0      )
                  (     0          0         -1      )

 cart.    s(18) = ( -0.5000000 -0.8660254  0.0000000 )
                  (  0.8660254 -0.5000000  0.0000000 )
                  (  0.0000000  0.0000000 -1.0000000 )


      isym = 19     inv. 120 deg rotation - cryst. axis [0,0,1]  

 cryst.   s(19) = (     0         -1          0      )    f =( -0.3333333 )
                  (     1          1          0      )       (  0.3333333 )
                  (     0          0         -1      )       (  0.0000000 )

 cart.    s(19) = (  0.5000000  0.8660254  0.0000000 )    f =( -0.5000000 )
                  ( -0.8660254  0.5000000  0.0000000 )       (  0.2886751 )
                  (  0.0000000  0.0000000 -1.0000000 )       (  0.0000000 )


      isym = 20     inv. 120 deg rotation - cryst. axis [0,0,-1] 

 cryst.   s(20) = (     1          1          0      )    f =( -0.3333333 )
                  (    -1          0          0      )       (  0.3333333 )
                  (     0          0         -1      )       (  0.0000000 )

 cart.    s(20) = (  0.5000000 -0.8660254  0.0000000 )    f =( -0.5000000 )
                  (  0.8660254  0.5000000  0.0000000 )       (  0.2886751 )
                  (  0.0000000  0.0000000 -1.0000000 )       (  0.0000000 )


      isym = 21     inv. 180 deg rotation - cryst. axis [1,-1,0] 

 cryst.   s(21) = (     0          1          0      )    f =( -0.3333333 )
                  (     1          0          0      )       (  0.3333333 )
                  (     0          0          1      )       (  0.0000000 )

 cart.    s(21) = ( -0.5000000  0.8660254  0.0000000 )    f =( -0.5000000 )
                  (  0.8660254  0.5000000  0.0000000 )       (  0.2886751 )
                  (  0.0000000  0.0000000  1.0000000 )       (  0.0000000 )


      isym = 22     inv. 180 deg rotation - cryst. axis [2,1,0]  

 cryst.   s(22) = (    -1         -1          0      )    f =( -0.3333333 )
                  (     0          1          0      )       (  0.3333333 )
                  (     0          0          1      )       (  0.0000000 )

 cart.    s(22) = ( -0.5000000 -0.8660254  0.0000000 )    f =( -0.5000000 )
                  ( -0.8660254  0.5000000  0.0000000 )       (  0.2886751 )
                  (  0.0000000  0.0000000  1.0000000 )       (  0.0000000 )


      isym = 23     inv. 180 deg rotation - cryst. axis [0,1,0]  

 cryst.   s(23) = (     1          1          0      )
                  (     0         -1          0      )
                  (     0          0          1      )

 cart.    s(23) = (  0.5000000  0.8660254  0.0000000 )
                  (  0.8660254 -0.5000000  0.0000000 )
                  (  0.0000000  0.0000000  1.0000000 )


      isym = 24     inv. 180 deg rotation - cryst. axis [1,1,0]  

 cryst.   s(24) = (     0         -1          0      )
                  (    -1          0          0      )
                  (     0          0          1      )

 cart.    s(24) = (  0.5000000 -0.8660254  0.0000000 )
                  ( -0.8660254 -0.5000000  0.0000000 )
                  (  0.0000000  0.0000000  1.0000000 )


     point group D_6h(6/mmm)
     there are 12 classes
     the character table:

       E     2C6   2C3   C2    3C2'  3C2'' i     2S3   2S6   s_h   3s_d  3s_v 
A_1g   1.00  1.00  1.00  1.00  1.00  1.00  1.00  1.00  1.00  1.00  1.00  1.00
A_2g   1.00  1.00  1.00  1.00 -1.00 -1.00  1.00  1.00  1.00  1.00 -1.00 -1.00
B_1g   1.00 -1.00  1.00 -1.00  1.00 -1.00  1.00 -1.00  1.00 -1.00  1.00 -1.00
B_2g   1.00 -1.00  1.00 -1.00 -1.00  1.00  1.00 -1.00  1.00 -1.00 -1.00  1.00
E_1g   2.00  1.00 -1.00 -2.00  0.00  0.00  2.00  1.00 -1.00 -2.00  0.00  0.00
E_2g   2.00 -1.00 -1.00  2.00  0.00  0.00  2.00 -1.00 -1.00  2.00  0.00  0.00
A_1u   1.00  1.00  1.00  1.00  1.00  1.00 -1.00 -1.00 -1.00 -1.00 -1.00 -1.00
A_2u   1.00  1.00  1.00  1.00 -1.00 -1.00 -1.00 -1.00 -1.00 -1.00  1.00  1.00
B_1u   1.00 -1.00  1.00 -1.00  1.00 -1.00 -1.00  1.00 -1.00  1.00 -1.00  1.00
B_2u   1.00 -1.00  1.00 -1.00 -1.00  1.00 -1.00  1.00 -1.00  1.00  1.00 -1.00
E_1u   2.00  1.00 -1.00 -2.00  0.00  0.00 -2.00 -1.00  1.00  2.00  0.00  0.00
E_2u   2.00 -1.00 -1.00  2.00  0.00  0.00 -2.00  1.00  1.00 -2.00  0.00  0.00

     the symmetry operations in each class and the name of the first element:

     E        1
          identity                                               
     2C6      5    6
           60 deg rotation - cryst. axis [0,0,1]                 
     2C3      7    8
          120 deg rotation - cryst. axis [0,0,1]                 
     C2       2
          180 deg rotation - cart. axis [0,0,1]                  
     3C2'     4   12   11
          180 deg rotation - cart. axis [1,0,0]                  
     3C2''    3    9   10
          180 deg rotation - cart. axis [0,1,0]                  
     i       13
          inversion                                              
     2S3     17   18
          inv.  60 deg rotation - cryst. axis [0,0,1]            
     2S6     19   20
          inv. 120 deg rotation - cryst. axis [0,0,1]            
     s_h     14
          inv. 180 deg rotation - cart. axis [0,0,1]             
     3s_d    16   24   23
          inv. 180 deg rotation - cart. axis [1,0,0]             
     3s_v    15   21   22
          inv. 180 deg rotation - cart. axis [0,1,0]             

   Cartesian axes

     site n.     atom                  positions (alat units)
         1           C   tau(   1) = (   0.0000000   0.0000000   0.0000000  )
         2           C   tau(   2) = (  -0.0000000   0.5773503   0.0000000  )

   Crystallographic axes

     site n.     atom                  positions (cryst. coord.)
         1           C   tau(   1) = (  0.0000000  0.0000000  0.0000000  )
         2           C   tau(   2) = (  0.3333333  0.6666667  0.0000000  )

     number of k points=    19  Marzari-Vanderbilt smearing, width (Ry)=  0.0100
                       cart. coord. in units 2pi/alat
        k(    1) = (   0.0000000   0.0000000   0.0000000), wk =   0.0138889
        k(    2) = (   0.0000000   0.0962250   0.0000000), wk =   0.0833333
        k(    3) = (   0.0000000   0.1924501   0.0000000), wk =   0.0833333
        k(    4) = (   0.0000000   0.2886751   0.0000000), wk =   0.0833333
        k(    5) = (   0.0000000   0.3849002   0.0000000), wk =   0.0833333
        k(    6) = (   0.0000000   0.4811252   0.0000000), wk =   0.0833333
        k(    7) = (   0.0000000  -0.5773503   0.0000000), wk =   0.0416667
        k(    8) = (   0.0833333   0.1443376   0.0000000), wk =   0.0833333
        k(    9) = (   0.0833333   0.2405626   0.0000000), wk =   0.1666667
        k(   10) = (   0.0833333   0.3367877   0.0000000), wk =   0.1666667
        k(   11) = (   0.0833333   0.4330127   0.0000000), wk =   0.1666667
        k(   12) = (   0.0833333   0.5292377   0.0000000), wk =   0.1666667
        k(   13) = (   0.1666667   0.2886751   0.0000000), wk =   0.0833333
        k(   14) = (   0.1666667   0.3849002   0.0000000), wk =   0.1666667
        k(   15) = (   0.1666667   0.4811252   0.0000000), wk =   0.1666667
        k(   16) = (   0.1666667   0.5773503   0.0000000), wk =   0.0833333
        k(   17) = (   0.2500000   0.4330127   0.0000000), wk =   0.0833333
        k(   18) = (   0.2500000   0.5292377   0.0000000), wk =   0.1666667
        k(   19) = (   0.3333333   0.5773503   0.0000000), wk =   0.0277778

                       cryst. coord.
        k(    1) = (   0.0000000   0.0000000   0.0000000), wk =   0.0138889
        k(    2) = (   0.0000000   0.0833333   0.0000000), wk =   0.0833333
        k(    3) = (   0.0000000   0.1666667   0.0000000), wk =   0.0833333
        k(    4) = (   0.0000000   0.2500000   0.0000000), wk =   0.0833333
        k(    5) = (   0.0000000   0.3333333   0.0000000), wk =   0.0833333
        k(    6) = (   0.0000000   0.4166667   0.0000000), wk =   0.0833333
        k(    7) = (   0.0000000  -0.5000000   0.0000000), wk =   0.0416667
        k(    8) = (   0.0833333   0.0833333   0.0000000), wk =   0.0833333
        k(    9) = (   0.0833333   0.1666667   0.0000000), wk =   0.1666667
        k(   10) = (   0.0833333   0.2500000   0.0000000), wk =   0.1666667
        k(   11) = (   0.0833333   0.3333333   0.0000000), wk =   0.1666667
        k(   12) = (   0.0833333   0.4166667   0.0000000), wk =   0.1666667
        k(   13) = (   0.1666667   0.1666667   0.0000000), wk =   0.0833333
        k(   14) = (   0.1666667   0.2500000   0.0000000), wk =   0.1666667
        k(   15) = (   0.1666667   0.3333333   0.0000000), wk =   0.1666667
        k(   16) = (   0.1666667   0.4166667   0.0000000), wk =   0.0833333
        k(   17) = (   0.2500000   0.2500000   0.0000000), wk =   0.0833333
        k(   18) = (   0.2500000   0.3333333   0.0000000), wk =   0.1666667
        k(   19) = (   0.3333333   0.3333333   0.0000000), wk =   0.0277778

     Dense  grid:    32597 G-vectors     FFT dimensions: (  24,  24, 144)

     Dynamical RAM for                 wfc:       0.50 MB

     Dynamical RAM for     wfc (w. buffer):       9.91 MB

     Dynamical RAM for           str. fact:       0.50 MB

     Dynamical RAM for           local pot:       0.00 MB

     Dynamical RAM for          nlocal pot:       0.99 MB

     Dynamical RAM for                qrad:       0.71 MB

     Dynamical RAM for          rho,v,vnew:       3.39 MB

     Dynamical RAM for               rhoin:       1.13 MB

     Dynamical RAM for            rho*nmix:       7.96 MB

     Dynamical RAM for           G-vectors:       2.11 MB

     Dynamical RAM for          h,s,v(r/c):       0.01 MB

     Dynamical RAM for          <psi|beta>:       0.00 MB

     Dynamical RAM for                 psi:       0.99 MB

     Dynamical RAM for                hpsi:       0.99 MB

     Dynamical RAM for      wfcinit/wfcrot:       0.99 MB

     Estimated static dynamical RAM per process >      30.87 MB

     Estimated max dynamical RAM per process >      32.86 MB

     Initial potential from superposition of free atoms

     starting charge    7.99992, renormalised to    8.00000

     negative rho (up, down):  2.379E-05 0.000E+00
     Starting wfcs are    8 randomized atomic wfcs

     total cpu time spent up to now is        1.3 secs

     Self-consistent Calculation

     iteration #  1     ecut=    60.00 Ry     beta= 0.70
     Davidson diagonalization with overlap
     ethr =  1.00E-02,  avg # of iterations =  6.4

     negative rho (up, down):  5.527E-07 0.000E+00

     total cpu time spent up to now is        2.6 secs

     total energy              =     -24.08116203 Ry
     estimated scf accuracy    <       0.21160599 Ry

     iteration #  2     ecut=    60.00 Ry     beta= 0.70
     Davidson diagonalization with overlap
     ethr =  2.65E-03,  avg # of iterations =  4.4

     negative rho (up, down):  2.688E-08 0.000E+00

     total cpu time spent up to now is        4.3 secs

     total energy              =     -24.11486804 Ry
     estimated scf accuracy    <       0.00219989 Ry

     iteration #  3     ecut=    60.00 Ry     beta= 0.70
     Davidson diagonalization with overlap
     ethr =  2.75E-05,  avg # of iterations =  9.3

     total cpu time spent up to now is        6.2 secs

     total energy              =     -24.11530153 Ry
     estimated scf accuracy    <       0.00013803 Ry

     iteration #  4     ecut=    60.00 Ry     beta= 0.70
     Davidson diagonalization with overlap
     ethr =  1.73E-06,  avg # of iterations =  5.3

     total cpu time spent up to now is        7.2 secs

     total energy              =     -24.11531441 Ry
     estimated scf accuracy    <       0.00000286 Ry

     iteration #  5     ecut=    60.00 Ry     beta= 0.70
     Davidson diagonalization with overlap
     ethr =  3.58E-08,  avg # of iterations =  2.8

     total cpu time spent up to now is        8.9 secs

     End of self-consistent calculation

          k = 0.0000 0.0000 0.0000 (  4053 PWs)   bands (ev):

   -21.3550  -9.6641  -4.9077  -4.9077   1.4501   2.5070   3.0005   4.9283

     occupation numbers 
     1.0000   1.0000   1.0000   1.0000   0.0000   0.0000   0.0000   0.0000

          k = 0.0000 0.0962 0.0000 (  4064 PWs)   bands (ev):

   -21.1906  -9.4642  -5.5521  -5.2546   1.6738   2.7334   3.2298   5.1529

     occupation numbers 
     1.0000   1.0000   1.0000   1.0000   0.0000   0.0000   0.0000   0.0000

          k = 0.0000 0.1925 0.0000 (  4070 PWs)   bands (ev):

   -20.6989  -8.8711  -7.1804  -6.0659   2.3449   3.4102   3.9178   5.8228

     occupation numbers 
     1.0000   1.0000   1.0000   1.0000   0.0000   0.0000   0.0000   0.0000

          k = 0.0000 0.2887 0.0000 (  4058 PWs)   bands (ev):

   -19.8852  -9.2740  -7.9030  -6.9649   3.4612   4.5075   5.0631   5.4470

     occupation numbers 
     1.0000   1.0000   1.0000   1.0000   0.0000   0.0000   0.0000   0.0000

          k = 0.0000 0.3849 0.0000 (  4084 PWs)   bands (ev):

   -18.7612 -11.4804  -7.7140  -6.6115   3.0506   5.0105   6.0868   6.1326

     occupation numbers 
     1.0000   1.0000   1.0000   1.0000   0.0000   0.0000   0.0000   0.0000

          k = 0.0000 0.4811 0.0000 (  4070 PWs)   bands (ev):

   -17.3516 -13.5935  -8.1964  -5.1569   0.8771   5.8469   7.0278   8.1173

     occupation numbers 
     1.0000   1.0000   1.0000   1.0000   0.0000   0.0000   0.0000   0.0000

          k = 0.0000-0.5774 0.0000 (  4104 PWs)   bands (ev):

   -16.0110 -15.1776  -8.3630  -4.2889  -0.2480   5.7760   9.3585   9.4429

     occupation numbers 
     1.0000   1.0000   1.0000   1.0000   0.0000   0.0000   0.0000   0.0000

          k = 0.0833 0.1443 0.0000 (  4065 PWs)   bands (ev):

   -20.8625  -9.0675  -6.5751  -5.9479   2.1215   3.1852   3.6887   5.6011

     occupation numbers 
     1.0000   1.0000   1.0000   1.0000   0.0000   0.0000   0.0000   0.0000

          k = 0.0833 0.2406 0.0000 (  4067 PWs)   bands (ev):

   -20.2099  -8.2861  -8.2765  -6.9645   3.0162   4.0832   4.6062   6.2599

     occupation numbers 
     1.0000   1.0000   1.0000   1.0000   0.0000   0.0000   0.0000   0.0000

          k = 0.0833 0.3368 0.0000 (  4065 PWs)   bands (ev):

   -19.2410 -10.3505  -7.8644  -7.1496   4.0834   4.3533   5.4525   5.9797

     occupation numbers 
     1.0000   1.0000   1.0000   1.0000   0.0000   0.0000   0.0000   0.0000

          k = 0.0833 0.4330 0.0000 (  4072 PWs)   bands (ev):

   -17.9726 -12.4815  -8.5086  -5.7428   1.8488   6.1080   6.6840   7.2123

     occupation numbers 
     1.0000   1.0000   1.0000   1.0000   0.0000   0.0000   0.0000   0.0000

          k = 0.0833 0.5292 0.0000 (  4077 PWs)   bands (ev):

   -16.4631 -14.4535  -8.8418  -4.4014   0.0436   6.5023   8.3231   9.3297

     occupation numbers 
     1.0000   1.0000   1.0000   1.0000   0.0000   0.0000   0.0000   0.0000

          k = 0.1667 0.2887 0.0000 (  4066 PWs)   bands (ev):

   -19.4021  -9.5860  -8.3546  -7.3322   4.1329   4.5509   5.1967   5.7536

     occupation numbers 
     1.0000   1.0000   1.0000   1.0000   0.0000   0.0000   0.0000   0.0000

          k = 0.1667 0.3849 0.0000 (  4070 PWs)   bands (ev):

   -18.2884 -11.3176  -9.4176  -6.0554   2.5823   5.6857   6.7213   7.3571

     occupation numbers 
     1.0000   1.0000   1.0000   1.0000   0.0000   0.0000   0.0000   0.0000

          k = 0.1667 0.4811 0.0000 (  4053 PWs)   bands (ev):

   -16.8988 -13.2493  -9.9895  -4.5990   0.6406   7.6475   8.3837   8.5315

     occupation numbers 
     1.0000   1.0000   1.0000   1.0000   0.0000   0.0000   0.0000   0.0000

          k = 0.1667 0.5774 0.0000 (  4052 PWs)   bands (ev):

   -15.5959 -14.7550 -10.1735  -3.6820  -0.4522   8.2877   9.9074  10.0364

     occupation numbers 
     1.0000   1.0000   1.0000   1.0000   0.0000   0.0000   0.0000   0.0000

          k = 0.2500 0.4330 0.0000 (  4056 PWs)   bands (ev):

   -17.0508 -12.3187 -10.9428  -4.6873   0.9555   7.4353   8.2089   9.1860

     occupation numbers 
     1.0000   1.0000   1.0000   1.0000   0.0000   0.0000   0.0000   0.0000

          k = 0.2500 0.5292 0.0000 (  4038 PWs)   bands (ev):

   -15.6016 -13.7711 -11.6456  -3.2725  -0.5860   8.8649   9.5231  10.5004

     occupation numbers 
     1.0000   1.0000   1.0000   1.0000   0.0000   0.0000   0.0000   0.0000

          k = 0.3333 0.5774 0.0000 (  4056 PWs)   bands (ev):

   -14.3564 -14.3564 -12.6255  -1.8960  -1.8960   8.5438  11.1070  11.1070

     occupation numbers 
     1.0000   1.0000   1.0000   0.5000   0.5000   0.0000   0.0000   0.0000

     the Fermi energy is    -1.8770 ev

!    total energy              =     -24.11531580 Ry
     estimated scf accuracy    <       0.00000006 Ry
     smearing contrib. (-TS)   =      -0.00009116 Ry
     internal energy E=F+TS    =     -24.11522464 Ry

     The total energy is F=E-TS. E is the sum of the following terms:
     one-electron contribution =    -154.91550332 Ry
     hartree contribution      =      78.91432030 Ry
     xc contribution           =      -8.55677771 Ry
     ewald contribution        =      60.44273608 Ry

     convergence has been achieved in   5 iterations

     Forces acting on atoms (cartesian axes, Ry/au):

     atom    1 type  1   force =     0.00000000    0.00000000    0.00000000
     atom    2 type  1   force =     0.00000000   -0.00000000    0.00000000
     The non-local contrib.  to forces
     atom    1 type  1   force =     0.00000000    0.00000000    0.00000000
     atom    2 type  1   force =     0.00000000   -0.00000000    0.00000000
     The ionic contribution  to forces
     atom    1 type  1   force =    -0.00000001    0.00000000   -0.00000000
     atom    2 type  1   force =     0.00000001   -0.00000000   -0.00000000
     The local contribution  to forces
     atom    1 type  1   force =     0.00000000   -0.00000000    0.00000000
     atom    2 type  1   force =     0.00000001   -0.00000000    0.00000000
     The core correction contribution to forces
     atom    1 type  1   force =     0.00000000   -0.00000000    0.00000000
     atom    2 type  1   force =    -0.00000000    0.00000000    0.00000000
     The Hubbard contrib.    to forces
     atom    1 type  1   force =     0.00000000    0.00000000    0.00000000
     atom    2 type  1   force =     0.00000000    0.00000000    0.00000000
     The SCF correction term to forces
     atom    1 type  1   force =     0.00000000   -0.00000000   -0.00000000
     atom    2 type  1   force =    -0.00000000    0.00000000    0.00000000

     Total force =     0.000000     Total SCF correction =     0.000000


     Computing stress (Cartesian axis) and pressure

          total   stress  (Ry/bohr**3)                   (kbar)     P=      -14.09
  -0.00010133   0.00000000   0.00000000          -14.91        0.00        0.00
   0.00000000  -0.00010133   0.00000000            0.00      -14.91        0.00
   0.00000000   0.00000000  -0.00008466            0.00        0.00      -12.45

     kinetic stress (kbar)   3111.14     -0.00      0.00
                               -0.00   3111.14      0.00
                                0.00      0.00   3410.57

     local   stress (kbar) -47077.82      0.00      0.00
                                0.00 -47077.82     -0.00
                                0.00     -0.00  48049.38

     nonloc. stress (kbar)   -377.70      0.00      0.00
                                0.00   -377.70      0.00
                                0.00      0.00   -316.49

     hartree stress (kbar)  22206.01      0.00      0.00
                                0.00  22206.01      0.00
                                0.00      0.00 -21975.66

     exc-cor stress (kbar)   -240.44      0.00      0.00
                                0.00   -240.44      0.00
                                0.00      0.00   -240.44

     corecor stress (kbar)   -469.59      0.00      0.00
                                0.00   -469.59      0.00
                                0.00      0.00   -457.45

     ewald   stress (kbar)  22833.51     -0.00     -0.00
                               -0.00  22833.51     -0.00
                               -0.00     -0.00 -28482.36

     hubbard stress (kbar)      0.00      0.00      0.00
                                0.00      0.00      0.00
                                0.00      0.00      0.00

     DFT-D   stress (kbar)      0.00      0.00      0.00
                                0.00      0.00      0.00
                                0.00      0.00      0.00

     XDM     stress (kbar)      0.00      0.00      0.00
                                0.00      0.00      0.00
                                0.00      0.00      0.00

     dft-nl  stress (kbar)      0.00      0.00      0.00
                                0.00      0.00      0.00
                                0.00      0.00      0.00

     TS-vdW  stress (kbar)      0.00      0.00      0.00
                                0.00      0.00      0.00
                                0.00      0.00      0.00



     BFGS Geometry Optimization
     Energy error            =      0.0E+00
     Gradient error          =      8.0E-26
     Cell gradient error     =      1.0E-04


     number of scf cycles    =   1
     number of bfgs steps    =   0

     enthalpy new            =     -24.1153158008 Ry

     new trust radius        =       0.0115249530 bohr
     new conv_thr            =       0.0000010000 Ry

     new unit-cell volume =    513.69780 a.u.^3 (    76.12216 Ang^3 )
     density =      0.52402 g/cm^3

CELL_PARAMETERS (alat=  4.63500000)
   0.997466659   0.000000000   0.000000000
  -0.498733330   0.863831466   0.000000000
   0.000000000   0.000000000   5.987300909

ATOMIC_POSITIONS (crystal)
C             0.0000000000        0.0000000000        0.0000000000
C             0.3333333330        0.6666666670        0.0000000000



     Writing output data file ./tmp/graphene.save/
     NEW-OLD atomic charge density approx. for the potential

     negative rho (up, down):  1.031E-06 0.000E+00
     extrapolated charge    7.94226, renormalised to    8.00000

     total cpu time spent up to now is       15.0 secs

     Self-consistent Calculation

     iteration #  1     ecut=    60.00 Ry     beta= 0.70
     Davidson diagonalization with overlap
     c_bands:  2 eigenvalues not converged
     c_bands:  1 eigenvalues not converged
     c_bands:  1 eigenvalues not converged
     c_bands:  1 eigenvalues not converged
     ethr =  1.00E-06,  avg # of iterations = 12.8

     negative rho (up, down):  4.769E-08 0.000E+00

     total cpu time spent up to now is       21.5 secs

     total energy              =     -24.11416985 Ry
     estimated scf accuracy    <       0.00072260 Ry

     iteration #  2     ecut=    60.00 Ry     beta= 0.70
     Davidson diagonalization with overlap
     ethr =  9.03E-06,  avg # of iterations =  9.6

     total cpu time spent up to now is       25.0 secs

     total energy              =     -24.11564402 Ry
     estimated scf accuracy    <       0.00076033 Ry

     iteration #  3     ecut=    60.00 Ry     beta= 0.70
     Davidson diagonalization with overlap
     ethr =  9.03E-06,  avg # of iterations =  1.2

     total cpu time spent up to now is       26.5 secs

     total energy              =     -24.11558398 Ry
     estimated scf accuracy    <       0.00017352 Ry

     iteration #  4     ecut=    60.00 Ry     beta= 0.70
     Davidson diagonalization with overlap
     ethr =  2.17E-06,  avg # of iterations =  3.4

     total cpu time spent up to now is       28.3 secs

     total energy              =     -24.11560395 Ry
     estimated scf accuracy    <       0.00001140 Ry

     iteration #  5     ecut=    60.00 Ry     beta= 0.70
     Davidson diagonalization with overlap
     ethr =  1.43E-07,  avg # of iterations =  1.0

     total cpu time spent up to now is       29.9 secs

     total energy              =     -24.11560034 Ry
     estimated scf accuracy    <       0.00001286 Ry

     iteration #  6     ecut=    60.00 Ry     beta= 0.70
     Davidson diagonalization with overlap
     ethr =  1.43E-07,  avg # of iterations =  1.0

     total cpu time spent up to now is       31.4 secs

     total energy              =     -24.11559780 Ry
     estimated scf accuracy    <       0.00000507 Ry

     iteration #  7     ecut=    60.00 Ry     beta= 0.70
     Davidson diagonalization with overlap
     ethr =  6.34E-08,  avg # of iterations =  2.0

     total cpu time spent up to now is       33.0 secs

     End of self-consistent calculation

          k = 0.0000 0.0000 0.0000 (  4053 PWs)   bands (ev):

   -21.3782  -9.6786  -4.8669  -4.8669   1.4636   2.5236   3.0203   4.9570

     occupation numbers 
     1.0000   1.0000   1.0000   1.0000   0.0000   0.0000   0.0000   0.0000

          k =-0.0000 0.0965 0.0000 (  4064 PWs)   bands (ev):

   -21.2130  -9.4776  -5.5132  -5.2165   1.6884   2.7512   3.2507   5.1829

     occupation numbers 
     1.0000   1.0000   1.0000   1.0000   0.0000   0.0000   0.0000   0.0000

          k =-0.0000 0.1929 0.0000 (  4070 PWs)   bands (ev):

   -20.7191  -8.8808  -7.1471  -6.0340   2.3629   3.4316   3.9422   5.8565

     occupation numbers 
     1.0000   1.0000   1.0000   1.0000   0.0000   0.0000   0.0000   0.0000

          k =-0.0000 0.2894 0.0000 (  4058 PWs)   bands (ev):

   -19.9019  -9.2489  -7.9065  -6.9394   3.4849   4.5362   5.0934   5.5337

     occupation numbers 
     1.0000   1.0000   1.0000   1.0000   0.0000   0.0000   0.0000   0.0000

          k =-0.0000 0.3859 0.0000 (  4084 PWs)   bands (ev):

   -18.7727 -11.4646  -7.6935  -6.6065   3.1184   5.0426   6.1690   6.1960

     occupation numbers 
     1.0000   1.0000   1.0000   1.0000   0.0000   0.0000   0.0000   0.0000

          k =-0.0000 0.4823 0.0000 (  4070 PWs)   bands (ev):

   -17.3557 -13.5879  -8.1791  -5.1417   0.9274   5.9603   7.0714   8.1647

     occupation numbers 
     1.0000   1.0000   1.0000   1.0000   0.0000   0.0000   0.0000   0.0000

          k = 0.0000-0.5788 0.0000 (  4104 PWs)   bands (ev):

   -15.9988 -15.1893  -8.3467  -4.2665  -0.2073   5.8915   9.4140   9.4976

     occupation numbers 
     1.0000   1.0000   1.0000   1.0000   0.0000   0.0000   0.0000   0.0000

          k = 0.0835 0.1447 0.0000 (  4065 PWs)   bands (ev):

   -20.8835  -9.0784  -6.5391  -5.9152   2.1383   3.2054   3.7118   5.6335

     occupation numbers 
     1.0000   1.0000   1.0000   1.0000   0.0000   0.0000   0.0000   0.0000

          k = 0.0835 0.2412 0.0000 (  4067 PWs)   bands (ev):

   -20.2280  -8.2921  -8.2464  -6.9387   3.0376   4.1082   4.6341   6.3507

     occupation numbers 
     1.0000   1.0000   1.0000   1.0000   0.0000   0.0000   0.0000   0.0000

          k = 0.0835 0.3376 0.0000 (  4065 PWs)   bands (ev):

   -19.2547 -10.3292  -7.8439  -7.1482   4.1602   4.3815   5.4860   6.0148

     occupation numbers 
     1.0000   1.0000   1.0000   1.0000   0.0000   0.0000   0.0000   0.0000

          k = 0.0835 0.4341 0.0000 (  4072 PWs)   bands (ev):

   -17.9802 -12.4700  -8.4919  -5.7319   1.9081   6.1475   6.7973   7.2546

     occupation numbers 
     1.0000   1.0000   1.0000   1.0000   0.0000   0.0000   0.0000   0.0000

          k = 0.0835 0.5306 0.0000 (  4077 PWs)   bands (ev):

   -16.4609 -14.4539  -8.8269  -4.3804   0.0879   6.6195   8.3727   9.3854

     occupation numbers 
     1.0000   1.0000   1.0000   1.0000   0.0000   0.0000   0.0000   0.0000

          k = 0.1671 0.2894 0.0000 (  4066 PWs)   bands (ev):

   -19.4166  -9.5584  -8.3385  -7.3320   4.1601   4.6341   5.2276   5.7874

     occupation numbers 
     1.0000   1.0000   1.0000   1.0000   0.0000   0.0000   0.0000   0.0000

          k = 0.1671 0.3859 0.0000 (  4070 PWs)   bands (ev):

   -18.2977 -11.2979  -9.4064  -6.0468   2.6500   5.7208   6.7608   7.3989

     occupation numbers 
     1.0000   1.0000   1.0000   1.0000   0.0000   0.0000   0.0000   0.0000

          k = 0.1671 0.4823 0.0000 (  4053 PWs)   bands (ev):

   -16.9008 -13.2403  -9.9799  -4.5802   0.6927   7.6940   8.5048   8.5826

     occupation numbers 
     1.0000   1.0000   1.0000   1.0000   0.0000   0.0000   0.0000   0.0000

          k = 0.1671 0.5788 0.0000 (  4052 PWs)   bands (ev):

   -15.5828 -14.7623 -10.1644  -3.6559  -0.4093   8.4108   9.7326   9.9679

     occupation numbers 
     1.0000   1.0000   1.0000   1.0000   0.0000   0.0000   0.0000   0.0000

          k = 0.2506 0.4341 0.0000 (  4056 PWs)   bands (ev):

   -17.0539 -12.2981 -10.9437  -4.6693   1.0121   7.4797   8.2579   9.2371

     occupation numbers 
     1.0000   1.0000   1.0000   1.0000   0.0000   0.0000   0.0000   0.0000

          k = 0.2506 0.5306 0.0000 (  4038 PWs)   bands (ev):

   -15.5953 -13.7613 -11.6481  -3.2442  -0.5406   8.9182   9.5809  10.6245

     occupation numbers 
     1.0000   1.0000   1.0000   1.0000   0.0000   0.0000   0.0000   0.0000

          k = 0.3342 0.5788 0.0000 (  4056 PWs)   bands (ev):

   -14.3407 -14.3407 -12.6444  -1.8584  -1.8584   8.5928  11.1958  11.1958

     occupation numbers 
     1.0000   1.0000   1.0000   0.5000   0.5000   0.0000   0.0000   0.0000

     the Fermi energy is    -1.8395 ev

!    total energy              =     -24.11559832 Ry
     estimated scf accuracy    <       0.00000017 Ry
     smearing contrib. (-TS)   =      -0.00009116 Ry
     internal energy E=F+TS    =     -24.11550716 Ry

     The total energy is F=E-TS. E is the sum of the following terms:
     one-electron contribution =    -155.30135500 Ry
     hartree contribution      =      79.11628469 Ry
     xc contribution           =      -8.56865371 Ry
     ewald contribution        =      60.63821685 Ry

     convergence has been achieved in   7 iterations

     Forces acting on atoms (cartesian axes, Ry/au):

     atom    1 type  1   force =     0.00000000    0.00000000    0.00000000
     atom    2 type  1   force =    -0.00000000   -0.00000000    0.00000000
     The non-local contrib.  to forces
     atom    1 type  1   force =     0.00000000   -0.00000000    0.00000000
     atom    2 type  1   force =     0.00000000    0.00000000   -0.00000000
     The ionic contribution  to forces
     atom    1 type  1   force =    -0.00000001    0.00000001   -0.00000000
     atom    2 type  1   force =     0.00000001   -0.00000001   -0.00000000
     The local contribution  to forces
     atom    1 type  1   force =    -0.00000000   -0.00000000    0.00000000
     atom    2 type  1   force =     0.00000001   -0.00000000    0.00000000
     The core correction contribution to forces
     atom    1 type  1   force =     0.00000000   -0.00000000    0.00000000
     atom    2 type  1   force =    -0.00000000    0.00000000    0.00000000
     The Hubbard contrib.    to forces
     atom    1 type  1   force =     0.00000000    0.00000000    0.00000000
     atom    2 type  1   force =     0.00000000    0.00000000    0.00000000
     The SCF correction term to forces
     atom    1 type  1   force =    -0.00000000    0.00000000   -0.00000000
     atom    2 type  1   force =     0.00000000   -0.00000000   -0.00000000

     Total force =     0.000000     Total SCF correction =     0.000000


     Computing stress (Cartesian axis) and pressure

          total   stress  (Ry/bohr**3)                   (kbar)     P=       -8.93
  -0.00004917  -0.00000000   0.00000000           -7.23       -0.00        0.00
  -0.00000000  -0.00004917   0.00000000           -0.00       -7.23        0.00
  -0.00000000  -0.00000000  -0.00008380           -0.00       -0.00      -12.33

     kinetic stress (kbar)   3143.54      0.00     -0.00
                                0.00   3143.54      0.00
                               -0.00      0.00   3440.96

     local   stress (kbar) -47545.26      0.00      0.00
                                0.00 -47545.26     -0.00
                                0.00     -0.00  48538.10

     nonloc. stress (kbar)   -383.14      0.00      0.00
                                0.00   -383.14      0.00
                                0.00      0.00   -320.23

     hartree stress (kbar)  22425.24      0.00     -0.00
                                0.00  22425.24      0.00
                               -0.00      0.00 -22194.35

     exc-cor stress (kbar)   -243.03      0.00      0.00
                                0.00   -243.03      0.00
                                0.00      0.00   -243.03

     corecor stress (kbar)   -473.33      0.00     -0.00
                                0.00   -473.33     -0.00
                               -0.00     -0.00   -460.95

     ewald   stress (kbar)  23068.74     -0.00     -0.00
                               -0.00  23068.74     -0.00
                               -0.00     -0.00 -28772.82

     hubbard stress (kbar)      0.00      0.00      0.00
                                0.00      0.00      0.00
                                0.00      0.00      0.00

     DFT-D   stress (kbar)      0.00      0.00      0.00
                                0.00      0.00      0.00
                                0.00      0.00      0.00

     XDM     stress (kbar)      0.00      0.00      0.00
                                0.00      0.00      0.00
                                0.00      0.00      0.00

     dft-nl  stress (kbar)      0.00      0.00      0.00
                                0.00      0.00      0.00
                                0.00      0.00      0.00

     TS-vdW  stress (kbar)      0.00      0.00      0.00
                                0.00      0.00      0.00
                                0.00      0.00      0.00


     Energy error            =      2.8E-04
     Gradient error          =      1.4E-25
     Cell gradient error     =      8.4E-05


     number of scf cycles    =   2
     number of bfgs steps    =   1

     enthalpy old            =     -24.1153158008 Ry
     enthalpy new            =     -24.1155983222 Ry

     CASE: enthalpy_new < enthalpy_old

     new trust radius        =       0.0172691253 bohr
     new conv_thr            =       0.0000000100 Ry

     new unit-cell volume =    509.18691 a.u.^3 (    75.45372 Ang^3 )
     density =      0.52866 g/cm^3

CELL_PARAMETERS (alat=  4.63500000)
   0.994974581   0.000000000  -0.000000000
  -0.497487291   0.861673264  -0.000000000
   0.000000000   0.000000000   5.964491314

ATOMIC_POSITIONS (crystal)
C             0.0000000000        0.0000000000       -0.0000000000
C             0.3333333330        0.6666666670       -0.0000000000



     Writing output data file ./tmp/graphene.save/
     NEW-OLD atomic charge density approx. for the potential

     negative rho (up, down):  1.617E-06 0.000E+00
     extrapolated charge    7.92913, renormalised to    8.00000

     total cpu time spent up to now is       38.1 secs

     Self-consistent Calculation

     iteration #  1     ecut=    60.00 Ry     beta= 0.70
     Davidson diagonalization with overlap
     c_bands:  1 eigenvalues not converged
     c_bands:  1 eigenvalues not converged
     c_bands:  1 eigenvalues not converged
     ethr =  1.00E-06,  avg # of iterations = 12.1

     negative rho (up, down):  1.352E-07 0.000E+00

     total cpu time spent up to now is       42.0 secs

     total energy              =     -24.11370362 Ry
     estimated scf accuracy    <       0.00104324 Ry

     iteration #  2     ecut=    60.00 Ry     beta= 0.70
     Davidson diagonalization with overlap
     ethr =  1.30E-05,  avg # of iterations =  8.9

     negative rho (up, down):  3.040E-08 0.000E+00

     total cpu time spent up to now is       45.3 secs

     total energy              =     -24.11588215 Ry
     estimated scf accuracy    <       0.00113212 Ry

     iteration #  3     ecut=    60.00 Ry     beta= 0.70
     Davidson diagonalization with overlap
     ethr =  1.30E-05,  avg # of iterations =  1.3

     total cpu time spent up to now is       46.8 secs

     total energy              =     -24.11578271 Ry
     estimated scf accuracy    <       0.00026159 Ry

     iteration #  4     ecut=    60.00 Ry     beta= 0.70
     Davidson diagonalization with overlap
     ethr =  3.27E-06,  avg # of iterations =  3.3

     total cpu time spent up to now is       48.6 secs

     total energy              =     -24.11581699 Ry
     estimated scf accuracy    <       0.00001023 Ry

     iteration #  5     ecut=    60.00 Ry     beta= 0.70
     Davidson diagonalization with overlap
     ethr =  1.28E-07,  avg # of iterations =  1.5

     total cpu time spent up to now is       50.2 secs

     total energy              =     -24.11581515 Ry
     estimated scf accuracy    <       0.00001190 Ry

     iteration #  6     ecut=    60.00 Ry     beta= 0.70
     Davidson diagonalization with overlap
     ethr =  1.28E-07,  avg # of iterations =  1.0

     total cpu time spent up to now is       51.6 secs

     total energy              =     -24.11581144 Ry
     estimated scf accuracy    <       0.00000684 Ry

     iteration #  7     ecut=    60.00 Ry     beta= 0.70
     Davidson diagonalization with overlap
     ethr =  8.55E-08,  avg # of iterations =  2.0

     total cpu time spent up to now is       53.2 secs

     total energy              =     -24.11581206 Ry
     estimated scf accuracy    <       0.00000030 Ry

     iteration #  8     ecut=    60.00 Ry     beta= 0.70
     Davidson diagonalization with overlap
     ethr =  3.77E-09,  avg # of iterations =  2.2

     total cpu time spent up to now is       55.2 secs

     total energy              =     -24.11581216 Ry
     estimated scf accuracy    <       0.00000002 Ry

     iteration #  9     ecut=    60.00 Ry     beta= 0.70
     Davidson diagonalization with overlap
     ethr =  2.19E-10,  avg # of iterations =  2.8

     total cpu time spent up to now is       56.9 secs

     End of self-consistent calculation

          k = 0.0000 0.0000 0.0000 (  4053 PWs)   bands (ev):

   -21.4016  -9.6932  -4.8279  -4.8279   1.4795   2.5441   3.0454   4.9988

     occupation numbers 
     1.0000   1.0000   1.0000   1.0000   0.0000   0.0000   0.0000   0.0000

          k =-0.0000 0.0967 0.0000 (  4064 PWs)   bands (ev):

   -21.2357  -9.4909  -5.4761  -5.1803   1.7054   2.7728   3.2769   5.2258

     occupation numbers 
     1.0000   1.0000   1.0000   1.0000   0.0000   0.0000   0.0000   0.0000

          k =-0.0000 0.1934 0.0000 (  4070 PWs)   bands (ev):

   -20.7397  -8.8905  -7.1154  -6.0037   2.3832   3.4567   3.9718   5.9028

     occupation numbers 
     1.0000   1.0000   1.0000   1.0000   0.0000   0.0000   0.0000   0.0000

          k =-0.0000 0.2901 0.0000 (  4058 PWs)   bands (ev):

   -19.9189  -9.2252  -7.9103  -6.9153   3.5107   4.5682   5.1287   5.6184

     occupation numbers 
     1.0000   1.0000   1.0000   1.0000   0.0000   0.0000   0.0000   0.0000

          k =-0.0000 0.3868 0.0000 (  4084 PWs)   bands (ev):

   -18.7846 -11.4500  -7.6744  -6.6019   3.1846   5.0767   6.2089   6.3038

     occupation numbers 
     1.0000   1.0000   1.0000   1.0000   0.0000   0.0000   0.0000   0.0000

          k =-0.0000 0.4836 0.0000 (  4070 PWs)   bands (ev):

   -17.3605 -13.5832  -8.1631  -5.1270   0.9767   6.0720   7.1170   8.2151

     occupation numbers 
     1.0000   1.0000   1.0000   1.0000   0.0000   0.0000   0.0000   0.0000

          k = 0.0000-0.5803 0.0000 (  4104 PWs)   bands (ev):

   -15.9874 -15.2017  -8.3317  -4.2449  -0.1674   6.0056   9.4712   9.5540

     occupation numbers 
     1.0000   1.0000   1.0000   1.0000   0.0000   0.0000   0.0000   0.0000

          k = 0.0838 0.1451 0.0000 (  4065 PWs)   bands (ev):

   -20.9048  -9.0893  -6.5047  -5.8842   2.1575   3.2293   3.7403   5.6785

     occupation numbers 
     1.0000   1.0000   1.0000   1.0000   0.0000   0.0000   0.0000   0.0000

          k = 0.0838 0.2418 0.0000 (  4067 PWs)   bands (ev):

   -20.2464  -8.2982  -8.2179  -6.9144   3.0613   4.1368   4.6671   6.4376

     occupation numbers 
     1.0000   1.0000   1.0000   1.0000   0.0000   0.0000   0.0000   0.0000

          k = 0.0838 0.3385 0.0000 (  4065 PWs)   bands (ev):

   -19.2689 -10.3093  -7.8248  -7.1472   4.2351   4.4119   5.5229   6.0547

     occupation numbers 
     1.0000   1.0000   1.0000   1.0000   0.0000   0.0000   0.0000   0.0000

          k = 0.0838 0.4352 0.0000 (  4072 PWs)   bands (ev):

   -17.9885 -12.4595  -8.4764  -5.7215   1.9659   6.1885   6.9093   7.3001

     occupation numbers 
     1.0000   1.0000   1.0000   1.0000   0.0000   0.0000   0.0000   0.0000

          k = 0.0838 0.5319 0.0000 (  4077 PWs)   bands (ev):

   -16.4596 -14.4548  -8.8133  -4.3601   0.1313   6.7350   8.4240   9.4434

     occupation numbers 
     1.0000   1.0000   1.0000   1.0000   0.0000   0.0000   0.0000   0.0000

          k = 0.1675 0.2901 0.0000 (  4066 PWs)   bands (ev):

   -19.4315  -9.5322  -8.3237  -7.3321   4.1894   4.7151   5.2620   5.8261

     occupation numbers 
     1.0000   1.0000   1.0000   1.0000   0.0000   0.0000   0.0000   0.0000

          k = 0.1675 0.3868 0.0000 (  4070 PWs)   bands (ev):

   -18.3075 -11.2794  -9.3963  -6.0386   2.7159   5.7581   6.8035   7.4458

     occupation numbers 
     1.0000   1.0000   1.0000   1.0000   0.0000   0.0000   0.0000   0.0000

          k = 0.1675 0.4836 0.0000 (  4053 PWs)   bands (ev):

   -16.9035 -13.2324  -9.9712  -4.5620   0.7436   7.7420   8.6240   8.6362

     occupation numbers 
     1.0000   1.0000   1.0000   1.0000   0.0000   0.0000   0.0000   0.0000

          k = 0.1675 0.5803 0.0000 (  4052 PWs)   bands (ev):

   -15.5706 -14.7705 -10.1562  -3.6306  -0.3675   8.5321   9.7958  10.0295

     occupation numbers 
     1.0000   1.0000   1.0000   1.0000   0.0000   0.0000   0.0000   0.0000

          k = 0.2513 0.4352 0.0000 (  4056 PWs)   bands (ev):

   -17.0577 -12.2788 -10.9455  -4.6520   1.0672   7.5261   8.3092   9.2930

     occupation numbers 
     1.0000   1.0000   1.0000   1.0000   0.0000   0.0000   0.0000   0.0000

          k = 0.2513 0.5319 0.0000 (  4038 PWs)   bands (ev):

   -15.5900 -13.7525 -11.6511  -3.2169  -0.4964   8.9728   9.6401  10.7464

     occupation numbers 
     1.0000   1.0000   1.0000   1.0000   0.0000   0.0000   0.0000   0.0000

          k = 0.3350 0.5803 0.0000 (  4056 PWs)   bands (ev):

   -14.3259 -14.3259 -12.6638  -1.8219  -1.8219   8.6432  11.2838  11.2838

     occupation numbers 
     1.0000   1.0000   1.0000   0.5000   0.5000   0.0000   0.0000   0.0000

     the Fermi energy is    -1.8030 ev

!    total energy              =     -24.11581216 Ry
     estimated scf accuracy    <          2.1E-09 Ry
     smearing contrib. (-TS)   =      -0.00009116 Ry
     internal energy E=F+TS    =     -24.11572100 Ry

     The total energy is F=E-TS. E is the sum of the following terms:
     one-electron contribution =    -155.33965591 Ry
     hartree contribution      =      79.14703270 Ry
     xc contribution           =      -8.58078249 Ry
     ewald contribution        =      60.65768470 Ry

     convergence has been achieved in   9 iterations

     Forces acting on atoms (cartesian axes, Ry/au):

     atom    1 type  1   force =     0.00000000    0.00000000    0.00000000
     atom    2 type  1   force =    -0.00000000    0.00000000    0.00000000
     The non-local contrib.  to forces
     atom    1 type  1   force =     0.00000000   -0.00000000    0.00000000
     atom    2 type  1   force =    -0.00000000    0.00000000    0.00000000
     The ionic contribution  to forces
     atom    1 type  1   force =    -0.00000001    0.00000001   -0.00000000
     atom    2 type  1   force =     0.00000001   -0.00000001    0.00000000
     The local contribution  to forces
     atom    1 type  1   force =    -0.00000000   -0.00000000    0.00000000
     atom    2 type  1   force =     0.00000001   -0.00000000    0.00000000
     The core correction contribution to forces
     atom    1 type  1   force =     0.00000000   -0.00000000    0.00000000
     atom    2 type  1   force =    -0.00000000    0.00000000    0.00000000
     The Hubbard contrib.    to forces
     atom    1 type  1   force =     0.00000000    0.00000000    0.00000000
     atom    2 type  1   force =     0.00000000    0.00000000    0.00000000
     The SCF correction term to forces
     atom    1 type  1   force =    -0.00000000    0.00000000   -0.00000000
     atom    2 type  1   force =    -0.00000000    0.00000000   -0.00000000

     Total force =     0.000000     Total SCF correction =     0.000000


     Computing stress (Cartesian axis) and pressure

          total   stress  (Ry/bohr**3)                   (kbar)     P=       -3.41
   0.00000447   0.00000000  -0.00000000            0.66        0.00       -0.00
   0.00000000   0.00000447  -0.00000000            0.00        0.66       -0.00
   0.00000000   0.00000000  -0.00007852            0.00        0.00      -11.55

     kinetic stress (kbar)   3181.87     -0.00     -0.00
                               -0.00   3181.87      0.00
                               -0.00      0.00   3477.93

     local   stress (kbar) -47994.70      0.00      0.00
                                0.00 -47994.70     -0.00
                                0.00     -0.00  49010.66

     nonloc. stress (kbar)   -389.53      0.00     -0.00
                                0.00   -389.53     -0.00
                               -0.00     -0.00   -324.75

     hartree stress (kbar)  22633.82      0.00     -0.00
                                0.00  22633.82      0.00
                               -0.00      0.00 -22401.90

     exc-cor stress (kbar)   -246.06      0.00      0.00
                                0.00   -246.06      0.00
                                0.00      0.00   -246.06

     corecor stress (kbar)   -477.88      0.00      0.00
                                0.00   -477.88      0.00
                               -0.00      0.00   -465.25

     ewald   stress (kbar)  23293.15     -0.00     -0.00
                               -0.00  23293.15     -0.00
                               -0.00     -0.00 -29062.17

     hubbard stress (kbar)      0.00      0.00      0.00
                                0.00      0.00      0.00
                                0.00      0.00      0.00

     DFT-D   stress (kbar)      0.00      0.00      0.00
                                0.00      0.00      0.00
                                0.00      0.00      0.00

     XDM     stress (kbar)      0.00      0.00      0.00
                                0.00      0.00      0.00
                                0.00      0.00      0.00

     dft-nl  stress (kbar)      0.00      0.00      0.00
                                0.00      0.00      0.00
                                0.00      0.00      0.00

     TS-vdW  stress (kbar)      0.00      0.00      0.00
                                0.00      0.00      0.00
                                0.00      0.00      0.00


     Energy error            =      2.1E-04
     Gradient error          =      1.4E-25
     Cell gradient error     =      7.9E-05


     number of scf cycles    =   3
     number of bfgs steps    =   2

     enthalpy old            =     -24.1155983222 Ry
     enthalpy new            =     -24.1158121626 Ry

     CASE: enthalpy_new < enthalpy_old

     new trust radius        =       0.0303046667 bohr
     new conv_thr            =       0.0000000100 Ry

     new unit-cell volume =    503.52459 a.u.^3 (    74.61465 Ang^3 )
     density =      0.53461 g/cm^3

CELL_PARAMETERS (alat=  4.63500000)
   0.992765686   0.000000000   0.000000000
  -0.496382843   0.859760304   0.000000000
  -0.000000000  -0.000000000   5.924440226

ATOMIC_POSITIONS (crystal)
C             0.0000000000        0.0000000000        0.0000000000
C             0.3333333330        0.6666666670       -0.0000000000



     Writing output data file ./tmp/graphene.save/
     NEW-OLD atomic charge density approx. for the potential

     negative rho (up, down):  2.576E-06 0.000E+00
     extrapolated charge    7.91004, renormalised to    8.00000

     total cpu time spent up to now is       61.9 secs

     Self-consistent Calculation

     iteration #  1     ecut=    60.00 Ry     beta= 0.70
     Davidson diagonalization with overlap
     c_bands:  2 eigenvalues not converged
     c_bands:  1 eigenvalues not converged
     ethr =  1.00E-06,  avg # of iterations = 12.1

     negative rho (up, down):  3.441E-07 0.000E+00

     total cpu time spent up to now is       65.8 secs

     total energy              =     -24.11272979 Ry
     estimated scf accuracy    <       0.00155305 Ry

     iteration #  2     ecut=    60.00 Ry     beta= 0.70
     Davidson diagonalization with overlap
     ethr =  1.94E-05,  avg # of iterations =  8.6

     negative rho (up, down):  1.182E-07 0.000E+00

     total cpu time spent up to now is       69.0 secs

     total energy              =     -24.11611290 Ry
     estimated scf accuracy    <       0.00178763 Ry

     iteration #  3     ecut=    60.00 Ry     beta= 0.70
     Davidson diagonalization with overlap
     ethr =  1.94E-05,  avg # of iterations =  1.5

     total cpu time spent up to now is       70.6 secs

     total energy              =     -24.11593774 Ry
     estimated scf accuracy    <       0.00042406 Ry

     iteration #  4     ecut=    60.00 Ry     beta= 0.70
     Davidson diagonalization with overlap
     ethr =  5.30E-06,  avg # of iterations =  3.4

     total cpu time spent up to now is       72.4 secs

     total energy              =     -24.11600430 Ry
     estimated scf accuracy    <       0.00000624 Ry

     iteration #  5     ecut=    60.00 Ry     beta= 0.70
     Davidson diagonalization with overlap
     ethr =  7.80E-08,  avg # of iterations =  1.9

     total cpu time spent up to now is       74.1 secs

     total energy              =     -24.11600302 Ry
     estimated scf accuracy    <       0.00000908 Ry

     iteration #  6     ecut=    60.00 Ry     beta= 0.70
     Davidson diagonalization with overlap
     ethr =  7.80E-08,  avg # of iterations =  1.1

     total cpu time spent up to now is       75.6 secs

     total energy              =     -24.11600050 Ry
     estimated scf accuracy    <       0.00000482 Ry

     iteration #  7     ecut=    60.00 Ry     beta= 0.70
     Davidson diagonalization with overlap
     ethr =  6.02E-08,  avg # of iterations =  2.0

     total cpu time spent up to now is       77.2 secs

     total energy              =     -24.11600086 Ry
     estimated scf accuracy    <       0.00000026 Ry

     iteration #  8     ecut=    60.00 Ry     beta= 0.70
     Davidson diagonalization with overlap
     ethr =  3.30E-09,  avg # of iterations =  2.3

     total cpu time spent up to now is       79.1 secs

     total energy              =     -24.11600094 Ry
     estimated scf accuracy    <       0.00000001 Ry

     iteration #  9     ecut=    60.00 Ry     beta= 0.70
     Davidson diagonalization with overlap
     ethr =  1.30E-10,  avg # of iterations =  2.6

     total cpu time spent up to now is       80.9 secs

     End of self-consistent calculation

          k = 0.0000 0.0000 0.0000 (  4053 PWs)   bands (ev):

   -21.4098  -9.6946  -4.7798  -4.7798   1.5028   2.5733   3.0825   5.0665

     occupation numbers 
     1.0000   1.0000   1.0000   1.0000   0.0000   0.0000   0.0000   0.0000

          k =-0.0000 0.0969 0.0000 (  4064 PWs)   bands (ev):

   -21.2433  -9.4913  -5.4297  -5.1346   1.7297   2.8030   3.3151   5.2945

     occupation numbers 
     1.0000   1.0000   1.0000   1.0000   0.0000   0.0000   0.0000   0.0000

          k =-0.0000 0.1939 0.0000 (  4070 PWs)   bands (ev):

   -20.7454  -8.8876  -7.0739  -5.9634   2.4105   3.4900   4.0129   5.9744

     occupation numbers 
     1.0000   1.0000   1.0000   1.0000   0.0000   0.0000   0.0000   0.0000

          k =-0.0000 0.2908 0.0000 (  4058 PWs)   bands (ev):

   -19.9214  -9.1910  -7.9021  -6.8807   3.5430   4.6074   5.1746   5.7061

     occupation numbers 
     1.0000   1.0000   1.0000   1.0000   0.0000   0.0000   0.0000   0.0000

          k =-0.0000 0.3877 0.0000 (  4084 PWs)   bands (ev):

   -18.7826 -11.4240  -7.6442  -6.5862   3.2552   5.1165   6.2554   6.4116

     occupation numbers 
     1.0000   1.0000   1.0000   1.0000   0.0000   0.0000   0.0000   0.0000

          k =-0.0000 0.4846 0.0000 (  4070 PWs)   bands (ev):

   -17.3521 -13.5661  -8.1357  -5.1023   1.0321   6.1838   7.1673   8.2706

     occupation numbers 
     1.0000   1.0000   1.0000   1.0000   0.0000   0.0000   0.0000   0.0000

          k = 0.0000-0.5816-0.0000 (  4104 PWs)   bands (ev):

   -15.9643 -15.2001  -8.3052  -4.2139  -0.1204   6.1198   9.5318   9.6138

     occupation numbers 
     1.0000   1.0000   1.0000   1.0000   0.0000   0.0000   0.0000   0.0000

          k = 0.0839 0.1454 0.0000 (  4065 PWs)   bands (ev):

   -20.9111  -9.0876  -6.4607  -5.8432   2.1838   3.2616   3.7804   5.7491

     occupation numbers 
     1.0000   1.0000   1.0000   1.0000   0.0000   0.0000   0.0000   0.0000

          k = 0.0839 0.2423 0.0000 (  4067 PWs)   bands (ev):

   -20.2502  -8.2922  -8.1793  -6.8795   3.0916   4.1732   4.7111   6.5275

     occupation numbers 
     1.0000   1.0000   1.0000   1.0000   0.0000   0.0000   0.0000   0.0000

          k = 0.0839 0.3392 0.0000 (  4065 PWs)   bands (ev):

   -19.2689 -10.2784  -7.7945  -7.1347   4.3135   4.4483   5.5668   6.1047

     occupation numbers 
     1.0000   1.0000   1.0000   1.0000   0.0000   0.0000   0.0000   0.0000

          k = 0.0839 0.4362 0.0000 (  4072 PWs)   bands (ev):

   -17.9831 -12.4372  -8.4495  -5.7006   2.0292   6.2342   7.0216   7.3514

     occupation numbers 
     1.0000   1.0000   1.0000   1.0000   0.0000   0.0000   0.0000   0.0000

          k = 0.0839 0.5331 0.0000 (  4077 PWs)   bands (ev):

   -16.4456 -14.4428  -8.7881  -4.3303   0.1815   6.8505   8.4793   9.5054

     occupation numbers 
     1.0000   1.0000   1.0000   1.0000   0.0000   0.0000   0.0000   0.0000

          k = 0.1679 0.2908 0.0000 (  4066 PWs)   bands (ev):

   -19.4321  -9.4957  -8.2974  -7.3207   4.2247   4.7993   5.3034   5.8750

     occupation numbers 
     1.0000   1.0000   1.0000   1.0000   0.0000   0.0000   0.0000   0.0000

          k = 0.1679 0.3877 0.0000 (  4070 PWs)   bands (ev):

   -18.3036 -11.2499  -9.3741  -6.0197   2.7864   5.8006   6.8521   7.5016

     occupation numbers 
     1.0000   1.0000   1.0000   1.0000   0.0000   0.0000   0.0000   0.0000

          k = 0.1679 0.4846 0.0000 (  4053 PWs)   bands (ev):

   -16.8932 -13.2124  -9.9504  -4.5341   0.8006   7.7943   8.6941   8.7424

     occupation numbers 
     1.0000   1.0000   1.0000   1.0000   0.0000   0.0000   0.0000   0.0000

          k = 0.1679 0.5816 0.0000 (  4052 PWs)   bands (ev):

   -15.5468 -14.7650 -10.1359  -3.5963  -0.3186   8.6526   9.8622  10.0942

     occupation numbers 
     1.0000   1.0000   1.0000   1.0000   0.0000   0.0000   0.0000   0.0000

          k = 0.2518 0.4362 0.0000 (  4056 PWs)   bands (ev):

   -17.0484 -12.2485 -10.9341  -4.6249   1.1282   7.5769   8.3651   9.3567

     occupation numbers 
     1.0000   1.0000   1.0000   1.0000   0.0000   0.0000   0.0000   0.0000

          k = 0.2518 0.5331 0.0000 (  4038 PWs)   bands (ev):

   -15.5724 -13.7318 -11.6408  -3.1808  -0.4452   9.0317   9.7025  10.8671

     occupation numbers 
     1.0000   1.0000   1.0000   1.0000   0.0000   0.0000   0.0000   0.0000

          k = 0.3358 0.5816 0.0000 (  4056 PWs)   bands (ev):

   -14.2998 -14.2998 -12.6685  -1.7776  -1.7776   8.6985  11.3726  11.3726

     occupation numbers 
     1.0000   1.0000   1.0000   0.5000   0.5000   0.0000   0.0000   0.0000

     the Fermi energy is    -1.7587 ev

!    total energy              =     -24.11600094 Ry
     estimated scf accuracy    <          4.0E-10 Ry
     smearing contrib. (-TS)   =      -0.00009116 Ry
     internal energy E=F+TS    =     -24.11590978 Ry

     The total energy is F=E-TS. E is the sum of the following terms:
     one-electron contribution =    -154.70482177 Ry
     hartree contribution      =      78.84186354 Ry
     xc contribution           =      -8.59142217 Ry
     ewald contribution        =      60.33847061 Ry

     convergence has been achieved in   9 iterations

     Forces acting on atoms (cartesian axes, Ry/au):

     atom    1 type  1   force =     0.00000000    0.00000000    0.00000000
     atom    2 type  1   force =    -0.00000000   -0.00000000   -0.00000000
     The non-local contrib.  to forces
     atom    1 type  1   force =     0.00000000   -0.00000000   -0.00000000
     atom    2 type  1   force =     0.00000000   -0.00000000    0.00000000
     The ionic contribution  to forces
     atom    1 type  1   force =    -0.00000001    0.00000001    0.00000000
     atom    2 type  1   force =     0.00000001   -0.00000001   -0.00000000
     The local contribution  to forces
     atom    1 type  1   force =    -0.00000000   -0.00000000    0.00000000
     atom    2 type  1   force =     0.00000001   -0.00000000    0.00000000
     The core correction contribution to forces
     atom    1 type  1   force =     0.00000000   -0.00000000    0.00000000
     atom    2 type  1   force =    -0.00000000    0.00000000    0.00000000
     The Hubbard contrib.    to forces
     atom    1 type  1   force =     0.00000000    0.00000000    0.00000000
     atom    2 type  1   force =     0.00000000    0.00000000    0.00000000
     The SCF correction term to forces
     atom    1 type  1   force =    -0.00000000    0.00000000    0.00000000
     atom    2 type  1   force =     0.00000000    0.00000000   -0.00000000

     Total force =     0.000000     Total SCF correction =     0.000000


     Computing stress (Cartesian axis) and pressure

          total   stress  (Ry/bohr**3)                   (kbar)     P=        1.64
   0.00005385   0.00000000  -0.00000000            7.92        0.00       -0.00
   0.00000000   0.00005385  -0.00000000            0.00        7.92       -0.00
   0.00000000   0.00000000  -0.00007421            0.00        0.00      -10.92

     kinetic stress (kbar)   3226.96      0.00     -0.00
                                0.00   3226.96     -0.00
                               -0.00     -0.00   3522.68

     local   stress (kbar) -48364.31      0.00      0.00
                                0.00 -48364.31     -0.00
                                0.00     -0.00  49404.61

     nonloc. stress (kbar)   -396.52     -0.00      0.00
                               -0.00   -396.52      0.00
                                0.00      0.00   -329.68

     hartree stress (kbar)  22800.15      0.00     -0.00
                                0.00  22800.15      0.00
                               -0.00      0.00 -22566.58

     exc-cor stress (kbar)   -249.60      0.00      0.00
                                0.00   -249.60      0.00
                                0.00      0.00   -249.60

     corecor stress (kbar)   -483.57      0.00      0.00
                                0.00   -483.57     -0.00
                                0.00     -0.00   -470.66

     ewald   stress (kbar)  23474.81     -0.00     -0.00
                               -0.00  23474.81     -0.00
                               -0.00     -0.00 -29321.69

     hubbard stress (kbar)      0.00      0.00      0.00
                                0.00      0.00      0.00
                                0.00      0.00      0.00

     DFT-D   stress (kbar)      0.00      0.00      0.00
                                0.00      0.00      0.00
                                0.00      0.00      0.00

     XDM     stress (kbar)      0.00      0.00      0.00
                                0.00      0.00      0.00
                                0.00      0.00      0.00

     dft-nl  stress (kbar)      0.00      0.00      0.00
                                0.00      0.00      0.00
                                0.00      0.00      0.00

     TS-vdW  stress (kbar)      0.00      0.00      0.00
                                0.00      0.00      0.00
                                0.00      0.00      0.00


     Energy error            =      1.9E-04
     Gradient error          =      1.4E-25
     Cell gradient error     =      7.4E-05


     number of scf cycles    =   4
     number of bfgs steps    =   3

     enthalpy old            =     -24.1158121626 Ry
     enthalpy new            =     -24.1160009441 Ry

     CASE: enthalpy_new < enthalpy_old

     new trust radius        =       0.0333733661 bohr
     new conv_thr            =       0.0000000100 Ry

     new unit-cell volume =    498.63310 a.u.^3 (    73.88980 Ang^3 )
     density =      0.53985 g/cm^3

CELL_PARAMETERS (alat=  4.63500000)
   0.991625721   0.000000000   0.000000000
  -0.495812860   0.858773065   0.000000000
  -0.000000000  -0.000000000   5.880384029

ATOMIC_POSITIONS (crystal)
C             0.0000000000        0.0000000000        0.0000000000
C             0.3333333330        0.6666666670       -0.0000000000



     Writing output data file ./tmp/graphene.save/
     NEW-OLD atomic charge density approx. for the potential

     negative rho (up, down):  2.357E-06 0.000E+00
     extrapolated charge    7.92152, renormalised to    8.00000

     total cpu time spent up to now is       86.1 secs

     Self-consistent Calculation

     iteration #  1     ecut=    60.00 Ry     beta= 0.70
     Davidson diagonalization with overlap
     c_bands:  2 eigenvalues not converged
     ethr =  1.00E-06,  avg # of iterations = 11.7

     negative rho (up, down):  3.233E-07 0.000E+00

     total cpu time spent up to now is       89.9 secs

     total energy              =     -24.11371463 Ry
     estimated scf accuracy    <       0.00114218 Ry

     iteration #  2     ecut=    60.00 Ry     beta= 0.70
     Davidson diagonalization with overlap
     ethr =  1.43E-05,  avg # of iterations =  9.1

     negative rho (up, down):  1.147E-07 0.000E+00

     total cpu time spent up to now is       93.2 secs

     total energy              =     -24.11628113 Ry
     estimated scf accuracy    <       0.00137014 Ry

     iteration #  3     ecut=    60.00 Ry     beta= 0.70
     Davidson diagonalization with overlap
     ethr =  1.43E-05,  avg # of iterations =  1.4

     total cpu time spent up to now is       94.7 secs

     total energy              =     -24.11613291 Ry
     estimated scf accuracy    <       0.00033177 Ry

     iteration #  4     ecut=    60.00 Ry     beta= 0.70
     Davidson diagonalization with overlap
     ethr =  4.15E-06,  avg # of iterations =  3.4

     total cpu time spent up to now is       96.7 secs

     total energy              =     -24.11618785 Ry
     estimated scf accuracy    <       0.00000284 Ry

     iteration #  5     ecut=    60.00 Ry     beta= 0.70
     Davidson diagonalization with overlap
     ethr =  3.55E-08,  avg # of iterations =  2.3

     total cpu time spent up to now is       98.4 secs

     total energy              =     -24.11618787 Ry
     estimated scf accuracy    <       0.00000432 Ry

     iteration #  6     ecut=    60.00 Ry     beta= 0.70
     Davidson diagonalization with overlap
     ethr =  3.55E-08,  avg # of iterations =  1.1

     total cpu time spent up to now is       99.9 secs

     total energy              =     -24.11618634 Ry
     estimated scf accuracy    <       0.00000293 Ry

     iteration #  7     ecut=    60.00 Ry     beta= 0.70
     Davidson diagonalization with overlap
     ethr =  3.55E-08,  avg # of iterations =  2.0

     total cpu time spent up to now is      101.6 secs

     total energy              =     -24.11618651 Ry
     estimated scf accuracy    <       0.00000021 Ry

     iteration #  8     ecut=    60.00 Ry     beta= 0.70
     Davidson diagonalization with overlap
     ethr =  2.56E-09,  avg # of iterations =  2.1

     total cpu time spent up to now is      103.4 secs

     End of self-consistent calculation

          k = 0.0000 0.0000 0.0000 (  4053 PWs)   bands (ev):

   -21.4039  -9.6855  -4.7449  -4.7449   1.5251   2.6016   3.1200   5.1385

     occupation numbers 
     1.0000   1.0000   1.0000   1.0000   0.0000   0.0000   0.0000   0.0000

          k =-0.0000 0.0970 0.0000 (  4064 PWs)   bands (ev):

   -21.2371  -9.4817  -5.3957  -5.1009   1.7525   2.8319   3.3530   5.3669

     occupation numbers 
     1.0000   1.0000   1.0000   1.0000   0.0000   0.0000   0.0000   0.0000

          k =-0.0000 0.1941 0.0000 (  4070 PWs)   bands (ev):

   -20.7382  -8.8763  -7.0425  -5.9326   2.4348   3.5203   4.0523   6.0477

     occupation numbers 
     1.0000   1.0000   1.0000   1.0000   0.0000   0.0000   0.0000   0.0000

          k =-0.0000 0.2911 0.0000 (  4058 PWs)   bands (ev):

   -19.9126  -9.1633  -7.8880  -6.8528   3.5700   4.6405   5.2164   5.7613

     occupation numbers 
     1.0000   1.0000   1.0000   1.0000   0.0000   0.0000   0.0000   0.0000

          k =-0.0000 0.3882 0.0000 (  4084 PWs)   bands (ev):

   -18.7715 -11.4005  -7.6186  -6.5682   3.3013   5.1473   6.2923   6.4774

     occupation numbers 
     1.0000   1.0000   1.0000   1.0000   0.0000   0.0000   0.0000   0.0000

          k =-0.0000 0.4852 0.0000 (  4070 PWs)   bands (ev):

   -17.3377 -13.5471  -8.1116  -5.0797   1.0705   6.2518   7.2037   8.3119

     occupation numbers 
     1.0000   1.0000   1.0000   1.0000   0.0000   0.0000   0.0000   0.0000

          k = 0.0000-0.5822-0.0000 (  4104 PWs)   bands (ev):

   -15.9422 -15.1893  -8.2816  -4.1881  -0.0863   6.1891   9.5737   9.6551

     occupation numbers 
     1.0000   1.0000   1.0000   1.0000   0.0000   0.0000   0.0000   0.0000

          k = 0.0840 0.1456 0.0000 (  4065 PWs)   bands (ev):

   -20.9043  -9.0768  -6.4280  -5.8120   2.2076   3.2914   3.8193   5.8224

     occupation numbers 
     1.0000   1.0000   1.0000   1.0000   0.0000   0.0000   0.0000   0.0000

          k = 0.0840 0.2426 0.0000 (  4067 PWs)   bands (ev):

   -20.2421  -8.2791  -8.1493  -6.8514   3.1175   4.2050   4.7519   6.5895

     occupation numbers 
     1.0000   1.0000   1.0000   1.0000   0.0000   0.0000   0.0000   0.0000

          k = 0.0840 0.3396 0.0000 (  4065 PWs)   bands (ev):

   -19.2588 -10.2524  -7.7689  -7.1184   4.3635   4.4774   5.6024   6.1484

     occupation numbers 
     1.0000   1.0000   1.0000   1.0000   0.0000   0.0000   0.0000   0.0000

          k = 0.0840 0.4367 0.0000 (  4072 PWs)   bands (ev):

   -17.9702 -12.4156  -8.4255  -5.6800   2.0716   6.2681   7.0900   7.3904

     occupation numbers 
     1.0000   1.0000   1.0000   1.0000   0.0000   0.0000   0.0000   0.0000

          k = 0.0840 0.5337 0.0000 (  4077 PWs)   bands (ev):

   -16.4283 -14.4265  -8.7651  -4.3051   0.2171   6.9204   8.5183   9.5494

     occupation numbers 
     1.0000   1.0000   1.0000   1.0000   0.0000   0.0000   0.0000   0.0000

          k = 0.1681 0.2911 0.0000 (  4066 PWs)   bands (ev):

   -19.4223  -9.4667  -8.2739  -7.3049   4.2533   4.8522   5.3377   5.9182

     occupation numbers 
     1.0000   1.0000   1.0000   1.0000   0.0000   0.0000   0.0000   0.0000

          k = 0.1681 0.3882 0.0000 (  4070 PWs)   bands (ev):

   -18.2915 -11.2246  -9.3527  -6.0002   2.8325   5.8329   6.8897   7.5483

     occupation numbers 
     1.0000   1.0000   1.0000   1.0000   0.0000   0.0000   0.0000   0.0000

          k = 0.1681 0.4852 0.0000 (  4053 PWs)   bands (ev):

   -16.8778 -13.1920  -9.9296  -4.5098   0.8397   7.8317   8.7357   8.8139

     occupation numbers 
     1.0000   1.0000   1.0000   1.0000   0.0000   0.0000   0.0000   0.0000

          k = 0.1681 0.5822 0.0000 (  4052 PWs)   bands (ev):

   -15.5243 -14.7523 -10.1153  -3.5689  -0.2836   8.7250   9.9070  10.1380

     occupation numbers 
     1.0000   1.0000   1.0000   1.0000   0.0000   0.0000   0.0000   0.0000

          k = 0.2521 0.4367 0.0000 (  4056 PWs)   bands (ev):

   -17.0334 -12.2227 -10.9181  -4.6010   1.1693   7.6136   8.4055   9.4069

     occupation numbers 
     1.0000   1.0000   1.0000   1.0000   0.0000   0.0000   0.0000   0.0000

          k = 0.2521 0.5337 0.0000 (  4038 PWs)   bands (ev):

   -15.5533 -13.7111 -11.6254  -3.1524  -0.4091   9.0726   9.7451  10.9394

     occupation numbers 
     1.0000   1.0000   1.0000   1.0000   0.0000   0.0000   0.0000   0.0000

          k = 0.3361 0.5822 0.0000 (  4056 PWs)   bands (ev):

   -14.2761 -14.2761 -12.6610  -1.7450  -1.7450   8.7375  11.4286  11.4286

     occupation numbers 
     1.0000   1.0000   1.0000   0.5000   0.5000   0.0000   0.0000   0.0000

     the Fermi energy is    -1.7260 ev

!    total energy              =     -24.11618656 Ry
     estimated scf accuracy    <          2.4E-09 Ry
     smearing contrib. (-TS)   =      -0.00009116 Ry
     internal energy E=F+TS    =     -24.11609540 Ry

[...]
          120 deg rotation - cryst. axis [0,0,1]                 
     C2       2
          180 deg rotation - cart. axis [0,0,1]                  
     3C2'     4   12   11
          180 deg rotation - cart. axis [1,0,0]                  
     3C2''    3    9   10
          180 deg rotation - cart. axis [0,1,0]                  
     i       13
          inversion                                              
     2S3     17   18
          inv.  60 deg rotation - cryst. axis [0,0,1]            
     2S6     19   20
          inv. 120 deg rotation - cryst. axis [0,0,1]            
     s_h     14
          inv. 180 deg rotation - cart. axis [0,0,1]             
     3s_d    16   24   23
          inv. 180 deg rotation - cart. axis [1,0,0]             
     3s_v    15   21   22
          inv. 180 deg rotation - cart. axis [0,1,0]             

   Cartesian axes

     site n.     atom                  positions (alat units)
         1           C   tau(   1) = (   0.0000000   0.0000000   0.0000000  )
         2           C   tau(   2) = (  -0.0000000   0.5755158   0.0000000  )

   Crystallographic axes

     site n.     atom                  positions (cryst. coord.)
         1           C   tau(   1) = (  0.0000000  0.0000000 -0.0000000  )
         2           C   tau(   2) = (  0.3333333  0.6666667  0.0000000  )

     number of k points=    19  Marzari-Vanderbilt smearing, width (Ry)=  0.0100
                       cart. coord. in units 2pi/alat
        k(    1) = (   0.0000000   0.0000000   0.0000000), wk =   0.0138889
        k(    2) = (  -0.0000000   0.0965318   0.0000000), wk =   0.0833333
        k(    3) = (  -0.0000000   0.1930635   0.0000000), wk =   0.0833333
        k(    4) = (  -0.0000000   0.2895953   0.0000000), wk =   0.0833333
        k(    5) = (  -0.0000000   0.3861270   0.0000000), wk =   0.0833333
        k(    6) = (  -0.0000000   0.4826588   0.0000000), wk =   0.0833333
        k(    7) = (   0.0000000  -0.5791905  -0.0000000), wk =   0.0416667
        k(    8) = (   0.0835990   0.1447976   0.0000000), wk =   0.0833333
        k(    9) = (   0.0835990   0.2413294   0.0000000), wk =   0.1666667
        k(   10) = (   0.0835990   0.3378612   0.0000000), wk =   0.1666667
        k(   11) = (   0.0835990   0.4343929   0.0000000), wk =   0.1666667
        k(   12) = (   0.0835990   0.5309247   0.0000000), wk =   0.1666667
        k(   13) = (   0.1671979   0.2895953   0.0000000), wk =   0.0833333
        k(   14) = (   0.1671979   0.3861270   0.0000000), wk =   0.1666667
        k(   15) = (   0.1671979   0.4826588   0.0000000), wk =   0.1666667
        k(   16) = (   0.1671979   0.5791905   0.0000000), wk =   0.0833333
        k(   17) = (   0.2507969   0.4343929   0.0000000), wk =   0.0833333
        k(   18) = (   0.2507969   0.5309247   0.0000000), wk =   0.1666667
        k(   19) = (   0.3343958   0.5791905   0.0000000), wk =   0.0277778

                       cryst. coord.
        k(    1) = (   0.0000000   0.0000000   0.0000000), wk =   0.0138889
        k(    2) = (   0.0000000   0.0833333  -0.0000000), wk =   0.0833333
        k(    3) = (   0.0000000   0.1666667  -0.0000000), wk =   0.0833333
        k(    4) = (   0.0000000   0.2500000  -0.0000000), wk =   0.0833333
        k(    5) = (   0.0000000   0.3333333  -0.0000000), wk =   0.0833333
        k(    6) = (   0.0000000   0.4166667  -0.0000000), wk =   0.0833333
        k(    7) = (  -0.0000000  -0.5000000   0.0000000), wk =   0.0416667
        k(    8) = (   0.0833333   0.0833333   0.0000000), wk =   0.0833333
        k(    9) = (   0.0833333   0.1666667   0.0000000), wk =   0.1666667
        k(   10) = (   0.0833333   0.2500000  -0.0000000), wk =   0.1666667
        k(   11) = (   0.0833333   0.3333333  -0.0000000), wk =   0.1666667
        k(   12) = (   0.0833333   0.4166667  -0.0000000), wk =   0.1666667
        k(   13) = (   0.1666667   0.1666667   0.0000000), wk =   0.0833333
        k(   14) = (   0.1666667   0.2500000   0.0000000), wk =   0.1666667
        k(   15) = (   0.1666667   0.3333333   0.0000000), wk =   0.1666667
        k(   16) = (   0.1666667   0.4166667   0.0000000), wk =   0.0833333
        k(   17) = (   0.2500000   0.2500000  -0.0000000), wk =   0.0833333
        k(   18) = (   0.2500000   0.3333333   0.0000000), wk =   0.1666667
        k(   19) = (   0.3333333   0.3333333   0.0000000), wk =   0.0277778

     Dense  grid:    17583 G-vectors     FFT dimensions: (  24,  24,  75)

     Dynamical RAM for                 wfc:       0.27 MB

     Dynamical RAM for     wfc (w. buffer):       5.37 MB

     Dynamical RAM for           str. fact:       0.27 MB

     Dynamical RAM for           local pot:       0.25 MB

     Dynamical RAM for          nlocal pot:       0.54 MB

     Dynamical RAM for                qrad:       0.71 MB

     Dynamical RAM for          rho,v,vnew:       1.79 MB

     Dynamical RAM for               rhoin:       0.60 MB

     Dynamical RAM for            rho*nmix:       4.29 MB

     Dynamical RAM for           G-vectors:       1.14 MB

     Dynamical RAM for          h,s,v(r/c):       0.01 MB

     Dynamical RAM for          <psi|beta>:       0.00 MB

     Dynamical RAM for                 psi:       0.54 MB

     Dynamical RAM for                hpsi:       0.54 MB

     Dynamical RAM for      wfcinit/wfcrot:       0.54 MB

     Estimated static dynamical RAM per process >      17.14 MB

     Estimated max dynamical RAM per process >      18.23 MB

     Initial potential from superposition of free atoms

     starting charge    7.99992, renormalised to    8.00000
     Starting wfcs are    8 randomized atomic wfcs

     total cpu time spent up to now is      532.0 secs

     Self-consistent Calculation

     iteration #  1     ecut=    60.00 Ry     beta= 0.70
     Davidson diagonalization with overlap
     c_bands:  1 eigenvalues not converged
     c_bands:  1 eigenvalues not converged
     c_bands:  3 eigenvalues not converged
     c_bands:  1 eigenvalues not converged
     c_bands:  1 eigenvalues not converged
     c_bands:  1 eigenvalues not converged
     c_bands:  1 eigenvalues not converged
     c_bands:  1 eigenvalues not converged
     c_bands:  1 eigenvalues not converged
     c_bands:  1 eigenvalues not converged
     c_bands:  1 eigenvalues not converged
     ethr =  1.00E-06,  avg # of iterations = 19.1

     total cpu time spent up to now is      536.3 secs

     total energy              =     -24.07538904 Ry
     estimated scf accuracy    <       0.22526448 Ry

     iteration #  2     ecut=    60.00 Ry     beta= 0.70
     Davidson diagonalization with overlap
     ethr =  2.82E-03,  avg # of iterations =  2.3

     total cpu time spent up to now is      537.5 secs

     total energy              =     -24.11480276 Ry
     estimated scf accuracy    <       0.00291866 Ry

     iteration #  3     ecut=    60.00 Ry     beta= 0.70
     Davidson diagonalization with overlap
     ethr =  3.65E-05,  avg # of iterations =  4.8

     total cpu time spent up to now is      539.0 secs

     total energy              =     -24.11518090 Ry
     estimated scf accuracy    <       0.00017441 Ry

     iteration #  4     ecut=    60.00 Ry     beta= 0.70
     Davidson diagonalization with overlap
     ethr =  2.18E-06,  avg # of iterations =  4.1

     total cpu time spent up to now is      540.4 secs

     total energy              =     -24.11519907 Ry
     estimated scf accuracy    <       0.00000207 Ry

     iteration #  5     ecut=    60.00 Ry     beta= 0.70
     Davidson diagonalization with overlap
     ethr =  2.58E-08,  avg # of iterations =  3.3

     total cpu time spent up to now is      541.8 secs

     total energy              =     -24.11520064 Ry
     estimated scf accuracy    <       0.00000004 Ry

     iteration #  6     ecut=    60.00 Ry     beta= 0.70
     Davidson diagonalization with overlap
     ethr =  4.88E-10,  avg # of iterations =  2.5

     total cpu time spent up to now is      542.9 secs

     End of self-consistent calculation

          k = 0.0000 0.0000 0.0000 (  2173 PWs)   bands (ev):

   -19.2055  -7.5016  -2.6761  -2.6761   3.3809   6.0726   8.8612   8.8612

     occupation numbers 
     1.0000   1.0000   1.0000   1.0000   0.0000   0.0000   0.0000   0.0000

          k =-0.0000 0.0965 0.0000 (  2202 PWs)   bands (ev):

   -19.0403  -7.3011  -3.3255  -3.0276   3.6066   6.2914   8.1876   8.9520

     occupation numbers 
     1.0000   1.0000   1.0000   1.0000   0.0000   0.0000   0.0000   0.0000

          k =-0.0000 0.1931 0.0000 (  2210 PWs)   bands (ev):

   -18.5459  -6.7037  -4.9600  -3.8470   4.2841   6.9419   8.6987   9.1001

     occupation numbers 
     1.0000   1.0000   1.0000   1.0000   0.0000   0.0000   0.0000   0.0000

          k =-0.0000 0.2896 0.0000 (  2216 PWs)   bands (ev):

   -17.7278  -7.0649  -5.7287  -4.7543   5.4116   7.5814   8.1728   8.6659

     occupation numbers 
     1.0000   1.0000   1.0000   1.0000   0.0000   0.0000   0.0000   0.0000

          k =-0.0000 0.3861 0.0000 (  2202 PWs)   bands (ev):

   -16.5969  -9.2822  -5.5091  -4.4255   5.3178   6.9810   8.4047   9.5634

     occupation numbers 
     1.0000   1.0000   1.0000   1.0000   0.0000   0.0000   0.0000   0.0000

          k =-0.0000 0.4827 0.0000 (  2202 PWs)   bands (ev):

   -15.1781 -11.4078  -5.9960  -2.9579   3.1211   8.1662   9.0188  11.4134

     occupation numbers 
     1.0000   1.0000   1.0000   1.0000   0.0000   0.0000   0.0000   0.0000

          k = 0.0000-0.5792-0.0000 (  2204 PWs)   bands (ev):

   -13.8171 -13.0132  -6.1636  -2.0799   1.9836   8.1001  11.3835  11.4646

     occupation numbers 
     1.0000   1.0000   1.0000   1.0000   0.0000   0.0000   0.0000   0.0000

          k = 0.0836 0.1448 0.0000 (  2213 PWs)   bands (ev):

   -18.7105  -6.9019  -4.3521  -3.7286   4.0585   6.7271   8.5970   9.2849

     occupation numbers 
     1.0000   1.0000   1.0000   1.0000   0.0000   0.0000   0.0000   0.0000

          k = 0.0836 0.2413 0.0000 (  2207 PWs)   bands (ev):

   -18.0542  -6.1140  -6.0598  -4.7541   4.9619   7.5783   8.5893   9.2532

     occupation numbers 
     1.0000   1.0000   1.0000   1.0000   0.0000   0.0000   0.0000   0.0000

          k = 0.0836 0.3379 0.0000 (  2211 PWs)   bands (ev):

   -17.0799  -8.1459  -5.6604  -4.9689   6.3128   6.3650   8.8928   9.2178

     occupation numbers 
     1.0000   1.0000   1.0000   1.0000   0.0000   0.0000   0.0000   0.0000

          k = 0.0836 0.4344 0.0000 (  2193 PWs)   bands (ev):

   -15.8035 -10.2882  -6.3090  -3.5492   4.1036   8.0971   8.9973  10.5330

     occupation numbers 
     1.0000   1.0000   1.0000   1.0000   0.0000   0.0000   0.0000   0.0000

          k = 0.0836 0.5309 0.0000 (  2202 PWs)   bands (ev):

   -14.2819 -12.2751  -6.6449  -2.1950   2.2791   8.8281  10.3303  12.3536

     occupation numbers 
     1.0000   1.0000   1.0000   1.0000   0.0000   0.0000   0.0000   0.0000

          k = 0.1672 0.2896 0.0000 (  2210 PWs)   bands (ev):

   -17.2419  -7.3733  -6.1555  -5.1524   6.0896   6.8340   8.6299  10.3677

     occupation numbers 
     1.0000   1.0000   1.0000   1.0000   0.0000   0.0000   0.0000   0.0000

          k = 0.1672 0.3861 0.0000 (  2188 PWs)   bands (ev):

   -16.1214  -9.1143  -7.2245  -3.8642   4.8473   7.6595  10.0009  10.8495

     occupation numbers 
     1.0000   1.0000   1.0000   1.0000   0.0000   0.0000   0.0000   0.0000

          k = 0.1672 0.4827 0.0000 (  2186 PWs)   bands (ev):

   -14.7226 -11.0597  -7.7985  -2.3948   2.8852   9.6511  10.7109  11.4272

     occupation numbers 
     1.0000   1.0000   1.0000   1.0000   0.0000   0.0000   0.0000   0.0000

          k = 0.1672 0.5792 0.0000 (  2200 PWs)   bands (ev):

   -13.4013 -12.5861  -7.9835  -1.4703   1.7809  10.6212  11.9588  12.0703

     occupation numbers 
     1.0000   1.0000   1.0000   1.0000   0.0000   0.0000   0.0000   0.0000

          k = 0.2508 0.4344 0.0000 (  2186 PWs)   bands (ev):

   -14.8759 -10.1148  -8.7655  -2.4838   3.2065   9.4322  11.0152  12.7238

     occupation numbers 
     1.0000   1.0000   1.0000   1.0000   0.0000   0.0000   0.0000   0.0000

          k = 0.2508 0.5309 0.0000 (  2185 PWs)   bands (ev):

   -13.4152 -11.5803  -9.4704  -1.0565   1.6507  11.1843  11.5666  12.8293

     occupation numbers 
     1.0000   1.0000   1.0000   1.0000   0.0000   0.0000   0.0000   0.0000

          k = 0.3344 0.5792 0.0000 (  2178 PWs)   bands (ev):

   -12.1580 -12.1580 -10.4705   0.3313   0.3313  10.8077  13.3035  13.3035

     occupation numbers 
     1.0000   1.0000   1.0000   0.5000   0.5000   0.0000   0.0000   0.0000

     the Fermi energy is     0.3502 ev

!    total energy              =     -24.11520066 Ry
     estimated scf accuracy    <          1.7E-09 Ry
     smearing contrib. (-TS)   =      -0.00009116 Ry
     internal energy E=F+TS    =     -24.11510950 Ry

     The total energy is F=E-TS. E is the sum of the following terms:
     one-electron contribution =     -65.42069543 Ry
     hartree contribution      =      34.82105175 Ry
     xc contribution           =      -8.57192065 Ry
     ewald contribution        =      15.05645483 Ry

     convergence has been achieved in   6 iterations

     Forces acting on atoms (cartesian axes, Ry/au):

     atom    1 type  1   force =    -0.00000000    0.00000000    0.00000000
     atom    2 type  1   force =     0.00000000   -0.00000000   -0.00000000
     The non-local contrib.  to forces
     atom    1 type  1   force =     0.00000000   -0.00000000   -0.00000000
     atom    2 type  1   force =     0.00000000   -0.00000000    0.00000000
     The ionic contribution  to forces
     atom    1 type  1   force =    -0.00000001    0.00000001    0.00000000
     atom    2 type  1   force =     0.00000001   -0.00000001   -0.00000000
     The local contribution  to forces
     atom    1 type  1   force =     0.00000000   -0.00000000   -0.00000000
     atom    2 type  1   force =     0.00000001   -0.00000000   -0.00000000
     The core correction contribution to forces
     atom    1 type  1   force =     0.00000000   -0.00000000   -0.00000000
     atom    2 type  1   force =    -0.00000000    0.00000000   -0.00000000
     The Hubbard contrib.    to forces
     atom    1 type  1   force =     0.00000000    0.00000000    0.00000000
     atom    2 type  1   force =     0.00000000    0.00000000    0.00000000
     The SCF correction term to forces
     atom    1 type  1   force =     0.00000000   -0.00000000   -0.00000000
     atom    2 type  1   force =    -0.00000000    0.00000000    0.00000000

     Total force =     0.000000     Total SCF correction =     0.000000


     Computing stress (Cartesian axis) and pressure

          total   stress  (Ry/bohr**3)                   (kbar)     P=      -14.48
  -0.00007064   0.00000000   0.00000000          -10.39        0.00        0.00
   0.00000000  -0.00007064   0.00000000            0.00      -10.39        0.00
   0.00000000   0.00000000  -0.00015401            0.00        0.00      -22.66

     kinetic stress (kbar)   5770.52     -0.00     -0.00
                               -0.00   5770.52     -0.00
                               -0.00     -0.00   6314.60

     local   stress (kbar) -40006.88      0.00      0.00
                                0.00 -40006.88     -0.00
                                0.00     -0.00  41834.36

     nonloc. stress (kbar)   -704.35     -0.00     -0.00
                               -0.00   -704.35      0.00
                                0.00      0.00   -588.57

     hartree stress (kbar)  17867.02      0.00     -0.00
                                0.00  17867.02     -0.00
                               -0.00     -0.00 -17443.95

     exc-cor stress (kbar)   -446.24      0.00      0.00
                                0.00   -446.24      0.00
                                0.00      0.00   -446.24

     corecor stress (kbar)   -868.36      0.00     -0.00
                                0.00   -868.36      0.00
                               -0.00      0.00   -845.60

     ewald   stress (kbar)  18377.90     -0.00     -0.00
                               -0.00  18377.90     -0.00
                               -0.00     -0.00 -28847.25

     hubbard stress (kbar)      0.00      0.00      0.00
                                0.00      0.00      0.00
                                0.00      0.00      0.00

     DFT-D   stress (kbar)      0.00      0.00      0.00
                                0.00      0.00      0.00
                                0.00      0.00      0.00

     XDM     stress (kbar)      0.00      0.00      0.00
                                0.00      0.00      0.00
                                0.00      0.00      0.00

     dft-nl  stress (kbar)      0.00      0.00      0.00
                                0.00      0.00      0.00
                                0.00      0.00      0.00

     TS-vdW  stress (kbar)      0.00      0.00      0.00
                                0.00      0.00      0.00
                                0.00      0.00      0.00



     Writing output data file ./tmp/graphene.save/

     init_run     :      3.58s CPU      2.58s WALL (       2 calls)
     electrons    :    976.32s CPU    420.70s WALL (      24 calls)
     update_pot   :     43.89s CPU     41.65s WALL (      22 calls)
     forces       :     35.24s CPU     28.03s WALL (      24 calls)
     stress       :     65.65s CPU     51.42s WALL (      24 calls)

     Called by init_run:
     wfcinit      :      1.41s CPU      0.54s WALL (       2 calls)
     wfcinit:atom :      0.05s CPU      0.02s WALL (      38 calls)
     wfcinit:wfcr :      1.15s CPU      0.45s WALL (      38 calls)
     potinit      :      0.59s CPU      0.59s WALL (       2 calls)
     hinit0       :      1.51s CPU      1.41s WALL (       2 calls)

     Called by electrons:
     c_bands      :    902.60s CPU    374.48s WALL (     181 calls)
     sum_band     :     71.30s CPU     43.71s WALL (     181 calls)
     v_of_rho     :      1.29s CPU      1.27s WALL (     205 calls)
     v_h          :      0.37s CPU      0.37s WALL (     205 calls)
     v_xc         :      1.52s CPU      1.19s WALL (     253 calls)
     mix_rho      :      0.95s CPU      1.02s WALL (     181 calls)

     Called by c_bands:
     init_us_2    :     22.99s CPU      9.36s WALL (    7828 calls)
     cegterg      :    854.27s CPU    355.95s WALL (    3439 calls)

     Called by sum_band:
     sum_band:wei :      0.13s CPU      0.04s WALL (     181 calls)
     sum_band:loo :     69.71s CPU     42.24s WALL (     181 calls)
     sum_band:buf :      0.58s CPU      0.35s WALL (    3439 calls)
     sum_band:ini :      6.42s CPU      3.81s WALL (    3439 calls)

     Called by *egterg:
     cdiaghg      :     10.18s CPU      3.03s WALL (   16491 calls)
     cegterg:over :     21.24s CPU      7.60s WALL (   13470 calls)
     cegterg:upda :     15.68s CPU      5.54s WALL (   13470 calls)
     cegterg:last :     16.97s CPU      5.76s WALL (    8724 calls)
     h_psi        :    765.94s CPU    327.16s WALL (   16947 calls)
     g_psi        :     11.63s CPU      3.03s WALL (   13470 calls)

     Called by h_psi:
     h_psi:calbec :     43.13s CPU     30.76s WALL (   16947 calls)
     vloc_psi     :    705.28s CPU    289.78s WALL (   16947 calls)
     add_vuspsi   :     12.58s CPU      5.12s WALL (   16947 calls)

     General routines
     calbec       :     45.75s CPU     31.84s WALL (   19227 calls)
     fft          :      1.36s CPU      1.17s WALL (     805 calls)
     ffts         :      0.30s CPU      0.30s WALL (     181 calls)
     fftw         :    646.53s CPU    278.09s WALL (  198136 calls)

     Parallel routines

     PWSCF        :  18m45.95s CPU   9m 4.99s WALL


   This run was terminated on:  16:56:58  14Feb2024            

=------------------------------------------------------------------------------=
   JOB DONE.
=------------------------------------------------------------------------------=
