
     Program BANDS v.7.2 starts on 12Apr2024 at 16:30:32 

     This program is part of the open-source Quantum ESPRESSO suite
     for quantum simulation of materials; please cite
         "P. Giannozzi et al., J. Phys.:Condens. Matter 21 395502 (2009);
         "P. Giannozzi et al., J. Phys.:Condens. Matter 29 465901 (2017);
         "P. Giannozzi et al., J. Chem. Phys. 152 154105 (2020);
          URL http://www.quantum-espresso.org", 
     in publications or presentations arising from this work. More details at
     http://www.quantum-espresso.org/quote

     Parallel version (MPI & OpenMP), running on       8 processor cores
     Number of MPI processes:                 8
     Threads/MPI process:                     1

     MPI processes distributed on     1 nodes
     R & G space division:  proc/nbgrp/npool/nimage =       8
     0 MiB available memory on the printing compute node when the environment starts


     Reading xml data from directory:

     ./tmp/BN2L_AB_PBE_vdW.save/

     IMPORTANT: XC functional enforced from input :
     Exchange-correlation= VDW-DF2-B86R
                           (   1   4  26   0   2   0   0)
     Any further DFT definition will be discarded
     Please, verify this is what you really want


     Parallelization info
     --------------------
     sticks:   dense  smooth     PW     G-vecs:    dense   smooth      PW
     Min          45      45     15                 5775     5775    1005
     Max          46      46     16                 5804     5804    1022
     Sum         367     367    121                46381    46381    8133

     Using Slab Decomposition



     %%%%%%%%%%%%%%%%%%%%%%%%%%%%%%%%%%%%%%%%%%%%%%%%%%%%%%%%%%%%%%%%%%%%%%%%
     %                                                                      %
     % You are using vdW-DF, which was implemented by the Thonhauser group. %
     % Please cite the following two papers that made this development      %
     % possible and the two reviews that describe the various versions:     %
     %                                                                      %
     %   T. Thonhauser et al., PRL 115, 136402 (2015).                      %
     %   T. Thonhauser et al., PRB 76, 125112 (2007).                       %
     %   K. Berland et al., Rep. Prog. Phys. 78, 066501 (2015).             %
     %   D.C. Langreth et al., J. Phys.: Condens. Matter 21, 084203 (2009). %
     %                                                                      %
     % If you are calculating stress with vdW-DF, please also cite:         %
     %                                                                      %
     %   R. Sabatini et al., J. Phys.: Condens. Matter 24, 424209 (2012).   %
     %                                                                      %
     %%%%%%%%%%%%%%%%%%%%%%%%%%%%%%%%%%%%%%%%%%%%%%%%%%%%%%%%%%%%%%%%%%%%%%%%

     %%%%%%%%%%%%%%%%%%%%%%%%%%%%%%%%%%%%%%%%%%%%%%%%%%%%%%%%%%%%%%%%%%%%%%%%
     %                                                                      %
     %  vdW-DF NEWS:                                                        %
     %                                                                      %
     %  * vdW-DF3 is now available. DOI: 10.1021/acs.jctc.0c00471           %
     %    use with input_dft = 'vdW-DF3-opt1' or 'vdW-DF3-opt2'             %
     %                                                                      %
     %  * Unscreened and range-separated hybrid vdW-DF-cx functionals       %
     %    DOI: 10.1063/1.4986522 and 10.1088/1361-648X/ac2ad2               %
     %    use with input_dft = 'vdW-DF-cx0'    and 'vdW-DF-ahcx'            %
     %  * Unscreened and range-separated hybrid vdW-DF2-b86r functionals    %
     %    DOI: 10.1063/1.4986522 and DOI: 10.1103/PhysRevX.12.041003        %
     %    use with input_dft = 'vdW-DF2-br0' and 'vdW-DF2-ahbr'             %
     %                                                                      %
     %%%%%%%%%%%%%%%%%%%%%%%%%%%%%%%%%%%%%%%%%%%%%%%%%%%%%%%%%%%%%%%%%%%%%%%%


     Reading collected, re-writing distributed wavefunctions
     high-symmetry point:  0.0000 0.0000 0.0000   x coordinate   0.0000
     high-symmetry point: -0.3333 0.5774 0.0000   x coordinate   0.6667
     high-symmetry point:  0.0000 0.5774 0.0000   x coordinate   1.0000
     high-symmetry point:  0.0000 0.0000 0.0000   x coordinate   1.5773

     Plottable bands (eV) written to file Bande_BN2L_AB_PBE_vdW.dat.gnu
     Bands written to file Bande_BN2L_AB_PBE_vdW.dat

 **************************************************************************

                    xk=(   0.00000,   0.00000,   0.00000  )

     point group C_3v (3m)  
     there are  3 classes
     the character table:

       E     2C3   3s_v 
A_1    1.00  1.00  1.00
A_2    1.00  1.00 -1.00
E      2.00 -1.00  0.00

     the symmetry operations in each class and the name of the first element:

     E        1
                                                                 
     2C3      2    3
                                                                 
     3s_v     4    5    6
                                                                 

     Band symmetry, C_3v (3m)   point group:

     e(  1 -  1) =    -20.17085  eV     1   --> A_1  L_1       
     e(  2 -  2) =    -20.01017  eV     1   --> A_1  L_1       
     e(  3 -  3) =     -8.26336  eV     1   --> A_1  L_1       
     e(  4 -  4) =     -7.15086  eV     1   --> A_1  L_1       
     e(  5 -  6) =     -3.85275  eV     2   --> E    L_3       
     e(  7 -  8) =     -3.84968  eV     2   --> E    L_3       
     e(  9 -  9) =      2.03424  eV     1   --> A_1  L_1       
     e( 10 - 10) =      2.55985  eV     1   --> A_1  L_1       
     e( 11 - 11) =      3.60027  eV     1   --> A_1  L_1       
     e( 12 - 12) =      4.67667  eV     1   --> A_1  L_1       
     e( 13 - 13) =      4.82086  eV     1   --> A_1  L_1       
     e( 14 - 14) =      6.56055  eV     1   --> A_1  L_1       
     e( 15 - 15) =      7.28468  eV     1   --> A_1  L_1       
     e( 16 - 16) =      9.12885  eV     1   --> A_1  L_1       
     e( 17 - 18) =      9.20035  eV     2   --> E    L_3       
     e( 19 - 20) =      9.21835  eV     2   --> E    L_3       

 **************************************************************************

 **************************************************************************

                    xk=(  -0.01587,   0.02749,   0.00000  )

     point group C_1 (1)    
     there are  1 classes
     the character table:

       E    
A      1.00

     the symmetry operations in each class and the name of the first element:

     E        1
                                                                 

     Band symmetry, C_1 (1)     point group:

     e(  1 -  1) =    -20.15630  eV     1   --> A              
     e(  2 -  2) =    -19.99586  eV     1   --> A              
     e(  3 -  3) =     -8.24337  eV     1   --> A              
     e(  4 -  4) =     -7.13232  eV     1   --> A              
     e(  5 -  5) =     -3.91665  eV     1   --> A              
     e(  6 -  6) =     -3.91244  eV     1   --> A              
     e(  7 -  7) =     -3.88198  eV     1   --> A              
     e(  8 -  8) =     -3.87909  eV     1   --> A              
     e(  9 -  9) =      2.05996  eV     1   --> A              
     e( 10 - 10) =      2.58316  eV     1   --> A              
     e( 11 - 11) =      3.62466  eV     1   --> A              
     e( 12 - 12) =      4.70032  eV     1   --> A              
     e( 13 - 13) =      4.84381  eV     1   --> A              
     e( 14 - 14) =      6.57661  eV     1   --> A              
     e( 15 - 15) =      7.30758  eV     1   --> A              
     e( 16 - 16) =      9.11786  eV     1   --> A              
     e( 17 - 17) =      9.20017  eV     1   --> A              
     e( 18 - 18) =      9.20551  eV     1   --> A              
     e( 19 - 19) =      9.26495  eV     1   --> A              
     e( 20 - 20) =      9.28382  eV     1   --> A              

 **************************************************************************

 **************************************************************************

                    xk=(  -0.03175,   0.05499,   0.00000  )

     Band symmetry, C_1 (1)     point group:

     e(  1 -  1) =    -20.11245  eV     1   --> A              
     e(  2 -  2) =    -19.95287  eV     1   --> A              
     e(  3 -  3) =     -8.18350  eV     1   --> A              
     e(  4 -  4) =     -7.07614  eV     1   --> A              
     e(  5 -  5) =     -4.10045  eV     1   --> A              
     e(  6 -  6) =     -4.09341  eV     1   --> A              
     e(  7 -  7) =     -3.96931  eV     1   --> A              
     e(  8 -  8) =     -3.96709  eV     1   --> A              
     e(  9 -  9) =      2.13643  eV     1   --> A              
     e( 10 - 10) =      2.65290  eV     1   --> A              
     e( 11 - 11) =      3.69765  eV     1   --> A              
     e( 12 - 12) =      4.77112  eV     1   --> A              
     e( 13 - 13) =      4.91163  eV     1   --> A              
     e( 14 - 14) =      6.62378  eV     1   --> A              
     e( 15 - 15) =      7.37500  eV     1   --> A              
     e( 16 - 16) =      9.09084  eV     1   --> A              
     e( 17 - 17) =      9.15966  eV     1   --> A              
     e( 18 - 18) =      9.21988  eV     1   --> A              
     e( 19 - 19) =      9.44643  eV     1   --> A              
     e( 20 - 20) =      9.47402  eV     1   --> A              

 **************************************************************************

 **************************************************************************

                    xk=(  -0.04762,   0.08248,   0.00000  )

     Band symmetry, C_1 (1)     point group:

     e(  1 -  1) =    -20.03953  eV     1   --> A              
     e(  2 -  2) =    -19.88142  eV     1   --> A              
     e(  3 -  3) =     -8.08391  eV     1   --> A              
     e(  4 -  4) =     -6.98245  eV     1   --> A              
     e(  5 -  5) =     -4.38944  eV     1   --> A              
     e(  6 -  6) =     -4.37858  eV     1   --> A              
     e(  7 -  7) =     -4.11130  eV     1   --> A              
     e(  8 -  8) =     -4.11008  eV     1   --> A              
     e(  9 -  9) =      2.26182  eV     1   --> A              
     e( 10 - 10) =      2.76844  eV     1   --> A              
     e( 11 - 11) =      3.81884  eV     1   --> A              
     e( 12 - 12) =      4.88851  eV     1   --> A              
     e( 13 - 13) =      5.02127  eV     1   --> A              
     e( 14 - 14) =      6.69811  eV     1   --> A              
     e( 15 - 15) =      7.48333  eV     1   --> A              
     e( 16 - 16) =      9.05655  eV     1   --> A              
     e( 17 - 17) =      9.11892  eV     1   --> A              
     e( 18 - 18) =      9.23823  eV     1   --> A              
     e( 19 - 19) =      9.70407  eV     1   --> A              
     e( 20 - 20) =      9.77070  eV     1   --> A              

 **************************************************************************

 **************************************************************************

                    xk=(  -0.06349,   0.10997,   0.00000  )

     Band symmetry, C_1 (1)     point group:

     e(  1 -  1) =    -19.93808  eV     1   --> A              
     e(  2 -  2) =    -19.78201  eV     1   --> A              
     e(  3 -  3) =     -7.94487  eV     1   --> A              
     e(  4 -  4) =     -6.85195  eV     1   --> A              
     e(  5 -  5) =     -4.76406  eV     1   --> A              
     e(  6 -  6) =     -4.74934  eV     1   --> A              
     e(  7 -  7) =     -4.30607  eV     1   --> A              
     e(  8 -  8) =     -4.30477  eV     1   --> A              
     e(  9 -  9) =      2.43408  eV     1   --> A              
     e( 10 - 10) =      2.92871  eV     1   --> A              
     e( 11 - 11) =      3.98771  eV     1   --> A              
     e( 12 - 12) =      5.05162  eV     1   --> A              
     e( 13 - 13) =      5.16774  eV     1   --> A              
     e( 14 - 14) =      6.79195  eV     1   --> A              
     e( 15 - 15) =      7.62688  eV     1   --> A              
     e( 16 - 16) =      9.02236  eV     1   --> A              
     e( 17 - 17) =      9.09486  eV     1   --> A              
     e( 18 - 18) =      9.25930  eV     1   --> A              
     e( 19 - 19) =      9.96946  eV     1   --> A              
     e( 20 - 20) =     10.13844  eV     1   --> A              

 **************************************************************************

 **************************************************************************

                    xk=(  -0.07936,   0.13746,   0.00000  )

     Band symmetry, C_1 (1)     point group:

     e(  1 -  1) =    -19.80868  eV     1   --> A              
     e(  2 -  2) =    -19.65522  eV     1   --> A              
     e(  3 -  3) =     -7.76719  eV     1   --> A              
     e(  4 -  4) =     -6.68631  eV     1   --> A              
     e(  5 -  5) =     -5.20214  eV     1   --> A              
     e(  6 -  6) =     -5.18357  eV     1   --> A              
     e(  7 -  7) =     -4.54769  eV     1   --> A              
     e(  8 -  8) =     -4.54432  eV     1   --> A              
     e(  9 -  9) =      2.65171  eV     1   --> A              
     e( 10 - 10) =      3.13252  eV     1   --> A              
     e( 11 - 11) =      4.20376  eV     1   --> A              
     e( 12 - 12) =      5.25931  eV     1   --> A              
     e( 13 - 13) =      5.34377  eV     1   --> A              
     e( 14 - 14) =      6.89331  eV     1   --> A              
     e( 15 - 15) =      7.79576  eV     1   --> A              
     e( 16 - 16) =      8.99152  eV     1   --> A              
     e( 17 - 17) =      9.09107  eV     1   --> A              
     e( 18 - 18) =      9.28670  eV     1   --> A              
     e( 19 - 19) =      9.83838  eV     1   --> A              
     e( 20 - 20) =     10.24237  eV     1   --> A              

 **************************************************************************

 **************************************************************************

                    xk=(  -0.09524,   0.16496,   0.00000  )

     Band symmetry, C_1 (1)     point group:

     e(  1 -  1) =    -19.65221  eV     1   --> A              
     e(  2 -  2) =    -19.50210  eV     1   --> A              
     e(  3 -  3) =     -7.55235  eV     1   --> A              
     e(  4 -  4) =     -6.48833  eV     1   --> A              
     e(  5 -  5) =     -5.68322  eV     1   --> A              
     e(  6 -  6) =     -5.65993  eV     1   --> A              
     e(  7 -  7) =     -4.83058  eV     1   --> A              
     e(  8 -  8) =     -4.82419  eV     1   --> A              
     e(  9 -  9) =      2.91372  eV     1   --> A              
     e( 10 - 10) =      3.37826  eV     1   --> A              
     e( 11 - 11) =      4.46645  eV     1   --> A              
     e( 12 - 12) =      5.50969  eV     1   --> A              
     e( 13 - 13) =      5.53582  eV     1   --> A              
     e( 14 - 14) =      6.98481  eV     1   --> A              
     e( 15 - 15) =      7.96456  eV     1   --> A              
     e( 16 - 16) =      8.96967  eV     1   --> A              
     e( 17 - 17) =      9.08499  eV     1   --> A              
     e( 18 - 18) =      9.33484  eV     1   --> A              
     e( 19 - 19) =      9.57812  eV     1   --> A              
     e( 20 - 20) =     10.48095  eV     1   --> A              

 **************************************************************************

 **************************************************************************

                    xk=(  -0.11111,   0.19245,   0.00000  )

     Band symmetry, C_1 (1)     point group:

     e(  1 -  1) =    -19.46972  eV     1   --> A              
     e(  2 -  2) =    -19.32339  eV     1   --> A              
     e(  3 -  3) =     -7.30249  eV     1   --> A              
     e(  4 -  4) =     -6.30387  eV     1   --> A              
     e(  5 -  5) =     -6.18864  eV     1   --> A              
     e(  6 -  6) =     -6.11642  eV     1   --> A              
     e(  7 -  7) =     -5.14657  eV     1   --> A              
     e(  8 -  8) =     -5.13647  eV     1   --> A              
     e(  9 -  9) =      3.21967  eV     1   --> A              
     e( 10 - 10) =      3.66339  eV     1   --> A              
     e( 11 - 11) =      4.77480  eV     1   --> A              
     e( 12 - 12) =      5.71577  eV     1   --> A              
     e( 13 - 13) =      5.79896  eV     1   --> A              
     e( 14 - 14) =      7.05365  eV     1   --> A              
     e( 15 - 15) =      8.05534  eV     1   --> A              
     e( 16 - 16) =      8.98024  eV     1   --> A              
     e( 17 - 17) =      9.03239  eV     1   --> A              
     e( 18 - 18) =      9.41889  eV     1   --> A              
     e( 19 - 19) =      9.48320  eV     1   --> A              
     e( 20 - 20) =     10.72158  eV     1   --> A              

 **************************************************************************

 **************************************************************************

                    xk=(  -0.12698,   0.21994,   0.00000  )

     Band symmetry, C_1 (1)     point group:

     e(  1 -  1) =    -19.26271  eV     1   --> A              
     e(  2 -  2) =    -19.12089  eV     1   --> A              
     e(  3 -  3) =     -7.03552  eV     1   --> A              
     e(  4 -  4) =     -6.70847  eV     1   --> A              
     e(  5 -  5) =     -6.68827  eV     1   --> A              
     e(  6 -  6) =     -5.96599  eV     1   --> A              
     e(  7 -  7) =     -5.48971  eV     1   --> A              
     e(  8 -  8) =     -5.47479  eV     1   --> A              
     e(  9 -  9) =      3.56916  eV     1   --> A              
     e( 10 - 10) =      3.98312  eV     1   --> A              
     e( 11 - 11) =      5.12539  eV     1   --> A              
     e( 12 - 12) =      5.82382  eV     1   --> A              
     e( 13 - 13) =      6.11706  eV     1   --> A              
     e( 14 - 14) =      7.12277  eV     1   --> A              
     e( 15 - 15) =      7.93113  eV     1   --> A              
     e( 16 - 16) =      9.06182  eV     1   --> A              
     e( 17 - 17) =      9.08056  eV     1   --> A              
     e( 18 - 18) =      9.54643  eV     1   --> A              
     e( 19 - 19) =      9.57234  eV     1   --> A              
     e( 20 - 20) =     10.96952  eV     1   --> A              

 **************************************************************************

 **************************************************************************

                    xk=(  -0.14286,   0.24744,   0.00000  )

     Band symmetry, C_1 (1)     point group:

     e(  1 -  1) =    -19.03331  eV     1   --> A              
     e(  2 -  2) =    -18.89674  eV     1   --> A              
     e(  3 -  3) =     -7.25849  eV     1   --> A              
     e(  4 -  4) =     -7.22553  eV     1   --> A              
     e(  5 -  5) =     -6.66570  eV     1   --> A              
     e(  6 -  6) =     -5.85276  eV     1   --> A              
     e(  7 -  7) =     -5.83612  eV     1   --> A              
     e(  8 -  8) =     -5.67232  eV     1   --> A              
     e(  9 -  9) =      3.96158  eV     1   --> A              
     e( 10 - 10) =      4.32685  eV     1   --> A              
     e( 11 - 11) =      5.48640  eV     1   --> A              
     e( 12 - 12) =      5.80337  eV     1   --> A              
     e( 13 - 13) =      6.42894  eV     1   --> A              
     e( 14 - 14) =      7.26917  eV     1   --> A              
     e( 15 - 15) =      7.65688  eV     1   --> A              
     e( 16 - 16) =      9.23803  eV     1   --> A              
     e( 17 - 17) =      9.31156  eV     1   --> A              
     e( 18 - 18) =      9.71729  eV     1   --> A              
     e( 19 - 19) =      9.75587  eV     1   --> A              
     e( 20 - 20) =     11.22686  eV     1   --> A              

 **************************************************************************

 **************************************************************************

                    xk=(  -0.15873,   0.27493,   0.00000  )

     Band symmetry, C_1 (1)     point group:

     e(  1 -  1) =    -18.78360  eV     1   --> A              
     e(  2 -  2) =    -18.65302  eV     1   --> A              
     e(  3 -  3) =     -7.76074  eV     1   --> A              
     e(  4 -  4) =     -7.73645  eV     1   --> A              
     e(  5 -  5) =     -6.32591  eV     1   --> A              
     e(  6 -  6) =     -6.22444  eV     1   --> A              
     e(  7 -  7) =     -6.20459  eV     1   --> A              
     e(  8 -  8) =     -5.35338  eV     1   --> A              
     e(  9 -  9) =      4.39573  eV     1   --> A              
     e( 10 - 10) =      4.66859  eV     1   --> A              
     e( 11 - 11) =      5.45387  eV     1   --> A              
     e( 12 - 12) =      6.03704  eV     1   --> A              
     e( 13 - 13) =      6.59951  eV     1   --> A              
     e( 14 - 14) =      7.52212  eV     1   --> A              
     e( 15 - 15) =      7.53803  eV     1   --> A              
     e( 16 - 16) =      9.50363  eV     1   --> A              
     e( 17 - 17) =      9.63570  eV     1   --> A              
     e( 18 - 18) =      9.92781  eV     1   --> A              
     e( 19 - 19) =     10.00445  eV     1   --> A              
     e( 20 - 20) =     11.49531  eV     1   --> A              

 **************************************************************************

 **************************************************************************

                    xk=(  -0.17460,   0.30242,   0.00000  )

     Band symmetry, C_1 (1)     point group:

     e(  1 -  1) =    -18.51704  eV     1   --> A              
     e(  2 -  2) =    -18.39337  eV     1   --> A              
     e(  3 -  3) =     -8.25218  eV     1   --> A              
     e(  4 -  4) =     -8.23040  eV     1   --> A              
     e(  5 -  5) =     -6.61372  eV     1   --> A              
     e(  6 -  6) =     -6.58155  eV     1   --> A              
     e(  7 -  7) =     -5.94028  eV     1   --> A              
     e(  8 -  8) =     -5.01054  eV     1   --> A              
     e(  9 -  9) =      4.85463  eV     1   --> A              
     e( 10 - 10) =      4.93304  eV     1   --> A              
     e( 11 - 11) =      5.10861  eV     1   --> A              
     e( 12 - 12) =      6.51639  eV     1   --> A              
     e( 13 - 13) =      6.52561  eV     1   --> A              
     e( 14 - 14) =      7.76591  eV     1   --> A              
     e( 15 - 15) =      7.90424  eV     1   --> A              
     e( 16 - 16) =      9.83813  eV     1   --> A              
     e( 17 - 17) =      9.99913  eV     1   --> A              
     e( 18 - 18) =     10.17053  eV     1   --> A              
     e( 19 - 19) =     10.31174  eV     1   --> A              
     e( 20 - 20) =     11.77316  eV     1   --> A              

 **************************************************************************

 **************************************************************************

                    xk=(  -0.19047,   0.32992,   0.00000  )

     Band symmetry, C_1 (1)     point group:

     e(  1 -  1) =    -18.23781  eV     1   --> A              
     e(  2 -  2) =    -18.12187  eV     1   --> A              
     e(  3 -  3) =     -8.71764  eV     1   --> A              
     e(  4 -  4) =     -8.69714  eV     1   --> A              
     e(  5 -  5) =     -6.99873  eV     1   --> A              
     e(  6 -  6) =     -6.95957  eV     1   --> A              
     e(  7 -  7) =     -5.53498  eV     1   --> A              
     e(  8 -  8) =     -4.65123  eV     1   --> A              
     e(  9 -  9) =      4.62558  eV     1   --> A              
     e( 10 - 10) =      4.96320  eV     1   --> A              
     e( 11 - 11) =      5.40775  eV     1   --> A              
     e( 12 - 12) =      6.55781  eV     1   --> A              
     e( 13 - 13) =      7.05560  eV     1   --> A              
     e( 14 - 14) =      8.22164  eV     1   --> A              
     e( 15 - 15) =      8.33380  eV     1   --> A              
     e( 16 - 16) =     10.21740  eV     1   --> A              
     e( 17 - 17) =     10.37398  eV     1   --> A              
     e( 18 - 18) =     10.43651  eV     1   --> A              
     e( 19 - 19) =     10.67553  eV     1   --> A              
     e( 20 - 20) =     12.05483  eV     1   --> A              

 **************************************************************************

 **************************************************************************

                    xk=(  -0.20635,   0.35741,   0.00000  )

     Band symmetry, C_1 (1)     point group:

     e(  1 -  1) =    -17.95118  eV     1   --> A              
     e(  2 -  2) =    -17.84405  eV     1   --> A              
     e(  3 -  3) =     -9.14834  eV     1   --> A              
     e(  4 -  4) =     -9.12851  eV     1   --> A              
     e(  5 -  5) =     -7.38064  eV     1   --> A              
     e(  6 -  6) =     -7.33381  eV     1   --> A              
     e(  7 -  7) =     -5.11019  eV     1   --> A              
     e(  8 -  8) =     -4.28284  eV     1   --> A              
     e(  9 -  9) =      4.14544  eV     1   --> A              
     e( 10 - 10) =      4.71836  eV     1   --> A              
     e( 11 - 11) =      5.96376  eV     1   --> A              
     e( 12 - 12) =      6.87430  eV     1   --> A              
     e( 13 - 13) =      7.64244  eV     1   --> A              
     e( 14 - 14) =      8.76554  eV     1   --> A              
     e( 15 - 15) =      8.80193  eV     1   --> A              
     e( 16 - 16) =     10.60726  eV     1   --> A              
     e( 17 - 17) =     10.71533  eV     1   --> A              
     e( 18 - 18) =     10.74591  eV     1   --> A              
     e( 19 - 19) =     11.08341  eV     1   --> A              
     e( 20 - 20) =     12.27769  eV     1   --> A              

 **************************************************************************

 **************************************************************************

                    xk=(  -0.22222,   0.38490,   0.00000  )

     Band symmetry, C_1 (1)     point group:

     e(  1 -  1) =    -17.66395  eV     1   --> A              
     e(  2 -  2) =    -17.56698  eV     1   --> A              
     e(  3 -  3) =     -9.53403  eV     1   --> A              
     e(  4 -  4) =     -9.51436  eV     1   --> A              
     e(  5 -  5) =     -7.75519  eV     1   --> A              
     e(  6 -  6) =     -7.69981  eV     1   --> A              
     e(  7 -  7) =     -4.67315  eV     1   --> A              
     e(  8 -  8) =     -3.91440  eV     1   --> A              
     e(  9 -  9) =      3.65811  eV     1   --> A              
     e( 10 - 10) =      4.35258  eV     1   --> A              
     e( 11 - 11) =      6.56051  eV     1   --> A              
     e( 12 - 12) =      7.36316  eV     1   --> A              
     e( 13 - 13) =      8.27244  eV     1   --> A              
     e( 14 - 14) =      9.28335  eV     1   --> A              
     e( 15 - 15) =      9.36457  eV     1   --> A              
     e( 16 - 16) =     10.92020  eV     1   --> A              
     e( 17 - 17) =     11.02374  eV     1   --> A              
     e( 18 - 18) =     11.10682  eV     1   --> A              
     e( 19 - 19) =     11.51360  eV     1   --> A              
     e( 20 - 20) =     12.33922  eV     1   --> A              

 **************************************************************************

 **************************************************************************

                    xk=(  -0.23809,   0.41239,   0.00000  )

     Band symmetry, C_1 (1)     point group:

     e(  1 -  1) =    -17.38485  eV     1   --> A              
     e(  2 -  2) =    -17.29959  eV     1   --> A              
     e(  3 -  3) =     -9.86558  eV     1   --> A              
     e(  4 -  4) =     -9.84553  eV     1   --> A              
     e(  5 -  5) =     -8.11863  eV     1   --> A              
     e(  6 -  6) =     -8.05415  eV     1   --> A              
     e(  7 -  7) =     -4.23349  eV     1   --> A              
     e(  8 -  8) =     -3.55792  eV     1   --> A              
     e(  9 -  9) =      3.18593  eV     1   --> A              
     e( 10 - 10) =      3.96984  eV     1   --> A              
     e( 11 - 11) =      7.19164  eV     1   --> A              
     e( 12 - 12) =      7.93451  eV     1   --> A              
     e( 13 - 13) =      8.93721  eV     1   --> A              
     e( 14 - 14) =      9.73881  eV     1   --> A              
     e( 15 - 15) =     10.00290  eV     1   --> A              
     e( 16 - 16) =     11.08967  eV     1   --> A              
     e( 17 - 17) =     11.34708  eV     1   --> A              
     e( 18 - 18) =     11.44402  eV     1   --> A              
     e( 19 - 19) =     11.91601  eV     1   --> A              
     e( 20 - 20) =     12.26336  eV     1   --> A              

 **************************************************************************

 **************************************************************************

                    xk=(  -0.25397,   0.43989,   0.00000  )

     Band symmetry, C_1 (1)     point group:

     e(  1 -  1) =    -17.12418  eV     1   --> A              
     e(  2 -  2) =    -17.05199  eV     1   --> A              
     e(  3 -  3) =    -10.13168  eV     1   --> A              
     e(  4 -  4) =    -10.11108  eV     1   --> A              
     e(  5 -  5) =     -8.46696  eV     1   --> A              
     e(  6 -  6) =     -8.39227  eV     1   --> A              
     e(  7 -  7) =     -3.80411  eV     1   --> A              
     e(  8 -  8) =     -3.22779  eV     1   --> A              
     e(  9 -  9) =      2.74720  eV     1   --> A              
     e( 10 - 10) =      3.61750  eV     1   --> A              
     e( 11 - 11) =      7.84999  eV     1   --> A              
     e( 12 - 12) =      8.54289  eV     1   --> A              
     e( 13 - 13) =      9.59745  eV     1   --> A              
     e( 14 - 14) =     10.11805  eV     1   --> A              
     e( 15 - 15) =     10.65416  eV     1   --> A              
     e( 16 - 16) =     11.16539  eV     1   --> A              
     e( 17 - 17) =     11.68113  eV     1   --> A              
     e( 18 - 18) =     11.71992  eV     1   --> A              
     e( 19 - 19) =     11.84311  eV     1   --> A              
     e( 20 - 20) =     12.46272  eV     1   --> A              

 **************************************************************************

 **************************************************************************

                    xk=(  -0.26984,   0.46738,   0.00000  )

     Band symmetry, C_1 (1)     point group:

     e(  1 -  1) =    -16.89371  eV     1   --> A              
     e(  2 -  2) =    -16.83604  eV     1   --> A              
     e(  3 -  3) =    -10.32167  eV     1   --> A              
     e(  4 -  4) =    -10.30096  eV     1   --> A              
     e(  5 -  5) =     -8.79694  eV     1   --> A              
     e(  6 -  6) =     -8.71075  eV     1   --> A              
     e(  7 -  7) =     -3.40215  eV     1   --> A              
     e(  8 -  8) =     -2.94181  eV     1   --> A              
     e(  9 -  9) =      2.35948  eV     1   --> A              
     e( 10 - 10) =      3.32155  eV     1   --> A              
     e( 11 - 11) =      8.52229  eV     1   --> A              
     e( 12 - 12) =      9.13900  eV     1   --> A              
     e( 13 - 13) =      9.99320  eV     1   --> A              
     e( 14 - 14) =     10.57668  eV     1   --> A              
     e( 15 - 15) =     11.14890  eV     1   --> A              
     e( 16 - 16) =     11.26568  eV     1   --> A              
     e( 17 - 17) =     11.67355  eV     1   --> A              
     e( 18 - 18) =     12.02015  eV     1   --> A              
     e( 19 - 19) =     12.08159  eV     1   --> A              
     e( 20 - 20) =     12.87837  eV     1   --> A              

 **************************************************************************

 **************************************************************************

                    xk=(  -0.28571,   0.49487,   0.00000  )

     Band symmetry, C_1 (1)     point group:

     e(  1 -  1) =    -16.70511  eV     1   --> A              
     e(  2 -  2) =    -16.66264  eV     1   --> A              
     e(  3 -  3) =    -10.42745  eV     1   --> A              
     e(  4 -  4) =    -10.40733  eV     1   --> A              
     e(  5 -  5) =     -9.10362  eV     1   --> A              
     e(  6 -  6) =     -9.00389  eV     1   --> A              
     e(  7 -  7) =     -3.04875  eV     1   --> A              
     e(  8 -  8) =     -2.71659  eV     1   --> A              
     e(  9 -  9) =      2.04037  eV     1   --> A              
     e( 10 - 10) =      3.09726  eV     1   --> A              
     e( 11 - 11) =      9.18026  eV     1   --> A              
     e( 12 - 12) =      9.61674  eV     1   --> A              
     e( 13 - 13) =      9.99685  eV     1   --> A              
     e( 14 - 14) =     11.15119  eV     1   --> A              
     e( 15 - 15) =     11.19123  eV     1   --> A              
     e( 16 - 16) =     11.54174  eV     1   --> A              
     e( 17 - 17) =     12.04363  eV     1   --> A              
     e( 18 - 18) =     12.32719  eV     1   --> A              
     e( 19 - 19) =     12.55473  eV     1   --> A              
     e( 20 - 20) =     13.23819  eV     1   --> A              

 **************************************************************************

 **************************************************************************

                    xk=(  -0.30158,   0.52237,   0.00000  )

     Band symmetry, C_1 (1)     point group:

     e(  1 -  1) =    -16.56768  eV     1   --> A              
     e(  2 -  2) =    -16.54040  eV     1   --> A              
     e(  3 -  3) =    -10.44748  eV     1   --> A              
     e(  4 -  4) =    -10.43192  eV     1   --> A              
     e(  5 -  5) =     -9.37927  eV     1   --> A              
     e(  6 -  6) =     -9.26238  eV     1   --> A              
     e(  7 -  7) =     -2.76837  eV     1   --> A              
     e(  8 -  8) =     -2.56617  eV     1   --> A              
     e(  9 -  9) =      1.80710  eV     1   --> A              
     e( 10 - 10) =      2.95088  eV     1   --> A              
     e( 11 - 11) =      9.75912  eV     1   --> A              
     e( 12 - 12) =      9.81822  eV     1   --> A              
     e( 13 - 13) =      9.90071  eV     1   --> A              
     e( 14 - 14) =     11.39999  eV     1   --> A              
     e( 15 - 15) =     11.40767  eV     1   --> A              
     e( 16 - 16) =     12.21163  eV     1   --> A              
     e( 17 - 17) =     12.24340  eV     1   --> A              
     e( 18 - 18) =     12.73064  eV     1   --> A              
     e( 19 - 19) =     13.01509  eV     1   --> A              
     e( 20 - 20) =     13.53894  eV     1   --> A              

 **************************************************************************

 **************************************************************************

                    xk=(  -0.31746,   0.54986,   0.00000  )

     Band symmetry, C_1 (1)     point group:

     e(  1 -  1) =    -16.48512  eV     1   --> A              
     e(  2 -  2) =    -16.47219  eV     1   --> A              
     e(  3 -  3) =    -10.40050  eV     1   --> A              
     e(  4 -  4) =    -10.39509  eV     1   --> A              
     e(  5 -  5) =     -9.60147  eV     1   --> A              
     e(  6 -  6) =     -9.46301  eV     1   --> A              
     e(  7 -  7) =     -2.58162  eV     1   --> A              
     e(  8 -  8) =     -2.49508  eV     1   --> A              
     e(  9 -  9) =      1.67130  eV     1   --> A              
     e( 10 - 10) =      2.87675  eV     1   --> A              
     e( 11 - 11) =      9.81045  eV     1   --> A              
     e( 12 - 12) =      9.81261  eV     1   --> A              
     e( 13 - 13) =     10.14465  eV     1   --> A              
     e( 14 - 14) =     11.65611  eV     1   --> A              
     e( 15 - 15) =     11.78381  eV     1   --> A              
     e( 16 - 16) =     12.20704  eV     1   --> A              
     e( 17 - 17) =     12.82327  eV     1   --> A              
     e( 18 - 18) =     12.92650  eV     1   --> A              
     e( 19 - 19) =     13.36715  eV     1   --> A              
     e( 20 - 20) =     13.97008  eV     1   --> A              

 **************************************************************************

 **************************************************************************

                    xk=(  -0.33333,   0.57735,   0.00000  )

     point group C_3 (3)    
     there are  3 classes
     the character table:

       E     C3    C3^2 
A      1.00  1.00  1.00
E      1.00 -0.50 -0.50
E*     1.00 -0.50 -0.50
     imaginary part
A      0.00  0.00  0.00
E      0.00  0.87 -0.87
E*     0.00 -0.87  0.87

     the symmetry operations in each class and the name of the first element:

     E        1
                                                                 
     C3       2
                                                                 
     C3^2     3
                                                                 

     Band symmetry, C_3 (3)     point group:

     e(  1 -  1) =    -16.45579  eV     1   --> E*             
     e(  2 -  2) =    -16.45485  eV     1   --> E              
     e(  3 -  3) =    -10.35927  eV     1   --> E              
     e(  4 -  4) =    -10.35841  eV     1   --> E*             
     e(  5 -  5) =     -9.70249  eV     1   --> A              
     e(  6 -  6) =     -9.54933  eV     1   --> A              
     e(  7 -  7) =     -2.49833  eV     1   --> E*             
     e(  8 -  8) =     -2.49740  eV     1   --> E              
     e(  9 -  9) =      1.62968  eV     1   --> A              
     e( 10 - 10) =      2.85730  eV     1   --> A              
     e( 11 - 11) =      9.78150  eV     1   --> E              
     e( 12 - 12) =      9.78212  eV     1   --> E*             
     e( 13 - 13) =     10.25903  eV     1   --> A              
     e( 14 - 14) =     11.94580  eV     1   --> A              
     e( 15 - 15) =     11.99185  eV     1   -->   ?
     e( 16 - 16) =     11.99236  eV     1   -->   ?
     e( 17 - 17) =     12.95141  eV     1   -->   ?
     e( 18 - 18) =     12.95182  eV     1   -->   ?
     e( 19 - 19) =     13.83717  eV     1   --> A              
     e( 20 - 20) =     14.17005  eV     1   -->   ?

 **************************************************************************

 **************************************************************************

                    xk=(  -0.30303,   0.57735,   0.00000  )

     point group C_1 (1)    
     there are  1 classes
     the character table:

       E    
A      1.00

     the symmetry operations in each class and the name of the first element:

     E        1
                                                                 

     Band symmetry, C_1 (1)     point group:

     e(  1 -  1) =    -16.47878  eV     1   --> A              
     e(  2 -  2) =    -16.46828  eV     1   --> A              
     e(  3 -  3) =    -10.42315  eV     1   --> A              
     e(  4 -  4) =    -10.40118  eV     1   --> A              
     e(  5 -  5) =     -9.59586  eV     1   --> A              
     e(  6 -  6) =     -9.45793  eV     1   --> A              
     e(  7 -  7) =     -2.55524  eV     1   --> A              
     e(  8 -  8) =     -2.50333  eV     1   --> A              
     e(  9 -  9) =      1.65897  eV     1   --> A              
     e( 10 - 10) =      2.86739  eV     1   --> A              
     e( 11 - 11) =      9.81294  eV     1   --> A              
     e( 12 - 12) =      9.81973  eV     1   --> A              
     e( 13 - 13) =     10.18639  eV     1   --> A              
     e( 14 - 14) =     11.63730  eV     1   --> A              
     e( 15 - 15) =     11.86382  eV     1   --> A              
     e( 16 - 16) =     12.17442  eV     1   --> A              
     e( 17 - 17) =     12.76102  eV     1   --> A              
     e( 18 - 18) =     12.99381  eV     1   --> A              
     e( 19 - 19) =     13.60231  eV     1   --> A              
     e( 20 - 20) =     13.75690  eV     1   --> A              

 **************************************************************************

 **************************************************************************

                    xk=(  -0.27272,   0.57735,   0.00000  )

     Band symmetry, C_1 (1)     point group:

     e(  1 -  1) =    -16.53146  eV     1   --> A              
     e(  2 -  2) =    -16.51233  eV     1   --> A              
     e(  3 -  3) =    -10.56374  eV     1   --> A              
     e(  4 -  4) =    -10.51471  eV     1   --> A              
     e(  5 -  5) =     -9.33125  eV     1   --> A              
     e(  6 -  6) =     -9.21638  eV     1   --> A              
     e(  7 -  7) =     -2.65119  eV     1   --> A              
     e(  8 -  8) =     -2.57287  eV     1   --> A              
     e(  9 -  9) =      1.72682  eV     1   --> A              
     e( 10 - 10) =      2.88373  eV     1   --> A              
     e( 11 - 11) =      9.91751  eV     1   --> A              
     e( 12 - 12) =      9.92130  eV     1   --> A              
     e( 13 - 13) =     10.01092  eV     1   --> A              
     e( 14 - 14) =     11.22554  eV     1   --> A              
     e( 15 - 15) =     11.68007  eV     1   --> A              
     e( 16 - 16) =     12.07927  eV     1   --> A              
     e( 17 - 17) =     12.54643  eV     1   --> A              
     e( 18 - 18) =     12.72552  eV     1   --> A              
     e( 19 - 19) =     13.28395  eV     1   --> A              
     e( 20 - 20) =     13.37298  eV     1   --> A              

 **************************************************************************

 **************************************************************************

                    xk=(  -0.24242,   0.57735,   0.00000  )

     Band symmetry, C_1 (1)     point group:

     e(  1 -  1) =    -16.60312  eV     1   --> A              
     e(  2 -  2) =    -16.57695  eV     1   --> A              
     e(  3 -  3) =    -10.72029  eV     1   --> A              
     e(  4 -  4) =    -10.65219  eV     1   --> A              
     e(  5 -  5) =     -8.98511  eV     1   --> A              
     e(  6 -  6) =     -8.88701  eV     1   --> A              
     e(  7 -  7) =     -2.76963  eV     1   --> A              
     e(  8 -  8) =     -2.68242  eV     1   --> A              
     e(  9 -  9) =      1.80640  eV     1   --> A              
     e( 10 - 10) =      2.89163  eV     1   --> A              
     e( 11 - 11) =      9.74896  eV     1   --> A              
     e( 12 - 12) =     10.06420  eV     1   --> A              
     e( 13 - 13) =     10.09971  eV     1   --> A              
     e( 14 - 14) =     10.77687  eV     1   --> A              
     e( 15 - 15) =     11.46022  eV     1   --> A              
     e( 16 - 16) =     11.81267  eV     1   --> A              
     e( 17 - 17) =     12.29961  eV     1   --> A              
     e( 18 - 18) =     12.32434  eV     1   --> A              
     e( 19 - 19) =     12.95839  eV     1   --> A              
     e( 20 - 20) =     13.01436  eV     1   --> A              

 **************************************************************************

 **************************************************************************

                    xk=(  -0.21212,   0.57735,   0.00000  )

     Band symmetry, C_1 (1)     point group:

     e(  1 -  1) =    -16.68434  eV     1   --> A              
     e(  2 -  2) =    -16.65275  eV     1   --> A              
     e(  3 -  3) =    -10.86983  eV     1   --> A              
     e(  4 -  4) =    -10.78879  eV     1   --> A              
     e(  5 -  5) =     -8.59747  eV     1   --> A              
     e(  6 -  6) =     -8.51205  eV     1   --> A              
     e(  7 -  7) =     -2.89748  eV     1   --> A              
     e(  8 -  8) =     -2.81142  eV     1   --> A              
     e(  9 -  9) =      1.87867  eV     1   --> A              
     e( 10 - 10) =      2.88441  eV     1   --> A              
     e( 11 - 11) =      9.42542  eV     1   --> A              
     e( 12 - 12) =     10.19267  eV     1   --> A              
     e( 13 - 13) =     10.25148  eV     1   --> A              
     e( 14 - 14) =     10.35513  eV     1   --> A              
     e( 15 - 15) =     11.24212  eV     1   --> A              
     e( 16 - 16) =     11.45473  eV     1   --> A              
     e( 17 - 17) =     11.86163  eV     1   --> A              
     e( 18 - 18) =     12.19828  eV     1   --> A              
     e( 19 - 19) =     12.67079  eV     1   --> A              
     e( 20 - 20) =     12.68981  eV     1   --> A              

 **************************************************************************

 **************************************************************************

                    xk=(  -0.18182,   0.57735,   0.00000  )

     Band symmetry, C_1 (1)     point group:

     e(  1 -  1) =    -16.76752  eV     1   --> A              
     e(  2 -  2) =    -16.73153  eV     1   --> A              
     e(  3 -  3) =    -11.00448  eV     1   --> A              
     e(  4 -  4) =    -10.91393  eV     1   --> A              
     e(  5 -  5) =     -8.19364  eV     1   --> A              
     e(  6 -  6) =     -8.11920  eV     1   --> A              
     e(  7 -  7) =     -3.02367  eV     1   --> A              
     e(  8 -  8) =     -2.94365  eV     1   --> A              
     e(  9 -  9) =      1.93406  eV     1   --> A              
     e( 10 - 10) =      2.86238  eV     1   --> A              
     e( 11 - 11) =      9.03624  eV     1   --> A              
     e( 12 - 12) =      9.74452  eV     1   --> A              
     e( 13 - 13) =     10.25572  eV     1   --> A              
     e( 14 - 14) =     10.52458  eV     1   --> A              
     e( 15 - 15) =     11.07883  eV     1   --> A              
     e( 16 - 16) =     11.09245  eV     1   --> A              
     e( 17 - 17) =     11.49364  eV     1   --> A              
     e( 18 - 18) =     12.14414  eV     1   --> A              
     e( 19 - 19) =     12.40743  eV     1   --> A              
     e( 20 - 20) =     12.50394  eV     1   --> A              

 **************************************************************************

 **************************************************************************

                    xk=(  -0.15151,   0.57735,   0.00000  )

     Band symmetry, C_1 (1)     point group:

     e(  1 -  1) =    -16.84668  eV     1   --> A              
     e(  2 -  2) =    -16.80726  eV     1   --> A              
     e(  3 -  3) =    -11.12069  eV     1   --> A              
     e(  4 -  4) =    -11.02282  eV     1   --> A              
     e(  5 -  5) =     -7.79641  eV     1   --> A              
     e(  6 -  6) =     -7.73251  eV     1   --> A              
     e(  7 -  7) =     -3.14079  eV     1   --> A              
     e(  8 -  8) =     -3.06859  eV     1   --> A              
     e(  9 -  9) =      1.97076  eV     1   --> A              
     e( 10 - 10) =      2.82978  eV     1   --> A              
     e( 11 - 11) =      8.60083  eV     1   --> A              
     e( 12 - 12) =      9.19761  eV     1   --> A              
     e( 13 - 13) =     10.23534  eV     1   --> A              
     e( 14 - 14) =     10.54908  eV     1   --> A              
     e( 15 - 15) =     10.79303  eV     1   --> A              
     e( 16 - 16) =     11.03922  eV     1   --> A              
     e( 17 - 17) =     11.27180  eV     1   --> A              
     e( 18 - 18) =     12.01096  eV     1   --> A              
     e( 19 - 19) =     12.17044  eV     1   --> A              
     e( 20 - 20) =     12.54680  eV     1   --> A              

 **************************************************************************

 **************************************************************************

                    xk=(  -0.12121,   0.57735,   0.00000  )

     Band symmetry, C_1 (1)     point group:

     e(  1 -  1) =    -16.91699  eV     1   --> A              
     e(  2 -  2) =    -16.87500  eV     1   --> A              
     e(  3 -  3) =    -11.21691  eV     1   --> A              
     e(  4 -  4) =    -11.11353  eV     1   --> A              
     e(  5 -  5) =     -7.42750  eV     1   --> A              
     e(  6 -  6) =     -7.37249  eV     1   --> A              
     e(  7 -  7) =     -3.24302  eV     1   --> A              
     e(  8 -  8) =     -3.17849  eV     1   --> A              
     e(  9 -  9) =      1.99136  eV     1   --> A              
     e( 10 - 10) =      2.79245  eV     1   --> A              
     e( 11 - 11) =      8.15845  eV     1   --> A              
     e( 12 - 12) =      8.67760  eV     1   --> A              
     e( 13 - 13) =     10.15854  eV     1   --> A              
     e( 14 - 14) =     10.43274  eV     1   --> A              
     e( 15 - 15) =     10.57500  eV     1   --> A              
     e( 16 - 16) =     10.90897  eV     1   --> A              
     e( 17 - 17) =     11.34960  eV     1   --> A              
     e( 18 - 18) =     11.84796  eV     1   --> A              
     e( 19 - 19) =     11.98158  eV     1   --> A              
     e( 20 - 20) =     12.62837  eV     1   --> A              

 **************************************************************************

 **************************************************************************

                    xk=(  -0.09091,   0.57735,   0.00000  )

     Band symmetry, C_1 (1)     point group:

     e(  1 -  1) =    -16.97477  eV     1   --> A              
     e(  2 -  2) =    -16.93084  eV     1   --> A              
     e(  3 -  3) =    -11.29204  eV     1   --> A              
     e(  4 -  4) =    -11.18469  eV     1   --> A              
     e(  5 -  5) =     -7.10834  eV     1   --> A              
     e(  6 -  6) =     -7.06110  eV     1   --> A              
     e(  7 -  7) =     -3.32633  eV     1   --> A              
     e(  8 -  8) =     -3.26846  eV     1   --> A              
     e(  9 -  9) =      2.00071  eV     1   --> A              
     e( 10 - 10) =      2.75654  eV     1   --> A              
     e( 11 - 11) =      7.75627  eV     1   --> A              
     e( 12 - 12) =      8.22615  eV     1   --> A              
     e( 13 - 13) =     10.06507  eV     1   --> A              
     e( 14 - 14) =     10.30551  eV     1   --> A              
     e( 15 - 15) =     10.42675  eV     1   --> A              
     e( 16 - 16) =     10.76090  eV     1   --> A              
     e( 17 - 17) =     11.48733  eV     1   --> A              
     e( 18 - 18) =     11.71012  eV     1   --> A              
     e( 19 - 19) =     11.84809  eV     1   --> A              
     e( 20 - 20) =     12.61134  eV     1   --> A              

 **************************************************************************

 **************************************************************************

                    xk=(  -0.06061,   0.57735,   0.00000  )

     Band symmetry, C_1 (1)     point group:

     e(  1 -  1) =    -17.01775  eV     1   --> A              
     e(  2 -  2) =    -16.97251  eV     1   --> A              
     e(  3 -  3) =    -11.34613  eV     1   --> A              
     e(  4 -  4) =    -11.23600  eV     1   --> A              
     e(  5 -  5) =     -6.86048  eV     1   --> A              
     e(  6 -  6) =     -6.81952  eV     1   --> A              
     e(  7 -  7) =     -3.38770  eV     1   --> A              
     e(  8 -  8) =     -3.33455  eV     1   --> A              
     e(  9 -  9) =      2.00330  eV     1   --> A              
     e( 10 - 10) =      2.72692  eV     1   --> A              
     e( 11 - 11) =      7.43617  eV     1   --> A              
     e( 12 - 12) =      7.87699  eV     1   --> A              
     e( 13 - 13) =      9.98451  eV     1   --> A              
     e( 14 - 14) =     10.20615  eV     1   --> A              
     e( 15 - 15) =     10.33033  eV     1   --> A              
     e( 16 - 16) =     10.65357  eV     1   --> A              
     e( 17 - 17) =     11.55447  eV     1   --> A              
     e( 18 - 18) =     11.60898  eV     1   --> A              
     e( 19 - 19) =     11.78808  eV     1   --> A              
     e( 20 - 20) =     12.53983  eV     1   --> A              

 **************************************************************************

 **************************************************************************

                    xk=(  -0.03030,   0.57735,   0.00000  )

     Band symmetry, C_1 (1)     point group:

     e(  1 -  1) =    -17.04414  eV     1   --> A              
     e(  2 -  2) =    -16.99810  eV     1   --> A              
     e(  3 -  3) =    -11.37867  eV     1   --> A              
     e(  4 -  4) =    -11.26690  eV     1   --> A              
     e(  5 -  5) =     -6.70266  eV     1   --> A              
     e(  6 -  6) =     -6.66578  eV     1   --> A              
     e(  7 -  7) =     -3.42499  eV     1   --> A              
     e(  8 -  8) =     -3.37498  eV     1   --> A              
     e(  9 -  9) =      2.00295  eV     1   --> A              
     e( 10 - 10) =      2.70753  eV     1   --> A              
     e( 11 - 11) =      7.23049  eV     1   --> A              
     e( 12 - 12) =      7.65630  eV     1   --> A              
     e( 13 - 13) =      9.93235  eV     1   --> A              
     e( 14 - 14) =     10.14459  eV     1   --> A              
     e( 15 - 15) =     10.27512  eV     1   --> A              
     e( 16 - 16) =     10.58961  eV     1   --> A              
     e( 17 - 17) =     11.54767  eV     1   --> A              
     e( 18 - 18) =     11.55178  eV     1   --> A              
     e( 19 - 19) =     11.79093  eV     1   --> A              
     e( 20 - 20) =     12.48791  eV     1   --> A              

 **************************************************************************

 **************************************************************************

                    xk=(   0.00000,   0.57735,   0.00000  )

     point group C_s (m)    
     there are  2 classes
     the character table:

       E     s    
A'     1.00  1.00
A''    1.00 -1.00

     the symmetry operations in each class and the name of the first element:

     E        1
                                                                 
     s        2
                                                                 

     Band symmetry, C_s (m)     point group:

     e(  1 -  1) =    -17.05321  eV     1   --> A'             
     e(  2 -  2) =    -17.00696  eV     1   --> A'             
     e(  3 -  3) =    -11.38959  eV     1   --> A'             
     e(  4 -  4) =    -11.27727  eV     1   --> A'             
     e(  5 -  5) =     -6.64938  eV     1   --> A''            
     e(  6 -  6) =     -6.61335  eV     1   --> A''            
     e(  7 -  7) =     -3.43809  eV     1   --> A'             
     e(  8 -  8) =     -3.38897  eV     1   --> A'             
     e(  9 -  9) =      2.00230  eV     1   --> A'             
     e( 10 - 10) =      2.70054  eV     1   --> A'             
     e( 11 - 11) =      7.15961  eV     1   --> A'             
     e( 12 - 12) =      7.58078  eV     1   --> A'             
     e( 13 - 13) =      9.91437  eV     1   --> A'             
     e( 14 - 14) =     10.12381  eV     1   --> A'             
     e( 15 - 15) =     10.25698  eV     1   --> A'             
     e( 16 - 16) =     10.56832  eV     1   --> A'             
     e( 17 - 17) =     11.52712  eV     1   --> A'             
     e( 18 - 18) =     11.54279  eV     1   --> A'             
     e( 19 - 19) =     11.79825  eV     1   --> A'             
     e( 20 - 20) =     12.46990  eV     1   --> A'             

 **************************************************************************

 **************************************************************************

                    xk=(   0.00000,   0.54528,   0.00000  )

     Band symmetry, C_s (m)     point group:

     e(  1 -  1) =    -17.10026  eV     1   --> A'             
     e(  2 -  2) =    -17.04848  eV     1   --> A'             
     e(  3 -  3) =    -11.32034  eV     1   --> A'             
     e(  4 -  4) =    -11.20894  eV     1   --> A'             
     e(  5 -  5) =     -6.63331  eV     1   --> A''            
     e(  6 -  6) =     -6.59737  eV     1   --> A''            
     e(  7 -  7) =     -3.59809  eV     1   --> A'             
     e(  8 -  8) =     -3.36528  eV     1   --> A'             
     e(  9 -  9) =      2.08943  eV     1   --> A'             
     e( 10 - 10) =      2.79114  eV     1   --> A'             
     e( 11 - 11) =      7.11230  eV     1   --> A'             
     e( 12 - 12) =      7.58176  eV     1   --> A'             
     e( 13 - 13) =      9.39638  eV     1   --> A'             
     e( 14 - 14) =      9.58842  eV     1   --> A'             
     e( 15 - 15) =     10.65316  eV     1   --> A'             
     e( 16 - 16) =     10.84383  eV     1   --> A'             
     e( 17 - 17) =     11.12629  eV     1   --> A'             
     e( 18 - 18) =     11.56518  eV     1   --> A'             
     e( 19 - 19) =     11.84008  eV     1   --> A'             
     e( 20 - 20) =     12.34814  eV     1   --> A'             

 **************************************************************************

 **************************************************************************

                    xk=(   0.00000,   0.51320,   0.00000  )

     Band symmetry, C_s (m)     point group:

     e(  1 -  1) =    -17.23300  eV     1   --> A'             
     e(  2 -  2) =    -17.16819  eV     1   --> A'             
     e(  3 -  3) =    -11.11886  eV     1   --> A'             
     e(  4 -  4) =    -11.00990  eV     1   --> A'             
     e(  5 -  5) =     -6.58536  eV     1   --> A''            
     e(  6 -  6) =     -6.55021  eV     1   --> A''            
     e(  7 -  7) =     -3.88843  eV     1   --> A'             
     e(  8 -  8) =     -3.45923  eV     1   --> A'             
     e(  9 -  9) =      2.33983  eV     1   --> A'             
     e( 10 - 10) =      3.04557  eV     1   --> A'             
     e( 11 - 11) =      6.96102  eV     1   --> A'             
     e( 12 - 12) =      7.57360  eV     1   --> A'             
     e( 13 - 13) =      8.83156  eV     1   --> A'             
     e( 14 - 14) =      8.91627  eV     1   --> A'             
     e( 15 - 15) =      9.94578  eV     1   --> A'             
     e( 16 - 16) =     10.91479  eV     1   --> A'             
     e( 17 - 17) =     10.95895  eV     1   --> A'             
     e( 18 - 18) =     11.67087  eV     1   --> A'             
     e( 19 - 19) =     12.09966  eV     1   --> A'             
     e( 20 - 20) =     12.27424  eV     1   --> A'             

 **************************************************************************

 **************************************************************************

                    xk=(   0.00000,   0.48113,   0.00000  )

     Band symmetry, C_s (m)     point group:

     e(  1 -  1) =    -17.43131  eV     1   --> A'             
     e(  2 -  2) =    -17.35217  eV     1   --> A'             
     e(  3 -  3) =    -10.80302  eV     1   --> A'             
     e(  4 -  4) =    -10.69786  eV     1   --> A'             
     e(  5 -  5) =     -6.50656  eV     1   --> A''            
     e(  6 -  6) =     -6.47200  eV     1   --> A''            
     e(  7 -  7) =     -4.25270  eV     1   --> A'             
     e(  8 -  8) =     -3.66582  eV     1   --> A'             
     e(  9 -  9) =      2.72443  eV     1   --> A'             
     e( 10 - 10) =      3.42296  eV     1   --> A'             
     e( 11 - 11) =      6.68521  eV     1   --> A'             
     e( 12 - 12) =      7.50567  eV     1   --> A'             
     e( 13 - 13) =      8.33746  eV     1   --> A'             
     e( 14 - 14) =      8.38544  eV     1   --> A'             
     e( 15 - 15) =      9.23824  eV     1   --> A'             
     e( 16 - 16) =     10.23716  eV     1   --> A'             
     e( 17 - 17) =     10.49113  eV     1   --> A'             
     e( 18 - 18) =     11.84786  eV     1   --> A'             
     e( 19 - 19) =     12.31516  eV     1   --> A'             
     e( 20 - 20) =     12.79400  eV     1   --> A'             

 **************************************************************************

 **************************************************************************

                    xk=(   0.00000,   0.44905,   0.00000  )

     Band symmetry, C_s (m)     point group:

     e(  1 -  1) =    -17.67358  eV     1   --> A'             
     e(  2 -  2) =    -17.58117  eV     1   --> A'             
     e(  3 -  3) =    -10.39489  eV     1   --> A'             
     e(  4 -  4) =    -10.29468  eV     1   --> A'             
     e(  5 -  5) =     -6.39760  eV     1   --> A''            
     e(  6 -  6) =     -6.36348  eV     1   --> A''            
     e(  7 -  7) =     -4.65788  eV     1   --> A'             
     e(  8 -  8) =     -3.95107  eV     1   --> A'             
     e(  9 -  9) =      3.20378  eV     1   --> A'             
     e( 10 - 10) =      3.87578  eV     1   --> A'             
     e( 11 - 11) =      6.29026  eV     1   --> A'             
     e( 12 - 12) =      7.24658  eV     1   --> A'             
     e( 13 - 13) =      7.96466  eV     1   --> A'             
     e( 14 - 14) =      8.06053  eV     1   --> A'             
     e( 15 - 15) =      8.62650  eV     1   --> A'             
     e( 16 - 16) =      9.57672  eV     1   --> A'             
     e( 17 - 17) =     10.00638  eV     1   --> A'             
     e( 18 - 18) =     11.39217  eV     1   --> A'             
     e( 19 - 19) =     12.19215  eV     1   --> A'             
     e( 20 - 20) =     13.09881  eV     1   --> A'             

 **************************************************************************

 **************************************************************************

                    xk=(   0.00000,   0.41698,   0.00000  )

     Band symmetry, C_s (m)     point group:

     e(  1 -  1) =    -17.94092  eV     1   --> A'             
     e(  2 -  2) =    -17.83692  eV     1   --> A'             
     e(  3 -  3) =     -9.91608  eV     1   --> A'             
     e(  4 -  4) =     -9.82163  eV     1   --> A'             
     e(  5 -  5) =     -6.26041  eV     1   --> A''            
     e(  6 -  6) =     -6.22662  eV     1   --> A''            
     e(  7 -  7) =     -5.07889  eV     1   --> A'             
     e(  8 -  8) =     -4.28161  eV     1   --> A'             
     e(  9 -  9) =      3.73517  eV     1   --> A'             
     e( 10 - 10) =      4.34965  eV     1   --> A'             
     e( 11 - 11) =      5.82346  eV     1   --> A'             
     e( 12 - 12) =      6.82508  eV     1   --> A'             
     e( 13 - 13) =      7.57026  eV     1   --> A'             
     e( 14 - 14) =      7.93329  eV     1   --> A'             
     e( 15 - 15) =      8.19667  eV     1   --> A'             
     e( 16 - 16) =      8.98141  eV     1   --> A'             
     e( 17 - 17) =      9.55997  eV     1   --> A'             
     e( 18 - 18) =     10.94272  eV     1   --> A'             
     e( 19 - 19) =     11.63673  eV     1   --> A'             
     e( 20 - 20) =     13.33281  eV     1   --> A'             

 **************************************************************************

 **************************************************************************

                    xk=(   0.00000,   0.38490,   0.00000  )

     Band symmetry, C_s (m)     point group:

     e(  1 -  1) =    -18.21809  eV     1   --> A'             
     e(  2 -  2) =    -18.10431  eV     1   --> A'             
     e(  3 -  3) =     -9.38363  eV     1   --> A'             
     e(  4 -  4) =     -9.29564  eV     1   --> A'             
     e(  5 -  5) =     -6.09602  eV     1   --> A''            
     e(  6 -  6) =     -6.06289  eV     1   --> A''            
     e(  7 -  7) =     -5.49842  eV     1   --> A'             
     e(  8 -  8) =     -4.63183  eV     1   --> A'             
     e(  9 -  9) =      4.27248  eV     1   --> A'             
     e( 10 - 10) =      4.75939  eV     1   --> A'             
     e( 11 - 11) =      5.33486  eV     1   --> A'             
     e( 12 - 12) =      6.46392  eV     1   --> A'             
     e( 13 - 13) =      7.06433  eV     1   --> A'             
     e( 14 - 14) =      7.83196  eV     1   --> A'             
     e( 15 - 15) =      7.94444  eV     1   --> A'             
     e( 16 - 16) =      8.50444  eV     1   --> A'             
     e( 17 - 17) =      9.19166  eV     1   --> A'             
     e( 18 - 18) =     10.52347  eV     1   --> A'             
     e( 19 - 19) =     11.09431  eV     1   --> A'             
     e( 20 - 20) =     13.14158  eV     1   --> A'             

 **************************************************************************

 **************************************************************************

                    xk=(   0.00000,   0.35283,   0.00000  )

     Band symmetry, C_s (m)     point group:

     e(  1 -  1) =    -18.49408  eV     1   --> A'             
     e(  2 -  2) =    -18.37186  eV     1   --> A'             
     e(  3 -  3) =     -8.81351  eV     1   --> A'             
     e(  4 -  4) =     -8.73179  eV     1   --> A'             
     e(  5 -  5) =     -5.90720  eV     1   --> A''            
     e(  6 -  6) =     -5.90451  eV     1   --> A'             
     e(  7 -  7) =     -5.87515  eV     1   --> A''            
     e(  8 -  8) =     -4.98420  eV     1   --> A'             
     e(  9 -  9) =      4.69766  eV     1   --> A'             
     e( 10 - 10) =      4.85145  eV     1   --> A'             
     e( 11 - 11) =      5.00168  eV     1   --> A'             
     e( 12 - 12) =      6.35650  eV     1   --> A'             
     e( 13 - 13) =      6.55228  eV     1   --> A'             
     e( 14 - 14) =      7.60703  eV     1   --> A'             
     e( 15 - 15) =      7.71109  eV     1   --> A'             
     e( 16 - 16) =      8.27992  eV     1   --> A'             
     e( 17 - 17) =      8.92601  eV     1   --> A'             
     e( 18 - 18) =     10.15116  eV     1   --> A'             
     e( 19 - 19) =     10.59546  eV     1   --> A'             
     e( 20 - 20) =     12.83604  eV     1   --> A'             

 **************************************************************************

 **************************************************************************

                    xk=(   0.00000,   0.32075,   0.00000  )

     Band symmetry, C_s (m)     point group:

     e(  1 -  1) =    -18.76107  eV     1   --> A'             
     e(  2 -  2) =    -18.63138  eV     1   --> A'             
     e(  3 -  3) =     -8.21924  eV     1   --> A'             
     e(  4 -  4) =     -8.14403  eV     1   --> A'             
     e(  5 -  5) =     -6.28845  eV     1   --> A'             
     e(  6 -  6) =     -5.69725  eV     1   --> A''            
     e(  7 -  7) =     -5.66613  eV     1   --> A''            
     e(  8 -  8) =     -5.32666  eV     1   --> A'             
     e(  9 -  9) =      4.39265  eV     1   --> A'             
     e( 10 - 10) =      4.64125  eV     1   --> A'             
     e( 11 - 11) =      5.31541  eV     1   --> A'             
     e( 12 - 12) =      6.06792  eV     1   --> A'             
     e( 13 - 13) =      6.48954  eV     1   --> A'             
     e( 14 - 14) =      7.35265  eV     1   --> A'             
     e( 15 - 15) =      7.49372  eV     1   --> A'             
     e( 16 - 16) =      8.25909  eV     1   --> A'             
     e( 17 - 17) =      8.76066  eV     1   --> A'             
     e( 18 - 18) =      9.84076  eV     1   --> A'             
     e( 19 - 19) =     10.15306  eV     1   --> A'             
     e( 20 - 20) =     12.52631  eV     1   --> A'             

 **************************************************************************

 **************************************************************************

                    xk=(   0.00000,   0.28868,   0.00000  )

     Band symmetry, C_s (m)     point group:

     e(  1 -  1) =    -19.01298  eV     1   --> A'             
     e(  2 -  2) =    -18.87704  eV     1   --> A'             
     e(  3 -  3) =     -7.61449  eV     1   --> A'             
     e(  4 -  4) =     -7.54509  eV     1   --> A'             
     e(  5 -  5) =     -6.64268  eV     1   --> A'             
     e(  6 -  6) =     -5.64986  eV     1   --> A'             
     e(  7 -  7) =     -5.47085  eV     1   --> A''            
     e(  8 -  8) =     -5.44077  eV     1   --> A''            
     e(  9 -  9) =      3.96863  eV     1   --> A'             
     e( 10 - 10) =      4.33700  eV     1   --> A'             
     e( 11 - 11) =      5.46496  eV     1   --> A'             
     e( 12 - 12) =      5.76258  eV     1   --> A'             
     e( 13 - 13) =      6.41496  eV     1   --> A'             
     e( 14 - 14) =      7.19492  eV     1   --> A'             
     e( 15 - 15) =      7.55594  eV     1   --> A'             
     e( 16 - 16) =      8.29932  eV     1   --> A'             
     e( 17 - 17) =      8.67498  eV     1   --> A'             
     e( 18 - 18) =      9.60454  eV     1   --> A'             
     e( 19 - 19) =      9.78513  eV     1   --> A'             
     e( 20 - 20) =     12.24543  eV     1   --> A'             

 **************************************************************************

 **************************************************************************

                    xk=(   0.00000,   0.25660,   0.00000  )

     Band symmetry, C_s (m)     point group:

     e(  1 -  1) =    -19.24549  eV     1   --> A'             
     e(  2 -  2) =    -19.10419  eV     1   --> A'             
     e(  3 -  3) =     -7.08011  eV     1   --> A'             
     e(  4 -  4) =     -6.95929  eV     1   --> A'             
     e(  5 -  5) =     -6.88080  eV     1   --> A'             
     e(  6 -  6) =     -5.94622  eV     1   --> A'             
     e(  7 -  7) =     -5.23126  eV     1   --> A''            
     e(  8 -  8) =     -5.20297  eV     1   --> A''            
     e(  9 -  9) =      3.58111  eV     1   --> A'             
     e( 10 - 10) =      4.00099  eV     1   --> A'             
     e( 11 - 11) =      5.14449  eV     1   --> A'             
     e( 12 - 12) =      5.78228  eV     1   --> A'             
     e( 13 - 13) =      6.12940  eV     1   --> A'             
     e( 14 - 14) =      7.09827  eV     1   --> A'             
     e( 15 - 15) =      7.84227  eV     1   --> A'             
     e( 16 - 16) =      8.38180  eV     1   --> A'             
     e( 17 - 17) =      8.65782  eV     1   --> A'             
     e( 18 - 18) =      9.44614  eV     1   --> A'             
     e( 19 - 19) =      9.52589  eV     1   --> A'             
     e( 20 - 20) =     12.00846  eV     1   --> A'             

 **************************************************************************

 **************************************************************************

                    xk=(   0.00000,   0.22453,   0.00000  )

     Band symmetry, C_s (m)     point group:

     e(  1 -  1) =    -19.45590  eV     1   --> A'             
     e(  2 -  2) =    -19.30998  eV     1   --> A'             
     e(  3 -  3) =     -7.28476  eV     1   --> A'             
     e(  4 -  4) =     -6.41038  eV     1   --> A'             
     e(  5 -  5) =     -6.36549  eV     1   --> A'             
     e(  6 -  6) =     -6.18212  eV     1   --> A'             
     e(  7 -  7) =     -4.98607  eV     1   --> A''            
     e(  8 -  8) =     -4.95989  eV     1   --> A''            
     e(  9 -  9) =      3.23302  eV     1   --> A'             
     e( 10 - 10) =      3.68093  eV     1   --> A'             
     e( 11 - 11) =      4.79397  eV     1   --> A'             
     e( 12 - 12) =      5.69922  eV     1   --> A'             
     e( 13 - 13) =      5.81507  eV     1   --> A'             
     e( 14 - 14) =      7.04858  eV     1   --> A'             
     e( 15 - 15) =      7.98266  eV     1   --> A'             
     e( 16 - 16) =      8.55549  eV     1   --> A'             
     e( 17 - 17) =      8.70724  eV     1   --> A'             
     e( 18 - 18) =      9.36790  eV     1   --> A'             
     e( 19 - 19) =      9.42336  eV     1   --> A'             
     e( 20 - 20) =     11.73660  eV     1   --> A'             

 **************************************************************************

 **************************************************************************

                    xk=(   0.00000,   0.19245,   0.00000  )

     Band symmetry, C_s (m)     point group:

     e(  1 -  1) =    -19.64166  eV     1   --> A'             
     e(  2 -  2) =    -19.49166  eV     1   --> A'             
     e(  3 -  3) =     -7.53801  eV     1   --> A'             
     e(  4 -  4) =     -6.47622  eV     1   --> A'             
     e(  5 -  5) =     -5.81719  eV     1   --> A'             
     e(  6 -  6) =     -5.77020  eV     1   --> A'             
     e(  7 -  7) =     -4.74156  eV     1   --> A''            
     e(  8 -  8) =     -4.71814  eV     1   --> A''            
     e(  9 -  9) =      2.92624  eV     1   --> A'             
     e( 10 - 10) =      3.39290  eV     1   --> A'             
     e( 11 - 11) =      4.48216  eV     1   --> A'             
     e( 12 - 12) =      5.52325  eV     1   --> A'             
     e( 13 - 13) =      5.53476  eV     1   --> A'             
     e( 14 - 14) =      6.98675  eV     1   --> A'             
     e( 15 - 15) =      7.92460  eV     1   --> A'             
     e( 16 - 16) =      8.73359  eV     1   --> A'             
     e( 17 - 17) =      8.80375  eV     1   --> A'             
     e( 18 - 18) =      9.32642  eV     1   --> A'             
     e( 19 - 19) =      9.55263  eV     1   --> A'             
     e( 20 - 20) =     11.34542  eV     1   --> A'             

 **************************************************************************

 **************************************************************************

                    xk=(   0.00000,   0.16038,   0.00000  )

     Band symmetry, C_s (m)     point group:

     e(  1 -  1) =    -19.80118  eV     1   --> A'             
     e(  2 -  2) =    -19.64792  eV     1   --> A'             
     e(  3 -  3) =     -7.75712  eV     1   --> A'             
     e(  4 -  4) =     -6.67684  eV     1   --> A'             
     e(  5 -  5) =     -5.28626  eV     1   --> A'             
     e(  6 -  6) =     -5.24937  eV     1   --> A'             
     e(  7 -  7) =     -4.50811  eV     1   --> A''            
     e(  8 -  8) =     -4.48746  eV     1   --> A''            
     e(  9 -  9) =      2.66197  eV     1   --> A'             
     e( 10 - 10) =      3.14345  eV     1   --> A'             
     e( 11 - 11) =      4.21539  eV     1   --> A'             
     e( 12 - 12) =      5.27018  eV     1   --> A'             
     e( 13 - 13) =      5.34778  eV     1   --> A'             
     e( 14 - 14) =      6.89695  eV     1   --> A'             
     e( 15 - 15) =      7.78355  eV     1   --> A'             
     e( 16 - 16) =      8.85978  eV     1   --> A'             
     e( 17 - 17) =      8.90043  eV     1   --> A'             
     e( 18 - 18) =      9.29936  eV     1   --> A'             
     e( 19 - 19) =      9.82936  eV     1   --> A'             
     e( 20 - 20) =     10.75582  eV     1   --> A''            

 **************************************************************************

 **************************************************************************

                    xk=(   0.00000,   0.12830,   0.00000  )

     Band symmetry, C_s (m)     point group:

     e(  1 -  1) =    -19.93325  eV     1   --> A'             
     e(  2 -  2) =    -19.77730  eV     1   --> A'             
     e(  3 -  3) =     -7.93837  eV     1   --> A'             
     e(  4 -  4) =     -6.84583  eV     1   --> A'             
     e(  5 -  5) =     -4.81192  eV     1   --> A'             
     e(  6 -  6) =     -4.78388  eV     1   --> A'             
     e(  7 -  7) =     -4.29559  eV     1   --> A''            
     e(  8 -  8) =     -4.27788  eV     1   --> A''            
     e(  9 -  9) =      2.44147  eV     1   --> A'             
     e( 10 - 10) =      2.93605  eV     1   --> A'             
     e( 11 - 11) =      3.99546  eV     1   --> A'             
     e( 12 - 12) =      5.05902  eV     1   --> A'             
     e( 13 - 13) =      5.17269  eV     1   --> A'             
     e( 14 - 14) =      6.79545  eV     1   --> A'             
     e( 15 - 15) =      7.62672  eV     1   --> A'             
     e( 16 - 16) =      8.95755  eV     1   --> A'             
     e( 17 - 17) =      8.98910  eV     1   --> A'             
     e( 18 - 18) =      9.27514  eV     1   --> A'             
     e( 19 - 19) =     10.11858  eV     1   --> A'             
     e( 20 - 20) =     10.22040  eV     1   --> A''            

 **************************************************************************

 **************************************************************************

                    xk=(   0.00000,   0.09623,   0.00000  )

     Band symmetry, C_s (m)     point group:

     e(  1 -  1) =    -20.03684  eV     1   --> A'             
     e(  2 -  2) =    -19.87873  eV     1   --> A'             
     e(  3 -  3) =     -8.08012  eV     1   --> A'             
     e(  4 -  4) =     -6.97887  eV     1   --> A'             
     e(  5 -  5) =     -4.41314  eV     1   --> A'             
     e(  6 -  6) =     -4.39314  eV     1   --> A'             
     e(  7 -  7) =     -4.11361  eV     1   --> A''            
     e(  8 -  8) =     -4.10015  eV     1   --> A''            
     e(  9 -  9) =      2.26631  eV     1   --> A'             
     e( 10 - 10) =      2.77269  eV     1   --> A'             
     e( 11 - 11) =      3.82331  eV     1   --> A'             
     e( 12 - 12) =      4.89282  eV     1   --> A'             
     e( 13 - 13) =      5.02486  eV     1   --> A'             
     e( 14 - 14) =      6.70057  eV     1   --> A'             
     e( 15 - 15) =      7.48583  eV     1   --> A'             
     e( 16 - 16) =      9.03200  eV     1   --> A'             
     e( 17 - 17) =      9.07313  eV     1   --> A'             
     e( 18 - 18) =      9.24946  eV     1   --> A'             
     e( 19 - 19) =      9.78589  eV     1   --> A''            
     e( 20 - 20) =      9.80492  eV     1   --> A''            

 **************************************************************************

 **************************************************************************

                    xk=(   0.00000,   0.06415,   0.00000  )

     Band symmetry, C_s (m)     point group:

     e(  1 -  1) =    -20.11122  eV     1   --> A'             
     e(  2 -  2) =    -19.95166  eV     1   --> A'             
     e(  3 -  3) =     -8.18192  eV     1   --> A'             
     e(  4 -  4) =     -7.07456  eV     1   --> A'             
     e(  5 -  5) =     -4.10989  eV     1   --> A'             
     e(  6 -  6) =     -4.09703  eV     1   --> A'             
     e(  7 -  7) =     -3.97296  eV     1   --> A''            
     e(  8 -  8) =     -3.96412  eV     1   --> A''            
     e(  9 -  9) =      2.13853  eV     1   --> A'             
     e( 10 - 10) =      2.65483  eV     1   --> A'             
     e( 11 - 11) =      3.69967  eV     1   --> A'             
     e( 12 - 12) =      4.77307  eV     1   --> A'             
     e( 13 - 13) =      4.91343  eV     1   --> A'             
     e( 14 - 14) =      6.62501  eV     1   --> A'             
     e( 15 - 15) =      7.37670  eV     1   --> A'             
     e( 16 - 16) =      9.08530  eV     1   --> A'             
     e( 17 - 17) =      9.14553  eV     1   --> A'             
     e( 18 - 18) =      9.22547  eV     1   --> A'             
     e( 19 - 19) =      9.46433  eV     1   --> A''            
     e( 20 - 20) =      9.48285  eV     1   --> A''            

 **************************************************************************

 **************************************************************************

                    xk=(   0.00000,   0.03208,   0.00000  )

     Band symmetry, C_s (m)     point group:

     e(  1 -  1) =    -20.15597  eV     1   --> A'             
     e(  2 -  2) =    -19.99557  eV     1   --> A'             
     e(  3 -  3) =     -8.24307  eV     1   --> A'             
     e(  4 -  4) =     -7.13196  eV     1   --> A'             
     e(  5 -  5) =     -3.91895  eV     1   --> A'             
     e(  6 -  6) =     -3.91256  eV     1   --> A'             
     e(  7 -  7) =     -3.88371  eV     1   --> A''            
     e(  8 -  8) =     -3.87844  eV     1   --> A''            
     e(  9 -  9) =      2.06050  eV     1   --> A'             
     e( 10 - 10) =      2.58365  eV     1   --> A'             
     e( 11 - 11) =      3.62517  eV     1   --> A'             
     e( 12 - 12) =      4.70082  eV     1   --> A'             
     e( 13 - 13) =      4.84431  eV     1   --> A'             
     e( 14 - 14) =      6.57697  eV     1   --> A'             
     e( 15 - 15) =      7.30808  eV     1   --> A'             
     e( 16 - 16) =      9.11757  eV     1   --> A'             
     e( 17 - 17) =      9.19652  eV     1   --> A'             
     e( 18 - 18) =      9.20845  eV     1   --> A'             
     e( 19 - 19) =      9.26675  eV     1   --> A''            
     e( 20 - 20) =      9.28482  eV     1   --> A''            

 **************************************************************************

 **************************************************************************

                    xk=(   0.00000,   0.00000,   0.00000  )

     point group C_3v (3m)  
     there are  3 classes
     the character table:

       E     2C3   3s_v 
A_1    1.00  1.00  1.00
A_2    1.00  1.00 -1.00
E      2.00 -1.00  0.00

     the symmetry operations in each class and the name of the first element:

     E        1
                                                                 
     2C3      2    3
                                                                 
     3s_v     4    5    6
                                                                 

     Band symmetry, C_3v (3m)   point group:

     e(  1 -  1) =    -20.17085  eV     1   --> A_1  L_1       
     e(  2 -  2) =    -20.01017  eV     1   --> A_1  L_1       
     e(  3 -  3) =     -8.26336  eV     1   --> A_1  L_1       
     e(  4 -  4) =     -7.15086  eV     1   --> A_1  L_1       
     e(  5 -  6) =     -3.85275  eV     2   --> E    L_3       
     e(  7 -  8) =     -3.84968  eV     2   --> E    L_3       
     e(  9 -  9) =      2.03424  eV     1   --> A_1  L_1       
     e( 10 - 10) =      2.55985  eV     1   --> A_1  L_1       
     e( 11 - 11) =      3.60027  eV     1   --> A_1  L_1       
     e( 12 - 12) =      4.67667  eV     1   --> A_1  L_1       
     e( 13 - 13) =      4.82086  eV     1   --> A_1  L_1       
     e( 14 - 14) =      6.56055  eV     1   --> A_1  L_1       
     e( 15 - 15) =      7.28468  eV     1   --> A_1  L_1       
     e( 16 - 16) =      9.12885  eV     1   --> A_1  L_1       
     e( 17 - 18) =      9.20035  eV     2   --> E    L_3       
     e( 19 - 20) =      9.21835  eV     2   --> E    L_3       

 **************************************************************************

     BANDS        :     10.61s CPU     10.77s WALL


   This run was terminated on:  16:30:43  12Apr2024            

=------------------------------------------------------------------------------=
   JOB DONE.
=------------------------------------------------------------------------------=
