
     Program BANDS v.7.2 starts on 17Apr2024 at 16: 3:30 

     This program is part of the open-source Quantum ESPRESSO suite
     for quantum simulation of materials; please cite
         "P. Giannozzi et al., J. Phys.:Condens. Matter 21 395502 (2009);
         "P. Giannozzi et al., J. Phys.:Condens. Matter 29 465901 (2017);
         "P. Giannozzi et al., J. Chem. Phys. 152 154105 (2020);
          URL http://www.quantum-espresso.org", 
     in publications or presentations arising from this work. More details at
     http://www.quantum-espresso.org/quote

     Parallel version (MPI & OpenMP), running on       8 processor cores
     Number of MPI processes:                 8
     Threads/MPI process:                     1

     MPI processes distributed on     1 nodes
     R & G space division:  proc/nbgrp/npool/nimage =       8
     0 MiB available memory on the printing compute node when the environment starts


     Reading xml data from directory:

     ./tmp/BN2L_AB_PBE_vdW.save/

     IMPORTANT: XC functional enforced from input :
     Exchange-correlation= VDW-DF2-B86R
                           (   1   4  26   0   2   0   0)
     Any further DFT definition will be discarded
     Please, verify this is what you really want


     Parallelization info
     --------------------
     sticks:   dense  smooth     PW     G-vecs:    dense   smooth      PW
     Min          45      45     14                 5791     5791    1010
     Max          46      46     16                 5824     5824    1027
     Sum         367     367    121                46525    46525    8181

     Using Slab Decomposition



     %%%%%%%%%%%%%%%%%%%%%%%%%%%%%%%%%%%%%%%%%%%%%%%%%%%%%%%%%%%%%%%%%%%%%%%%
     %                                                                      %
     % You are using vdW-DF, which was implemented by the Thonhauser group. %
     % Please cite the following two papers that made this development      %
     % possible and the two reviews that describe the various versions:     %
     %                                                                      %
     %   T. Thonhauser et al., PRL 115, 136402 (2015).                      %
     %   T. Thonhauser et al., PRB 76, 125112 (2007).                       %
     %   K. Berland et al., Rep. Prog. Phys. 78, 066501 (2015).             %
     %   D.C. Langreth et al., J. Phys.: Condens. Matter 21, 084203 (2009). %
     %                                                                      %
     % If you are calculating stress with vdW-DF, please also cite:         %
     %                                                                      %
     %   R. Sabatini et al., J. Phys.: Condens. Matter 24, 424209 (2012).   %
     %                                                                      %
     %%%%%%%%%%%%%%%%%%%%%%%%%%%%%%%%%%%%%%%%%%%%%%%%%%%%%%%%%%%%%%%%%%%%%%%%

     %%%%%%%%%%%%%%%%%%%%%%%%%%%%%%%%%%%%%%%%%%%%%%%%%%%%%%%%%%%%%%%%%%%%%%%%
     %                                                                      %
     %  vdW-DF NEWS:                                                        %
     %                                                                      %
     %  * vdW-DF3 is now available. DOI: 10.1021/acs.jctc.0c00471           %
     %    use with input_dft = 'vdW-DF3-opt1' or 'vdW-DF3-opt2'             %
     %                                                                      %
     %  * Unscreened and range-separated hybrid vdW-DF-cx functionals       %
     %    DOI: 10.1063/1.4986522 and 10.1088/1361-648X/ac2ad2               %
     %    use with input_dft = 'vdW-DF-cx0'    and 'vdW-DF-ahcx'            %
     %  * Unscreened and range-separated hybrid vdW-DF2-b86r functionals    %
     %    DOI: 10.1063/1.4986522 and DOI: 10.1103/PhysRevX.12.041003        %
     %    use with input_dft = 'vdW-DF2-br0' and 'vdW-DF2-ahbr'             %
     %                                                                      %
     %%%%%%%%%%%%%%%%%%%%%%%%%%%%%%%%%%%%%%%%%%%%%%%%%%%%%%%%%%%%%%%%%%%%%%%%


     Reading collected, re-writing distributed wavefunctions
     high-symmetry point:  0.0000 0.0000 0.0000   x coordinate   0.0000
     high-symmetry point: -0.3333 0.5774 0.0000   x coordinate   0.6667
     high-symmetry point:  0.0000 0.5774 0.0000   x coordinate   1.0000
     high-symmetry point:  0.0000 0.0000 0.0000   x coordinate   1.5773

     Plottable bands (eV) written to file Bande_BN2L_AB_PBE_vdW.dat.gnu
     Bands written to file Bande_BN2L_AB_PBE_vdW.dat

 **************************************************************************

                    xk=(   0.00000,   0.00000,   0.00000  )

     point group C_3v (3m)  
     there are  3 classes
     the character table:

       E     2C3   3s_v 
A_1    1.00  1.00  1.00
A_2    1.00  1.00 -1.00
E      2.00 -1.00  0.00

     the symmetry operations in each class and the name of the first element:

     E        1
                                                                 
     2C3      2    3
                                                                 
     3s_v     4    5    6
                                                                 

     Band symmetry, C_3v (3m)   point group:

     e(  1 -  1) =    -20.16001  eV     1   --> A_1  L_1       
     e(  2 -  2) =    -20.00121  eV     1   --> A_1  L_1       
     e(  3 -  3) =     -8.25492  eV     1   --> A_1  L_1       
     e(  4 -  4) =     -7.14944  eV     1   --> A_1  L_1       
     e(  5 -  6) =     -3.88067  eV     2   --> E    L_3       
     e(  7 -  8) =     -3.87637  eV     2   --> E    L_3       
     e(  9 -  9) =      2.01528  eV     1   --> A_1  L_1       
     e( 10 - 10) =      2.54320  eV     1   --> A_1  L_1       
     e( 11 - 11) =      3.58035  eV     1   --> A_1  L_1       
     e( 12 - 12) =      4.65285  eV     1   --> A_1  L_1       
     e( 13 - 13) =      4.78598  eV     1   --> A_1  L_1       
     e( 14 - 14) =      6.52198  eV     1   --> A_1  L_1       
     e( 15 - 15) =      7.24333  eV     1   --> A_1  L_1       
     e( 16 - 16) =      9.07265  eV     1   --> A_1  L_1       
     e( 17 - 18) =      9.13228  eV     2   --> E    L_3       
     e( 19 - 20) =      9.15027  eV     2   --> E    L_3       

 **************************************************************************

 **************************************************************************

                    xk=(  -0.01587,   0.02749,   0.00000  )

     point group C_1 (1)    
     there are  1 classes
     the character table:

       E    
A      1.00

     the symmetry operations in each class and the name of the first element:

     E        1
                                                                 

     Band symmetry, C_1 (1)     point group:

     e(  1 -  1) =    -20.14550  eV     1   --> A              
     e(  2 -  2) =    -19.98692  eV     1   --> A              
     e(  3 -  3) =     -8.23466  eV     1   --> A              
     e(  4 -  4) =     -7.13062  eV     1   --> A              
     e(  5 -  5) =     -3.94458  eV     1   --> A              
     e(  6 -  6) =     -3.93941  eV     1   --> A              
     e(  7 -  7) =     -3.91006  eV     1   --> A              
     e(  8 -  8) =     -3.90592  eV     1   --> A              
     e(  9 -  9) =      2.04098  eV     1   --> A              
     e( 10 - 10) =      2.56644  eV     1   --> A              
     e( 11 - 11) =      3.60465  eV     1   --> A              
     e( 12 - 12) =      4.67642  eV     1   --> A              
     e( 13 - 13) =      4.80886  eV     1   --> A              
     e( 14 - 14) =      6.53808  eV     1   --> A              
     e( 15 - 15) =      7.26617  eV     1   --> A              
     e( 16 - 16) =      9.05926  eV     1   --> A              
     e( 17 - 17) =      9.13210  eV     1   --> A              
     e( 18 - 18) =      9.14078  eV     1   --> A              
     e( 19 - 19) =      9.19692  eV     1   --> A              
     e( 20 - 20) =      9.21577  eV     1   --> A              

 **************************************************************************

 **************************************************************************

                    xk=(  -0.03175,   0.05499,   0.00000  )

     Band symmetry, C_1 (1)     point group:

     e(  1 -  1) =    -20.10186  eV     1   --> A              
     e(  2 -  2) =    -19.94407  eV     1   --> A              
     e(  3 -  3) =     -8.17488  eV     1   --> A              
     e(  4 -  4) =     -7.07464  eV     1   --> A              
     e(  5 -  5) =     -4.12813  eV     1   --> A              
     e(  6 -  6) =     -4.12043  eV     1   --> A              
     e(  7 -  7) =     -3.99695  eV     1   --> A              
     e(  8 -  8) =     -3.99313  eV     1   --> A              
     e(  9 -  9) =      2.11734  eV     1   --> A              
     e( 10 - 10) =      2.63597  eV     1   --> A              
     e( 11 - 11) =      3.67741  eV     1   --> A              
     e( 12 - 12) =      4.74699  eV     1   --> A              
     e( 13 - 13) =      4.87644  eV     1   --> A              
     e( 14 - 14) =      6.58503  eV     1   --> A              
     e( 15 - 15) =      7.33349  eV     1   --> A              
     e( 16 - 16) =      9.02865  eV     1   --> A              
     e( 17 - 17) =      9.09049  eV     1   --> A              
     e( 18 - 18) =      9.15758  eV     1   --> A              
     e( 19 - 19) =      9.37710  eV     1   --> A              
     e( 20 - 20) =      9.40553  eV     1   --> A              

 **************************************************************************

 **************************************************************************

                    xk=(  -0.04762,   0.08248,   0.00000  )

     Band symmetry, C_1 (1)     point group:

     e(  1 -  1) =    -20.02918  eV     1   --> A              
     e(  2 -  2) =    -19.87287  eV     1   --> A              
     e(  3 -  3) =     -8.07559  eV     1   --> A              
     e(  4 -  4) =     -6.98133  eV     1   --> A              
     e(  5 -  5) =     -4.41584  eV     1   --> A              
     e(  6 -  6) =     -4.40451  eV     1   --> A              
     e(  7 -  7) =     -4.13831  eV     1   --> A              
     e(  8 -  8) =     -4.13501  eV     1   --> A              
     e(  9 -  9) =      2.24252  eV     1   --> A              
     e( 10 - 10) =      2.75109  eV     1   --> A              
     e( 11 - 11) =      3.79819  eV     1   --> A              
     e( 12 - 12) =      4.86398  eV     1   --> A              
     e( 13 - 13) =      4.98551  eV     1   --> A              
     e( 14 - 14) =      6.65872  eV     1   --> A              
     e( 15 - 15) =      7.44148  eV     1   --> A              
     e( 16 - 16) =      8.99236  eV     1   --> A              
     e( 17 - 17) =      9.04946  eV     1   --> A              
     e( 18 - 18) =      9.17735  eV     1   --> A              
     e( 19 - 19) =      9.63188  eV     1   --> A              
     e( 20 - 20) =      9.70066  eV     1   --> A              

 **************************************************************************

 **************************************************************************

                    xk=(  -0.06349,   0.10997,   0.00000  )

     Band symmetry, C_1 (1)     point group:

     e(  1 -  1) =    -19.92811  eV     1   --> A              
     e(  2 -  2) =    -19.77379  eV     1   --> A              
     e(  3 -  3) =     -7.93714  eV     1   --> A              
     e(  4 -  4) =     -6.85152  eV     1   --> A              
     e(  5 -  5) =     -4.78963  eV     1   --> A              
     e(  6 -  6) =     -4.77440  eV     1   --> A              
     e(  7 -  7) =     -4.33162  eV     1   --> A              
     e(  8 -  8) =     -4.32832  eV     1   --> A              
     e(  9 -  9) =      2.41443  eV     1   --> A              
     e( 10 - 10) =      2.91081  eV     1   --> A              
     e( 11 - 11) =      3.96648  eV     1   --> A              
     e( 12 - 12) =      5.02653  eV     1   --> A              
     e( 13 - 13) =      5.13119  eV     1   --> A              
     e( 14 - 14) =      6.75183  eV     1   --> A              
     e( 15 - 15) =      7.58449  eV     1   --> A              
     e( 16 - 16) =      8.95760  eV     1   --> A              
     e( 17 - 17) =      9.02479  eV     1   --> A              
     e( 18 - 18) =      9.19823  eV     1   --> A              
     e( 19 - 19) =      9.88996  eV     1   --> A              
     e( 20 - 20) =     10.06399  eV     1   --> A              

 **************************************************************************

 **************************************************************************

                    xk=(  -0.07936,   0.13746,   0.00000  )

     Band symmetry, C_1 (1)     point group:

     e(  1 -  1) =    -19.79926  eV     1   --> A              
     e(  2 -  2) =    -19.64763  eV     1   --> A              
     e(  3 -  3) =     -7.76034  eV     1   --> A              
     e(  4 -  4) =     -6.68633  eV     1   --> A              
     e(  5 -  5) =     -5.22663  eV     1   --> A              
     e(  6 -  6) =     -5.20781  eV     1   --> A              
     e(  7 -  7) =     -4.57201  eV     1   --> A              
     e(  8 -  8) =     -4.56747  eV     1   --> A              
     e(  9 -  9) =      2.63147  eV     1   --> A              
     e( 10 - 10) =      3.11387  eV     1   --> A              
     e( 11 - 11) =      4.18174  eV     1   --> A              
     e( 12 - 12) =      5.23345  eV     1   --> A              
     e( 13 - 13) =      5.30583  eV     1   --> A              
     e( 14 - 14) =      6.85196  eV     1   --> A              
     e( 15 - 15) =      7.75231  eV     1   --> A              
     e( 16 - 16) =      8.92756  eV     1   --> A              
     e( 17 - 17) =      9.01966  eV     1   --> A              
     e( 18 - 18) =      9.22456  eV     1   --> A              
     e( 19 - 19) =      9.76026  eV     1   --> A              
     e( 20 - 20) =     10.16440  eV     1   --> A              

 **************************************************************************

 **************************************************************************

                    xk=(  -0.09524,   0.16496,   0.00000  )

     Band symmetry, C_1 (1)     point group:

     e(  1 -  1) =    -19.64339  eV     1   --> A              
     e(  2 -  2) =    -19.49501  eV     1   --> A              
     e(  3 -  3) =     -7.54638  eV     1   --> A              
     e(  4 -  4) =     -6.48936  eV     1   --> A              
     e(  5 -  5) =     -5.70637  eV     1   --> A              
     e(  6 -  6) =     -5.68251  eV     1   --> A              
     e(  7 -  7) =     -4.85275  eV     1   --> A              
     e(  8 -  8) =     -4.84581  eV     1   --> A              
     e(  9 -  9) =      2.89277  eV     1   --> A              
     e( 10 - 10) =      3.35866  eV     1   --> A              
     e( 11 - 11) =      4.44343  eV     1   --> A              
     e( 12 - 12) =      5.48284  eV     1   --> A              
     e( 13 - 13) =      5.49601  eV     1   --> A              
     e( 14 - 14) =      6.94242  eV     1   --> A              
     e( 15 - 15) =      7.91930  eV     1   --> A              
     e( 16 - 16) =      8.90794  eV     1   --> A              
     e( 17 - 17) =      9.01132  eV     1   --> A              
     e( 18 - 18) =      9.27136  eV     1   --> A              
     e( 19 - 19) =      9.50724  eV     1   --> A              
     e( 20 - 20) =     10.39925  eV     1   --> A              

 **************************************************************************

 **************************************************************************

                    xk=(  -0.11111,   0.19245,   0.00000  )

     Band symmetry, C_1 (1)     point group:

     e(  1 -  1) =    -19.46176  eV     1   --> A              
     e(  2 -  2) =    -19.31710  eV     1   --> A              
     e(  3 -  3) =     -7.29774  eV     1   --> A              
     e(  4 -  4) =     -6.31232  eV     1   --> A              
     e(  5 -  5) =     -6.21024  eV     1   --> A              
     e(  6 -  6) =     -6.13139  eV     1   --> A              
     e(  7 -  7) =     -5.16755  eV     1   --> A              
     e(  8 -  8) =     -5.15717  eV     1   --> A              
     e(  9 -  9) =      3.19772  eV     1   --> A              
     e( 10 - 10) =      3.64255  eV     1   --> A              
     e( 11 - 11) =      4.75046  eV     1   --> A              
     e( 12 - 12) =      5.67289  eV     1   --> A              
     e( 13 - 13) =      5.77082  eV     1   --> A              
     e( 14 - 14) =      7.01061  eV     1   --> A              
     e( 15 - 15) =      8.00540  eV     1   --> A              
     e( 16 - 16) =      8.92180  eV     1   --> A              
     e( 17 - 17) =      8.95936  eV     1   --> A              
     e( 18 - 18) =      9.35358  eV     1   --> A              
     e( 19 - 19) =      9.41803  eV     1   --> A              
     e( 20 - 20) =     10.63741  eV     1   --> A              

 **************************************************************************

 **************************************************************************

                    xk=(  -0.12698,   0.21994,   0.00000  )

     Band symmetry, C_1 (1)     point group:

     e(  1 -  1) =    -19.25570  eV     1   --> A              
     e(  2 -  2) =    -19.11550  eV     1   --> A              
     e(  3 -  3) =     -7.03393  eV     1   --> A              
     e(  4 -  4) =     -6.72822  eV     1   --> A              
     e(  5 -  5) =     -6.70658  eV     1   --> A              
     e(  6 -  6) =     -5.96978  eV     1   --> A              
     e(  7 -  7) =     -5.50906  eV     1   --> A              
     e(  8 -  8) =     -5.49423  eV     1   --> A              
     e(  9 -  9) =      3.54606  eV     1   --> A              
     e( 10 - 10) =      3.96065  eV     1   --> A              
     e( 11 - 11) =      5.09906  eV     1   --> A              
     e( 12 - 12) =      5.77695  eV     1   --> A              
     e( 13 - 13) =      6.08701  eV     1   --> A              
     e( 14 - 14) =      7.08050  eV     1   --> A              
     e( 15 - 15) =      7.87469  eV     1   --> A              
     e( 16 - 16) =      9.00678  eV     1   --> A              
     e( 17 - 17) =      9.01473  eV     1   --> A              
     e( 18 - 18) =      9.47945  eV     1   --> A              
     e( 19 - 19) =      9.50823  eV     1   --> A              
     e( 20 - 20) =     10.88326  eV     1   --> A              

 **************************************************************************

 **************************************************************************

                    xk=(  -0.14286,   0.24744,   0.00000  )

     Band symmetry, C_1 (1)     point group:

     e(  1 -  1) =    -19.02738  eV     1   --> A              
     e(  2 -  2) =    -18.89236  eV     1   --> A              
     e(  3 -  3) =     -7.27637  eV     1   --> A              
     e(  4 -  4) =     -7.24363  eV     1   --> A              
     e(  5 -  5) =     -6.66450  eV     1   --> A              
     e(  6 -  6) =     -5.87056  eV     1   --> A              
     e(  7 -  7) =     -5.85369  eV     1   --> A              
     e(  8 -  8) =     -5.67740  eV     1   --> A              
     e(  9 -  9) =      3.93707  eV     1   --> A              
     e( 10 - 10) =      4.30238  eV     1   --> A              
     e( 11 - 11) =      5.45258  eV     1   --> A              
     e( 12 - 12) =      5.75866  eV     1   --> A              
     e( 13 - 13) =      6.39533  eV     1   --> A              
     e( 14 - 14) =      7.22851  eV     1   --> A              
     e( 15 - 15) =      7.60115  eV     1   --> A              
     e( 16 - 16) =      9.18562  eV     1   --> A              
     e( 17 - 17) =      9.24786  eV     1   --> A              
     e( 18 - 18) =      9.64875  eV     1   --> A              
     e( 19 - 19) =      9.69222  eV     1   --> A              
     e( 20 - 20) =     11.13957  eV     1   --> A              

 **************************************************************************

 **************************************************************************

                    xk=(  -0.15873,   0.27493,   0.00000  )

     Band symmetry, C_1 (1)     point group:

     e(  1 -  1) =    -18.77896  eV     1   --> A              
     e(  2 -  2) =    -18.64987  eV     1   --> A              
     e(  3 -  3) =     -7.77775  eV     1   --> A              
     e(  4 -  4) =     -7.75305  eV     1   --> A              
     e(  5 -  5) =     -6.32637  eV     1   --> A              
     e(  6 -  6) =     -6.24039  eV     1   --> A              
     e(  7 -  7) =     -6.22135  eV     1   --> A              
     e(  8 -  8) =     -5.36013  eV     1   --> A              
     e(  9 -  9) =      4.36971  eV     1   --> A              
     e( 10 - 10) =      4.64094  eV     1   --> A              
     e( 11 - 11) =      5.40076  eV     1   --> A              
     e( 12 - 12) =      6.00858  eV     1   --> A              
     e( 13 - 13) =      6.55718  eV     1   --> A              
     e( 14 - 14) =      7.47579  eV     1   --> A              
     e( 15 - 15) =      7.49740  eV     1   --> A              
     e( 16 - 16) =      9.45250  eV     1   --> A              
     e( 17 - 17) =      9.56967  eV     1   --> A              
     e( 18 - 18) =      9.85745  eV     1   --> A              
     e( 19 - 19) =      9.94131  eV     1   --> A              
     e( 20 - 20) =     11.40707  eV     1   --> A              

 **************************************************************************

 **************************************************************************

                    xk=(  -0.17460,   0.30242,   0.00000  )

     Band symmetry, C_1 (1)     point group:

     e(  1 -  1) =    -18.51360  eV     1   --> A              
     e(  2 -  2) =    -18.39136  eV     1   --> A              
     e(  3 -  3) =     -8.26711  eV     1   --> A              
     e(  4 -  4) =     -8.24446  eV     1   --> A              
     e(  5 -  5) =     -6.62847  eV     1   --> A              
     e(  6 -  6) =     -6.59669  eV     1   --> A              
     e(  7 -  7) =     -5.94181  eV     1   --> A              
     e(  8 -  8) =     -5.01853  eV     1   --> A              
     e(  9 -  9) =      4.82598  eV     1   --> A              
     e( 10 - 10) =      4.89996  eV     1   --> A              
     e( 11 - 11) =      5.05684  eV     1   --> A              
     e( 12 - 12) =      6.48009  eV     1   --> A              
     e( 13 - 13) =      6.48693  eV     1   --> A              
     e( 14 - 14) =      7.72716  eV     1   --> A              
     e( 15 - 15) =      7.86229  eV     1   --> A              
     e( 16 - 16) =      9.78745  eV     1   --> A              
     e( 17 - 17) =      9.92900  eV     1   --> A              
     e( 18 - 18) =     10.09898  eV     1   --> A              
     e( 19 - 19) =     10.24933  eV     1   --> A              
     e( 20 - 20) =     11.68609  eV     1   --> A              

 **************************************************************************

 **************************************************************************

                    xk=(  -0.19047,   0.32992,   0.00000  )

     Band symmetry, C_1 (1)     point group:

     e(  1 -  1) =    -18.23592  eV     1   --> A              
     e(  2 -  2) =    -18.12128  eV     1   --> A              
     e(  3 -  3) =     -8.73072  eV     1   --> A              
     e(  4 -  4) =     -8.70916  eV     1   --> A              
     e(  5 -  5) =     -7.01223  eV     1   --> A              
     e(  6 -  6) =     -6.97373  eV     1   --> A              
     e(  7 -  7) =     -5.53877  eV     1   --> A              
     e(  8 -  8) =     -4.66132  eV     1   --> A              
     e(  9 -  9) =      4.57605  eV     1   --> A              
     e( 10 - 10) =      4.92165  eV     1   --> A              
     e( 11 - 11) =      5.37660  eV     1   --> A              
     e( 12 - 12) =      6.51840  eV     1   --> A              
     e( 13 - 13) =      7.02386  eV     1   --> A              
     e( 14 - 14) =      8.18347  eV     1   --> A              
     e( 15 - 15) =      8.28991  eV     1   --> A              
     e( 16 - 16) =     10.16649  eV     1   --> A              
     e( 17 - 17) =     10.30026  eV     1   --> A              
     e( 18 - 18) =     10.36365  eV     1   --> A              
     e( 19 - 19) =     10.61098  eV     1   --> A              
     e( 20 - 20) =     11.97007  eV     1   --> A              

 **************************************************************************

 **************************************************************************

                    xk=(  -0.20635,   0.35741,   0.00000  )

     Band symmetry, C_1 (1)     point group:

     e(  1 -  1) =    -17.95087  eV     1   --> A              
     e(  2 -  2) =    -17.84502  eV     1   --> A              
     e(  3 -  3) =     -9.15908  eV     1   --> A              
     e(  4 -  4) =     -9.13828  eV     1   --> A              
     e(  5 -  5) =     -7.39303  eV     1   --> A              
     e(  6 -  6) =     -7.34702  eV     1   --> A              
     e(  7 -  7) =     -5.11607  eV     1   --> A              
     e(  8 -  8) =     -4.29473  eV     1   --> A              
     e(  9 -  9) =      4.09833  eV     1   --> A              
     e( 10 - 10) =      4.67309  eV     1   --> A              
     e( 11 - 11) =      5.93086  eV     1   --> A              
     e( 12 - 12) =      6.83864  eV     1   --> A              
     e( 13 - 13) =      7.60837  eV     1   --> A              
     e( 14 - 14) =      8.72599  eV     1   --> A              
     e( 15 - 15) =      8.75592  eV     1   --> A              
     e( 16 - 16) =     10.55358  eV     1   --> A              
     e( 17 - 17) =     10.64405  eV     1   --> A              
     e( 18 - 18) =     10.67075  eV     1   --> A              
     e( 19 - 19) =     11.01330  eV     1   --> A              
     e( 20 - 20) =     12.19605  eV     1   --> A              

 **************************************************************************

 **************************************************************************

                    xk=(  -0.22222,   0.38490,   0.00000  )

     Band symmetry, C_1 (1)     point group:

     e(  1 -  1) =    -17.66537  eV     1   --> A              
     e(  2 -  2) =    -17.56962  eV     1   --> A              
     e(  3 -  3) =     -9.54284  eV     1   --> A              
     e(  4 -  4) =     -9.52222  eV     1   --> A              
     e(  5 -  5) =     -7.76669  eV     1   --> A              
     e(  6 -  6) =     -7.71242  eV     1   --> A              
     e(  7 -  7) =     -4.68135  eV     1   --> A              
     e(  8 -  8) =     -3.92838  eV     1   --> A              
     e(  9 -  9) =      3.61316  eV     1   --> A              
     e( 10 - 10) =      4.30682  eV     1   --> A              
     e( 11 - 11) =      6.52518  eV     1   --> A              
     e( 12 - 12) =      7.32739  eV     1   --> A              
     e( 13 - 13) =      8.23574  eV     1   --> A              
     e( 14 - 14) =      9.23530  eV     1   --> A              
     e( 15 - 15) =      9.32296  eV     1   --> A              
     e( 16 - 16) =     10.85296  eV     1   --> A              
     e( 17 - 17) =     10.96592  eV     1   --> A              
     e( 18 - 18) =     11.03096  eV     1   --> A              
     e( 19 - 19) =     11.43536  eV     1   --> A              
     e( 20 - 20) =     12.26067  eV     1   --> A              

 **************************************************************************

 **************************************************************************

                    xk=(  -0.23809,   0.41239,   0.00000  )

     Band symmetry, C_1 (1)     point group:

     e(  1 -  1) =    -17.38801  eV     1   --> A              
     e(  2 -  2) =    -17.30378  eV     1   --> A              
     e(  3 -  3) =     -9.87170  eV     1   --> A              
     e(  4 -  4) =     -9.85080  eV     1   --> A              
     e(  5 -  5) =     -8.12902  eV     1   --> A              
     e(  6 -  6) =     -8.06569  eV     1   --> A              
     e(  7 -  7) =     -4.24412  eV     1   --> A              
     e(  8 -  8) =     -3.57399  eV     1   --> A              
     e(  9 -  9) =      3.14390  eV     1   --> A              
     e( 10 - 10) =      3.92560  eV     1   --> A              
     e( 11 - 11) =      7.15351  eV     1   --> A              
     e( 12 - 12) =      7.89718  eV     1   --> A              
     e( 13 - 13) =      8.89736  eV     1   --> A              
     e( 14 - 14) =      9.68976  eV     1   --> A              
     e( 15 - 15) =      9.95899  eV     1   --> A              
     e( 16 - 16) =     11.02216  eV     1   --> A              
     e( 17 - 17) =     11.28944  eV     1   --> A              
     e( 18 - 18) =     11.36740  eV     1   --> A              
     e( 19 - 19) =     11.82848  eV     1   --> A              
     e( 20 - 20) =     12.21375  eV     1   --> A              

 **************************************************************************

 **************************************************************************

                    xk=(  -0.25397,   0.43989,   0.00000  )

     Band symmetry, C_1 (1)     point group:

     e(  1 -  1) =    -17.12914  eV     1   --> A              
     e(  2 -  2) =    -17.05807  eV     1   --> A              
     e(  3 -  3) =    -10.13572  eV     1   --> A              
     e(  4 -  4) =    -10.11387  eV     1   --> A              
     e(  5 -  5) =     -8.47685  eV     1   --> A              
     e(  6 -  6) =     -8.40346  eV     1   --> A              
     e(  7 -  7) =     -3.81723  eV     1   --> A              
     e(  8 -  8) =     -3.24586  eV     1   --> A              
     e(  9 -  9) =      2.70774  eV     1   --> A              
     e( 10 - 10) =      3.57488  eV     1   --> A              
     e( 11 - 11) =      7.80857  eV     1   --> A              
     e( 12 - 12) =      8.50333  eV     1   --> A              
     e( 13 - 13) =      9.55289  eV     1   --> A              
     e( 14 - 14) =     10.07127  eV     1   --> A              
     e( 15 - 15) =     10.60829  eV     1   --> A              
     e( 16 - 16) =     11.09775  eV     1   --> A              
     e( 17 - 17) =     11.62203  eV     1   --> A              
     e( 18 - 18) =     11.64232  eV     1   --> A              
     e( 19 - 19) =     11.78047  eV     1   --> A              
     e( 20 - 20) =     12.38977  eV     1   --> A              

 **************************************************************************

 **************************************************************************

                    xk=(  -0.26984,   0.46738,   0.00000  )

     Band symmetry, C_1 (1)     point group:

     e(  1 -  1) =    -16.90045  eV     1   --> A              
     e(  2 -  2) =    -16.84349  eV     1   --> A              
     e(  3 -  3) =    -10.32355  eV     1   --> A              
     e(  4 -  4) =    -10.30144  eV     1   --> A              
     e(  5 -  5) =     -8.80647  eV     1   --> A              
     e(  6 -  6) =     -8.72182  eV     1   --> A              
     e(  7 -  7) =     -3.41733  eV     1   --> A              
     e(  8 -  8) =     -2.96127  eV     1   --> A              
     e(  9 -  9) =      2.32251  eV     1   --> A              
     e( 10 - 10) =      3.28030  eV     1   --> A              
     e( 11 - 11) =      8.47688  eV     1   --> A              
     e( 12 - 12) =      9.09740  eV     1   --> A              
     e( 13 - 13) =      9.94525  eV     1   --> A              
     e( 14 - 14) =     10.53236  eV     1   --> A              
     e( 15 - 15) =     11.10446  eV     1   --> A              
     e( 16 - 16) =     11.19778  eV     1   --> A              
     e( 17 - 17) =     11.60661  eV     1   --> A              
     e( 18 - 18) =     11.94836  eV     1   --> A              
     e( 19 - 19) =     12.02266  eV     1   --> A              
     e( 20 - 20) =     12.80209  eV     1   --> A              

 **************************************************************************

 **************************************************************************

                    xk=(  -0.28571,   0.49487,   0.00000  )

     Band symmetry, C_1 (1)     point group:

     e(  1 -  1) =    -16.71348  eV     1   --> A              
     e(  2 -  2) =    -16.67158  eV     1   --> A              
     e(  3 -  3) =    -10.42667  eV     1   --> A              
     e(  4 -  4) =    -10.40575  eV     1   --> A              
     e(  5 -  5) =     -9.11360  eV     1   --> A              
     e(  6 -  6) =     -9.01547  eV     1   --> A              
     e(  7 -  7) =     -3.06626  eV     1   --> A              
     e(  8 -  8) =     -2.73717  eV     1   --> A              
     e(  9 -  9) =      2.00529  eV     1   --> A              
     e( 10 - 10) =      3.05699  eV     1   --> A              
     e( 11 - 11) =      9.12993  eV     1   --> A              
     e( 12 - 12) =      9.57440  eV     1   --> A              
     e( 13 - 13) =      9.95185  eV     1   --> A              
     e( 14 - 14) =     11.09321  eV     1   --> A              
     e( 15 - 15) =     11.14194  eV     1   --> A              
     e( 16 - 16) =     11.48568  eV     1   --> A              
     e( 17 - 17) =     11.96777  eV     1   --> A              
     e( 18 - 18) =     12.26496  eV     1   --> A              
     e( 19 - 19) =     12.49504  eV     1   --> A              
     e( 20 - 20) =     13.16945  eV     1   --> A              

 **************************************************************************

 **************************************************************************

                    xk=(  -0.30158,   0.52237,   0.00000  )

     Band symmetry, C_1 (1)     point group:

     e(  1 -  1) =    -16.57725  eV     1   --> A              
     e(  2 -  2) =    -16.55015  eV     1   --> A              
     e(  3 -  3) =    -10.44413  eV     1   --> A              
     e(  4 -  4) =    -10.42729  eV     1   --> A              
     e(  5 -  5) =     -9.38973  eV     1   --> A              
     e(  6 -  6) =     -9.27476  eV     1   --> A              
     e(  7 -  7) =     -2.78766  eV     1   --> A              
     e(  8 -  8) =     -2.58743  eV     1   --> A              
     e(  9 -  9) =      1.77372  eV     1   --> A              
     e( 10 - 10) =      2.91124  eV     1   --> A              
     e( 11 - 11) =      9.70277  eV     1   --> A              
     e( 12 - 12) =      9.77725  eV     1   --> A              
     e( 13 - 13) =      9.85758  eV     1   --> A              
     e( 14 - 14) =     11.33918  eV     1   --> A              
     e( 15 - 15) =     11.35047  eV     1   --> A              
     e( 16 - 16) =     12.14053  eV     1   --> A              
     e( 17 - 17) =     12.19230  eV     1   --> A              
     e( 18 - 18) =     12.66604  eV     1   --> A              
     e( 19 - 19) =     12.95576  eV     1   --> A              
     e( 20 - 20) =     13.48303  eV     1   --> A              

 **************************************************************************

 **************************************************************************

                    xk=(  -0.31746,   0.54986,   0.00000  )

     Band symmetry, C_1 (1)     point group:

     e(  1 -  1) =    -16.49567  eV     1   --> A              
     e(  2 -  2) =    -16.48255  eV     1   --> A              
     e(  3 -  3) =    -10.39482  eV     1   --> A              
     e(  4 -  4) =    -10.38762  eV     1   --> A              
     e(  5 -  5) =     -9.61402  eV     1   --> A              
     e(  6 -  6) =     -9.47753  eV     1   --> A              
     e(  7 -  7) =     -2.60237  eV     1   --> A              
     e(  8 -  8) =     -2.51664  eV     1   --> A              
     e(  9 -  9) =      1.63869  eV     1   --> A              
     e( 10 - 10) =      2.83736  eV     1   --> A              
     e( 11 - 11) =      9.76954  eV     1   --> A              
     e( 12 - 12) =      9.77277  eV     1   --> A              
     e( 13 - 13) =     10.08069  eV     1   --> A              
     e( 14 - 14) =     11.60023  eV     1   --> A              
     e( 15 - 15) =     11.71392  eV     1   --> A              
     e( 16 - 16) =     12.14644  eV     1   --> A              
     e( 17 - 17) =     12.76425  eV     1   --> A              
     e( 18 - 18) =     12.87090  eV     1   --> A              
     e( 19 - 19) =     13.31285  eV     1   --> A              
     e( 20 - 20) =     13.91036  eV     1   --> A              

 **************************************************************************

 **************************************************************************

                    xk=(  -0.33333,   0.57735,   0.00000  )

     point group C_3 (3)    
     there are  3 classes
     the character table:

       E     C3    C3^2 
A      1.00  1.00  1.00
E      1.00 -0.50 -0.50
E*     1.00 -0.50 -0.50
     imaginary part
A      0.00  0.00  0.00
E      0.00  0.87 -0.87
E*     0.00 -0.87  0.87

     the symmetry operations in each class and the name of the first element:

     E        1
                                                                 
     C3       2
                                                                 
     C3^2     3
                                                                 

     Band symmetry, C_3 (3)     point group:

     e(  1 -  1) =    -16.46740  eV     1   --> E              
     e(  2 -  2) =    -16.46420  eV     1   --> E*             
     e(  3 -  3) =    -10.35168  eV     1   --> E*             
     e(  4 -  4) =    -10.34858  eV     1   --> E              
     e(  5 -  5) =     -9.71685  eV     1   --> A              
     e(  6 -  6) =     -9.56489  eV     1   --> A              
     e(  7 -  7) =     -2.52056  eV     1   --> E              
     e(  8 -  8) =     -2.51736  eV     1   --> E*             
     e(  9 -  9) =      1.59748  eV     1   --> A              
     e( 10 - 10) =      2.81804  eV     1   --> A              
     e( 11 - 11) =      9.74036  eV     1   --> E*             
     e( 12 - 12) =      9.74332  eV     1   --> E              
     e( 13 - 13) =     10.19335  eV     1   --> A              
     e( 14 - 14) =     11.86925  eV     1   --> A              
     e( 15 - 15) =     11.93610  eV     1   -->   ?
     e( 16 - 16) =     11.93759  eV     1   -->   ?
     e( 17 - 17) =     12.89522  eV     1   --> E              
     e( 18 - 18) =     12.90073  eV     1   --> E*             
     e( 19 - 19) =     13.77983  eV     1   --> A              
     e( 20 - 20) =     14.11441  eV     1   -->   ?

 **************************************************************************

 **************************************************************************

                    xk=(  -0.30303,   0.57735,   0.00000  )

     point group C_1 (1)    
     there are  1 classes
     the character table:

       E    
A      1.00

     the symmetry operations in each class and the name of the first element:

     E        1
                                                                 

     Band symmetry, C_1 (1)     point group:

     e(  1 -  1) =    -16.48944  eV     1   --> A              
     e(  2 -  2) =    -16.47863  eV     1   --> A              
     e(  3 -  3) =    -10.41694  eV     1   --> A              
     e(  4 -  4) =    -10.39447  eV     1   --> A              
     e(  5 -  5) =     -9.60820  eV     1   --> A              
     e(  6 -  6) =     -9.47220  eV     1   --> A              
     e(  7 -  7) =     -2.57622  eV     1   --> A              
     e(  8 -  8) =     -2.52486  eV     1   --> A              
     e(  9 -  9) =      1.62654  eV     1   --> A              
     e( 10 - 10) =      2.82803  eV     1   --> A              
     e( 11 - 11) =      9.77178  eV     1   --> A              
     e( 12 - 12) =      9.78016  eV     1   --> A              
     e( 13 - 13) =     10.12130  eV     1   --> A              
     e( 14 - 14) =     11.58033  eV     1   --> A              
     e( 15 - 15) =     11.79287  eV     1   --> A              
     e( 16 - 16) =     12.11511  eV     1   --> A              
     e( 17 - 17) =     12.70890  eV     1   --> A              
     e( 18 - 18) =     12.93288  eV     1   --> A              
     e( 19 - 19) =     13.54756  eV     1   --> A              
     e( 20 - 20) =     13.70067  eV     1   --> A              

 **************************************************************************

 **************************************************************************

                    xk=(  -0.27272,   0.57735,   0.00000  )

     Band symmetry, C_1 (1)     point group:

     e(  1 -  1) =    -16.54144  eV     1   --> A              
     e(  2 -  2) =    -16.52236  eV     1   --> A              
     e(  3 -  3) =    -10.55998  eV     1   --> A              
     e(  4 -  4) =    -10.51054  eV     1   --> A              
     e(  5 -  5) =     -9.34139  eV     1   --> A              
     e(  6 -  6) =     -9.22833  eV     1   --> A              
     e(  7 -  7) =     -2.67151  eV     1   --> A              
     e(  8 -  8) =     -2.59395  eV     1   --> A              
     e(  9 -  9) =      1.69402  eV     1   --> A              
     e( 10 - 10) =      2.84465  eV     1   --> A              
     e( 11 - 11) =      9.87512  eV     1   --> A              
     e( 12 - 12) =      9.87923  eV     1   --> A              
     e( 13 - 13) =      9.94849  eV     1   --> A              
     e( 14 - 14) =     11.16684  eV     1   --> A              
     e( 15 - 15) =     11.61490  eV     1   --> A              
     e( 16 - 16) =     12.01665  eV     1   --> A              
     e( 17 - 17) =     12.49379  eV     1   --> A              
     e( 18 - 18) =     12.65977  eV     1   --> A              
     e( 19 - 19) =     13.23021  eV     1   --> A              
     e( 20 - 20) =     13.31746  eV     1   --> A              

 **************************************************************************

 **************************************************************************

                    xk=(  -0.24242,   0.57735,   0.00000  )

     Band symmetry, C_1 (1)     point group:

     e(  1 -  1) =    -16.61243  eV     1   --> A              
     e(  2 -  2) =    -16.58658  eV     1   --> A              
     e(  3 -  3) =    -10.71810  eV     1   --> A              
     e(  4 -  4) =    -10.65003  eV     1   --> A              
     e(  5 -  5) =     -8.99446  eV     1   --> A              
     e(  6 -  6) =     -8.89791  eV     1   --> A              
     e(  7 -  7) =     -2.78929  eV     1   --> A              
     e(  8 -  8) =     -2.70290  eV     1   --> A              
     e(  9 -  9) =      1.77326  eV     1   --> A              
     e( 10 - 10) =      2.85303  eV     1   --> A              
     e( 11 - 11) =      9.68521  eV     1   --> A              
     e( 12 - 12) =     10.02271  eV     1   --> A              
     e( 13 - 13) =     10.05435  eV     1   --> A              
     e( 14 - 14) =     10.71456  eV     1   --> A              
     e( 15 - 15) =     11.39939  eV     1   --> A              
     e( 16 - 16) =     11.74729  eV     1   --> A              
     e( 17 - 17) =     12.23441  eV     1   --> A              
     e( 18 - 18) =     12.27295  eV     1   --> A              
     e( 19 - 19) =     12.90542  eV     1   --> A              
     e( 20 - 20) =     12.96050  eV     1   --> A              

 **************************************************************************

 **************************************************************************

                    xk=(  -0.21212,   0.57735,   0.00000  )

     Band symmetry, C_1 (1)     point group:

     e(  1 -  1) =    -16.69312  eV     1   --> A              
     e(  2 -  2) =    -16.66188  eV     1   --> A              
     e(  3 -  3) =    -10.86872  eV     1   --> A              
     e(  4 -  4) =    -10.78800  eV     1   --> A              
     e(  5 -  5) =     -8.60719  eV     1   --> A              
     e(  6 -  6) =     -8.52289  eV     1   --> A              
     e(  7 -  7) =     -2.91654  eV     1   --> A              
     e(  8 -  8) =     -2.83125  eV     1   --> A              
     e(  9 -  9) =      1.84519  eV     1   --> A              
     e( 10 - 10) =      2.84645  eV     1   --> A              
     e( 11 - 11) =      9.35992  eV     1   --> A              
     e( 12 - 12) =     10.14979  eV     1   --> A              
     e( 13 - 13) =     10.18381  eV     1   --> A              
     e( 14 - 14) =     10.30697  eV     1   --> A              
     e( 15 - 15) =     11.18453  eV     1   --> A              
     e( 16 - 16) =     11.38953  eV     1   --> A              
     e( 17 - 17) =     11.80094  eV     1   --> A              
     e( 18 - 18) =     12.14715  eV     1   --> A              
     e( 19 - 19) =     12.61926  eV     1   --> A              
     e( 20 - 20) =     12.63781  eV     1   --> A              

 **************************************************************************

 **************************************************************************

                    xk=(  -0.18182,   0.57735,   0.00000  )

     Band symmetry, C_1 (1)     point group:

     e(  1 -  1) =    -16.77553  eV     1   --> A              
     e(  2 -  2) =    -16.74001  eV     1   --> A              
     e(  3 -  3) =    -11.00368  eV     1   --> A              
     e(  4 -  4) =    -10.91371  eV     1   --> A              
     e(  5 -  5) =     -8.20386  eV     1   --> A              
     e(  6 -  6) =     -8.13055  eV     1   --> A              
     e(  7 -  7) =     -3.04191  eV     1   --> A              
     e(  8 -  8) =     -2.96265  eV     1   --> A              
     e(  9 -  9) =      1.90068  eV     1   --> A              
     e( 10 - 10) =      2.82523  eV     1   --> A              
     e( 11 - 11) =      8.96865  eV     1   --> A              
     e( 12 - 12) =      9.67020  eV     1   --> A              
     e( 13 - 13) =     10.21123  eV     1   --> A              
     e( 14 - 14) =     10.47568  eV     1   --> A              
     e( 15 - 15) =     11.02385  eV     1   --> A              
     e( 16 - 16) =     11.03121  eV     1   --> A              
     e( 17 - 17) =     11.43768  eV     1   --> A              
     e( 18 - 18) =     12.09251  eV     1   --> A              
     e( 19 - 19) =     12.35699  eV     1   --> A              
     e( 20 - 20) =     12.45337  eV     1   --> A              

 **************************************************************************

 **************************************************************************

                    xk=(  -0.15151,   0.57735,   0.00000  )

     Band symmetry, C_1 (1)     point group:

     e(  1 -  1) =    -16.85397  eV     1   --> A              
     e(  2 -  2) =    -16.81501  eV     1   --> A              
     e(  3 -  3) =    -11.12001  eV     1   --> A              
     e(  4 -  4) =    -11.02291  eV     1   --> A              
     e(  5 -  5) =     -7.80720  eV     1   --> A              
     e(  6 -  6) =     -7.74406  eV     1   --> A              
     e(  7 -  7) =     -3.15822  eV     1   --> A              
     e(  8 -  8) =     -3.08678  eV     1   --> A              
     e(  9 -  9) =      1.93751  eV     1   --> A              
     e( 10 - 10) =      2.79340  eV     1   --> A              
     e( 11 - 11) =      8.53091  eV     1   --> A              
     e( 12 - 12) =      9.12069  eV     1   --> A              
     e( 13 - 13) =     10.18916  eV     1   --> A              
     e( 14 - 14) =     10.49976  eV     1   --> A              
     e( 15 - 15) =     10.73693  eV     1   --> A              
     e( 16 - 16) =     10.98746  eV     1   --> A              
     e( 17 - 17) =     11.21647  eV     1   --> A              
     e( 18 - 18) =     11.96042  eV     1   --> A              
     e( 19 - 19) =     12.12120  eV     1   --> A              
     e( 20 - 20) =     12.49492  eV     1   --> A              

 **************************************************************************

 **************************************************************************

                    xk=(  -0.12121,   0.57735,   0.00000  )

     Band symmetry, C_1 (1)     point group:

     e(  1 -  1) =    -16.92382  eV     1   --> A              
     e(  2 -  2) =    -16.88235  eV     1   --> A              
     e(  3 -  3) =    -11.21651  eV     1   --> A              
     e(  4 -  4) =    -11.11407  eV     1   --> A              
     e(  5 -  5) =     -7.43893  eV     1   --> A              
     e(  6 -  6) =     -7.38473  eV     1   --> A              
     e(  7 -  7) =     -3.26049  eV     1   --> A              
     e(  8 -  8) =     -3.19655  eV     1   --> A              
     e(  9 -  9) =      1.95838  eV     1   --> A              
     e( 10 - 10) =      2.75667  eV     1   --> A              
     e( 11 - 11) =      8.08687  eV     1   --> A              
     e( 12 - 12) =      8.59902  eV     1   --> A              
     e( 13 - 13) =     10.11082  eV     1   --> A              
     e( 14 - 14) =     10.38465  eV     1   --> A              
     e( 15 - 15) =     10.52375  eV     1   --> A              
     e( 16 - 16) =     10.86066  eV     1   --> A              
     e( 17 - 17) =     11.29128  eV     1   --> A              
     e( 18 - 18) =     11.79855  eV     1   --> A              
     e( 19 - 19) =     11.93313  eV     1   --> A              
     e( 20 - 20) =     12.57628  eV     1   --> A              

 **************************************************************************

 **************************************************************************

                    xk=(  -0.09091,   0.57735,   0.00000  )

     Band symmetry, C_1 (1)     point group:

     e(  1 -  1) =    -16.98121  eV     1   --> A              
     e(  2 -  2) =    -16.93790  eV     1   --> A              
     e(  3 -  3) =    -11.29187  eV     1   --> A              
     e(  4 -  4) =    -11.18544  eV     1   --> A              
     e(  5 -  5) =     -7.12057  eV     1   --> A              
     e(  6 -  6) =     -7.07374  eV     1   --> A              
     e(  7 -  7) =     -3.34339  eV     1   --> A              
     e(  8 -  8) =     -3.28591  eV     1   --> A              
     e(  9 -  9) =      1.96774  eV     1   --> A              
     e( 10 - 10) =      2.72124  eV     1   --> A              
     e( 11 - 11) =      7.68380  eV     1   --> A              
     e( 12 - 12) =      8.14682  eV     1   --> A              
     e( 13 - 13) =     10.01634  eV     1   --> A              
     e( 14 - 14) =     10.25874  eV     1   --> A              
     e( 15 - 15) =     10.37879  eV     1   --> A              
     e( 16 - 16) =     10.71389  eV     1   --> A              
     e( 17 - 17) =     11.42792  eV     1   --> A              
     e( 18 - 18) =     11.66141  eV     1   --> A              
     e( 19 - 19) =     11.79957  eV     1   --> A              
     e( 20 - 20) =     12.56052  eV     1   --> A              

 **************************************************************************

 **************************************************************************

                    xk=(  -0.06061,   0.57735,   0.00000  )

     Band symmetry, C_1 (1)     point group:

     e(  1 -  1) =    -17.02376  eV     1   --> A              
     e(  2 -  2) =    -16.97920  eV     1   --> A              
     e(  3 -  3) =    -11.34589  eV     1   --> A              
     e(  4 -  4) =    -11.23678  eV     1   --> A              
     e(  5 -  5) =     -6.87323  eV     1   --> A              
     e(  6 -  6) =     -6.83238  eV     1   --> A              
     e(  7 -  7) =     -3.40381  eV     1   --> A              
     e(  8 -  8) =     -3.35141  eV     1   --> A              
     e(  9 -  9) =      1.97068  eV     1   --> A              
     e( 10 - 10) =      2.69246  eV     1   --> A              
     e( 11 - 11) =      7.36343  eV     1   --> A              
     e( 12 - 12) =      7.79757  eV     1   --> A              
     e( 13 - 13) =      9.93569  eV     1   --> A              
     e( 14 - 14) =     10.16043  eV     1   --> A              
     e( 15 - 15) =     10.28433  eV     1   --> A              
     e( 16 - 16) =     10.60733  eV     1   --> A              
     e( 17 - 17) =     11.49802  eV     1   --> A              
     e( 18 - 18) =     11.56083  eV     1   --> A              
     e( 19 - 19) =     11.73697  eV     1   --> A              
     e( 20 - 20) =     12.48895  eV     1   --> A              

 **************************************************************************

 **************************************************************************

                    xk=(  -0.03030,   0.57735,   0.00000  )

     Band symmetry, C_1 (1)     point group:

     e(  1 -  1) =    -17.05000  eV     1   --> A              
     e(  2 -  2) =    -17.00468  eV     1   --> A              
     e(  3 -  3) =    -11.37828  eV     1   --> A              
     e(  4 -  4) =    -11.26761  eV     1   --> A              
     e(  5 -  5) =     -6.71621  eV     1   --> A              
     e(  6 -  6) =     -6.67887  eV     1   --> A              
     e(  7 -  7) =     -3.44100  eV     1   --> A              
     e(  8 -  8) =     -3.39147  eV     1   --> A              
     e(  9 -  9) =      1.97056  eV     1   --> A              
     e( 10 - 10) =      2.67333  eV     1   --> A              
     e( 11 - 11) =      7.15769  eV     1   --> A              
     e( 12 - 12) =      7.57724  eV     1   --> A              
     e( 13 - 13) =      9.88369  eV     1   --> A              
     e( 14 - 14) =     10.09953  eV     1   --> A              
     e( 15 - 15) =     10.23003  eV     1   --> A              
     e( 16 - 16) =     10.54373  eV     1   --> A              
     e( 17 - 17) =     11.49869  eV     1   --> A              
     e( 18 - 18) =     11.50002  eV     1   --> A              
     e( 19 - 19) =     11.73607  eV     1   --> A              
     e( 20 - 20) =     12.43704  eV     1   --> A              

 **************************************************************************

 **************************************************************************

                    xk=(   0.00000,   0.57735,   0.00000  )

     point group C_s (m)    
     there are  2 classes
     the character table:

       E     s    
A'     1.00  1.00
A''    1.00 -1.00

     the symmetry operations in each class and the name of the first element:

     E        1
                                                                 
     s        2
                                                                 

     Band symmetry, C_s (m)     point group:

     e(  1 -  1) =    -17.05891  eV     1   --> A'             
     e(  2 -  2) =    -17.01327  eV     1   --> A'             
     e(  3 -  3) =    -11.38919  eV     1   --> A'             
     e(  4 -  4) =    -11.27794  eV     1   --> A'             
     e(  5 -  5) =     -6.66227  eV     1   --> A''            
     e(  6 -  6) =     -6.62645  eV     1   --> A''            
     e(  7 -  7) =     -3.45368  eV     1   --> A'             
     e(  8 -  8) =     -3.40515  eV     1   --> A'             
     e(  9 -  9) =      1.97014  eV     1   --> A'             
     e( 10 - 10) =      2.66657  eV     1   --> A'             
     e( 11 - 11) =      7.08680  eV     1   --> A'             
     e( 12 - 12) =      7.50171  eV     1   --> A'             
     e( 13 - 13) =      9.86582  eV     1   --> A'             
     e( 14 - 14) =     10.07894  eV     1   --> A'             
     e( 15 - 15) =     10.21221  eV     1   --> A'             
     e( 16 - 16) =     10.52262  eV     1   --> A'             
     e( 17 - 17) =     11.47937  eV     1   --> A'             
     e( 18 - 18) =     11.49114  eV     1   --> A'             
     e( 19 - 19) =     11.74257  eV     1   --> A'             
     e( 20 - 20) =     12.41907  eV     1   --> A'             

 **************************************************************************

 **************************************************************************

                    xk=(   0.00000,   0.54528,   0.00000  )

     Band symmetry, C_s (m)     point group:

     e(  1 -  1) =    -17.10569  eV     1   --> A'             
     e(  2 -  2) =    -17.05461  eV     1   --> A'             
     e(  3 -  3) =    -11.32062  eV     1   --> A'             
     e(  4 -  4) =    -11.21021  eV     1   --> A'             
     e(  5 -  5) =     -6.64653  eV     1   --> A''            
     e(  6 -  6) =     -6.61053  eV     1   --> A''            
     e(  7 -  7) =     -3.61302  eV     1   --> A'             
     e(  8 -  8) =     -3.38188  eV     1   --> A'             
     e(  9 -  9) =      2.05665  eV     1   --> A'             
     e( 10 - 10) =      2.75634  eV     1   --> A'             
     e( 11 - 11) =      7.04116  eV     1   --> A'             
     e( 12 - 12) =      7.50297  eV     1   --> A'             
     e( 13 - 13) =      9.34879  eV     1   --> A'             
     e( 14 - 14) =      9.54647  eV     1   --> A'             
     e( 15 - 15) =     10.60571  eV     1   --> A'             
     e( 16 - 16) =     10.79671  eV     1   --> A'             
     e( 17 - 17) =     11.07797  eV     1   --> A'             
     e( 18 - 18) =     11.51084  eV     1   --> A'             
     e( 19 - 19) =     11.78849  eV     1   --> A'             
     e( 20 - 20) =     12.29526  eV     1   --> A'             

 **************************************************************************

 **************************************************************************

                    xk=(   0.00000,   0.51320,   0.00000  )

     Band symmetry, C_s (m)     point group:

     e(  1 -  1) =    -17.23736  eV     1   --> A'             
     e(  2 -  2) =    -17.17347  eV     1   --> A'             
     e(  3 -  3) =    -11.12025  eV     1   --> A'             
     e(  4 -  4) =    -11.01236  eV     1   --> A'             
     e(  5 -  5) =     -6.59903  eV     1   --> A''            
     e(  6 -  6) =     -6.56355  eV     1   --> A''            
     e(  7 -  7) =     -3.90161  eV     1   --> A'             
     e(  8 -  8) =     -3.47555  eV     1   --> A'             
     e(  9 -  9) =      2.30558  eV     1   --> A'             
     e( 10 - 10) =      3.00885  eV     1   --> A'             
     e( 11 - 11) =      6.89583  eV     1   --> A'             
     e( 12 - 12) =      7.49658  eV     1   --> A'             
     e( 13 - 13) =      8.78187  eV     1   --> A'             
     e( 14 - 14) =      8.87523  eV     1   --> A'             
     e( 15 - 15) =      9.90306  eV     1   --> A'             
     e( 16 - 16) =     10.86512  eV     1   --> A'             
     e( 17 - 17) =     10.90932  eV     1   --> A'             
     e( 18 - 18) =     11.61792  eV     1   --> A'             
     e( 19 - 19) =     12.04820  eV     1   --> A'             
     e( 20 - 20) =     12.21735  eV     1   --> A'             

 **************************************************************************

 **************************************************************************

                    xk=(   0.00000,   0.48113,   0.00000  )

     Band symmetry, C_s (m)     point group:

     e(  1 -  1) =    -17.43420  eV     1   --> A'             
     e(  2 -  2) =    -17.35616  eV     1   --> A'             
     e(  3 -  3) =    -10.80620  eV     1   --> A'             
     e(  4 -  4) =    -10.70211  eV     1   --> A'             
     e(  5 -  5) =     -6.52021  eV     1   --> A''            
     e(  6 -  6) =     -6.48579  eV     1   --> A''            
     e(  7 -  7) =     -4.26358  eV     1   --> A'             
     e(  8 -  8) =     -3.68127  eV     1   --> A'             
     e(  9 -  9) =      2.68790  eV     1   --> A'             
     e( 10 - 10) =      3.38389  eV     1   --> A'             
     e( 11 - 11) =      6.62921  eV     1   --> A'             
     e( 12 - 12) =      7.43633  eV     1   --> A'             
     e( 13 - 13) =      8.29164  eV     1   --> A'             
     e( 14 - 14) =      8.33160  eV     1   --> A'             
     e( 15 - 15) =      9.19670  eV     1   --> A'             
     e( 16 - 16) =     10.19404  eV     1   --> A'             
     e( 17 - 17) =     10.43893  eV     1   --> A'             
     e( 18 - 18) =     11.79374  eV     1   --> A'             
     e( 19 - 19) =     12.25652  eV     1   --> A'             
     e( 20 - 20) =     12.74026  eV     1   --> A'             

 **************************************************************************

 **************************************************************************

                    xk=(   0.00000,   0.44905,   0.00000  )

     Band symmetry, C_s (m)     point group:

     e(  1 -  1) =    -17.67511  eV     1   --> A'             
     e(  2 -  2) =    -17.58386  eV     1   --> A'             
     e(  3 -  3) =    -10.40043  eV     1   --> A'             
     e(  4 -  4) =    -10.30106  eV     1   --> A'             
     e(  5 -  5) =     -6.41224  eV     1   --> A''            
     e(  6 -  6) =     -6.37819  eV     1   --> A''            
     e(  7 -  7) =     -4.66656  eV     1   --> A'             
     e(  8 -  8) =     -3.96485  eV     1   --> A'             
     e(  9 -  9) =      3.16398  eV     1   --> A'             
     e( 10 - 10) =      3.83371  eV     1   --> A'             
     e( 11 - 11) =      6.24379  eV     1   --> A'             
     e( 12 - 12) =      7.19657  eV     1   --> A'             
     e( 13 - 13) =      7.91045  eV     1   --> A'             
     e( 14 - 14) =      7.99917  eV     1   --> A'             
     e( 15 - 15) =      8.58208  eV     1   --> A'             
     e( 16 - 16) =      9.53540  eV     1   --> A'             
     e( 17 - 17) =      9.95541  eV     1   --> A'             
     e( 18 - 18) =     11.33926  eV     1   --> A'             
     e( 19 - 19) =     12.13819  eV     1   --> A'             
     e( 20 - 20) =     13.03422  eV     1   --> A'             

 **************************************************************************

 **************************************************************************

                    xk=(   0.00000,   0.41698,   0.00000  )

     Band symmetry, C_s (m)     point group:

     e(  1 -  1) =    -17.94061  eV     1   --> A'             
     e(  2 -  2) =    -17.83789  eV     1   --> A'             
     e(  3 -  3) =     -9.92360  eV     1   --> A'             
     e(  4 -  4) =     -9.82986  eV     1   --> A'             
     e(  5 -  5) =     -6.27542  eV     1   --> A''            
     e(  6 -  6) =     -6.24184  eV     1   --> A''            
     e(  7 -  7) =     -5.08501  eV     1   --> A'             
     e(  8 -  8) =     -4.29342  eV     1   --> A'             
     e(  9 -  9) =      3.69276  eV     1   --> A'             
     e( 10 - 10) =      4.30592  eV     1   --> A'             
     e( 11 - 11) =      5.78427  eV     1   --> A'             
     e( 12 - 12) =      6.78643  eV     1   --> A'             
     e( 13 - 13) =      7.52749  eV     1   --> A'             
     e( 14 - 14) =      7.86306  eV     1   --> A'             
     e( 15 - 15) =      8.14291  eV     1   --> A'             
     e( 16 - 16) =      8.94037  eV     1   --> A'             
     e( 17 - 17) =      9.50871  eV     1   --> A'             
     e( 18 - 18) =     10.89128  eV     1   --> A'             
     e( 19 - 19) =     11.58573  eV     1   --> A'             
     e( 20 - 20) =     13.26516  eV     1   --> A'             

 **************************************************************************

 **************************************************************************

                    xk=(   0.00000,   0.38490,   0.00000  )

     Band symmetry, C_s (m)     point group:

     e(  1 -  1) =    -18.21621  eV     1   --> A'             
     e(  2 -  2) =    -18.10378  eV     1   --> A'             
     e(  3 -  3) =     -9.39354  eV     1   --> A'             
     e(  4 -  4) =     -9.30631  eV     1   --> A'             
     e(  5 -  5) =     -6.11180  eV     1   --> A''            
     e(  6 -  6) =     -6.07868  eV     1   --> A''            
     e(  7 -  7) =     -5.50236  eV     1   --> A'             
     e(  8 -  8) =     -4.64179  eV     1   --> A'             
     e(  9 -  9) =      4.22746  eV     1   --> A'             
     e( 10 - 10) =      4.71559  eV     1   --> A'             
     e( 11 - 11) =      5.30052  eV     1   --> A'             
     e( 12 - 12) =      6.42685  eV     1   --> A'             
     e( 13 - 13) =      7.02949  eV     1   --> A'             
     e( 14 - 14) =      7.77029  eV     1   --> A'             
     e( 15 - 15) =      7.88465  eV     1   --> A'             
     e( 16 - 16) =      8.45711  eV     1   --> A'             
     e( 17 - 17) =      9.13789  eV     1   --> A'             
     e( 18 - 18) =     10.47303  eV     1   --> A'             
     e( 19 - 19) =     11.04516  eV     1   --> A'             
     e( 20 - 20) =     13.08032  eV     1   --> A'             

 **************************************************************************

 **************************************************************************

                    xk=(   0.00000,   0.35283,   0.00000  )

     Band symmetry, C_s (m)     point group:

     e(  1 -  1) =    -18.49079  eV     1   --> A'             
     e(  2 -  2) =    -18.37000  eV     1   --> A'             
     e(  3 -  3) =     -8.82570  eV     1   --> A'             
     e(  4 -  4) =     -8.74471  eV     1   --> A'             
     e(  5 -  5) =     -5.92382  eV     1   --> A''            
     e(  6 -  6) =     -5.90635  eV     1   --> A'             
     e(  7 -  7) =     -5.89184  eV     1   --> A''            
     e(  8 -  8) =     -4.99274  eV     1   --> A'             
     e(  9 -  9) =      4.65751  eV     1   --> A'             
     e( 10 - 10) =      4.82107  eV     1   --> A'             
     e( 11 - 11) =      4.95617  eV     1   --> A'             
     e( 12 - 12) =      6.31483  eV     1   --> A'             
     e( 13 - 13) =      6.52110  eV     1   --> A'             
     e( 14 - 14) =      7.55732  eV     1   --> A'             
     e( 15 - 15) =      7.66064  eV     1   --> A'             
     e( 16 - 16) =      8.21482  eV     1   --> A'             
     e( 17 - 17) =      8.86809  eV     1   --> A'             
     e( 18 - 18) =     10.10114  eV     1   --> A'             
     e( 19 - 19) =     10.54748  eV     1   --> A'             
     e( 20 - 20) =     12.77792  eV     1   --> A'             

 **************************************************************************

 **************************************************************************

                    xk=(   0.00000,   0.32075,   0.00000  )

     Band symmetry, C_s (m)     point group:

     e(  1 -  1) =    -18.75640  eV     1   --> A'             
     e(  2 -  2) =    -18.62824  eV     1   --> A'             
     e(  3 -  3) =     -8.23350  eV     1   --> A'             
     e(  4 -  4) =     -8.15893  eV     1   --> A'             
     e(  5 -  5) =     -6.28860  eV     1   --> A'             
     e(  6 -  6) =     -5.71494  eV     1   --> A''            
     e(  7 -  7) =     -5.68419  eV     1   --> A''            
     e(  8 -  8) =     -5.33319  eV     1   --> A'             
     e(  9 -  9) =      4.36528  eV     1   --> A'             
     e( 10 - 10) =      4.61198  eV     1   --> A'             
     e( 11 - 11) =      5.26335  eV     1   --> A'             
     e( 12 - 12) =      6.03908  eV     1   --> A'             
     e( 13 - 13) =      6.44625  eV     1   --> A'             
     e( 14 - 14) =      7.30783  eV     1   --> A'             
     e( 15 - 15) =      7.44650  eV     1   --> A'             
     e( 16 - 16) =      8.18634  eV     1   --> A'             
     e( 17 - 17) =      8.69901  eV     1   --> A'             
     e( 18 - 18) =      9.79037  eV     1   --> A'             
     e( 19 - 19) =     10.10566  eV     1   --> A'             
     e( 20 - 20) =     12.46975  eV     1   --> A'             

 **************************************************************************

 **************************************************************************

                    xk=(   0.00000,   0.28868,   0.00000  )

     Band symmetry, C_s (m)     point group:

     e(  1 -  1) =    -19.00706  eV     1   --> A'             
     e(  2 -  2) =    -18.87265  eV     1   --> A'             
     e(  3 -  3) =     -7.63079  eV     1   --> A'             
     e(  4 -  4) =     -7.56190  eV     1   --> A'             
     e(  5 -  5) =     -6.64105  eV     1   --> A'             
     e(  6 -  6) =     -5.65465  eV     1   --> A'             
     e(  7 -  7) =     -5.48934  eV     1   --> A''            
     e(  8 -  8) =     -5.45941  eV     1   --> A''            
     e(  9 -  9) =      3.94331  eV     1   --> A'             
     e( 10 - 10) =      4.31194  eV     1   --> A'             
     e( 11 - 11) =      5.42579  eV     1   --> A'             
     e( 12 - 12) =      5.72349  eV     1   --> A'             
     e( 13 - 13) =      6.37995  eV     1   --> A'             
     e( 14 - 14) =      7.15129  eV     1   --> A'             
     e( 15 - 15) =      7.50258  eV     1   --> A'             
     e( 16 - 16) =      8.22495  eV     1   --> A'             
     e( 17 - 17) =      8.61115  eV     1   --> A'             
     e( 18 - 18) =      9.55302  eV     1   --> A'             
     e( 19 - 19) =      9.73698  eV     1   --> A'             
     e( 20 - 20) =     12.18978  eV     1   --> A'             

 **************************************************************************

 **************************************************************************

                    xk=(   0.00000,   0.25660,   0.00000  )

     Band symmetry, C_s (m)     point group:

     e(  1 -  1) =    -19.23855  eV     1   --> A'             
     e(  2 -  2) =    -19.09885  eV     1   --> A'             
     e(  3 -  3) =     -7.08847  eV     1   --> A'             
     e(  4 -  4) =     -6.97672  eV     1   --> A'             
     e(  5 -  5) =     -6.88932  eV     1   --> A'             
     e(  6 -  6) =     -5.94990  eV     1   --> A'             
     e(  7 -  7) =     -5.25095  eV     1   --> A''            
     e(  8 -  8) =     -5.22304  eV     1   --> A''            
     e(  9 -  9) =      3.55747  eV     1   --> A'             
     e( 10 - 10) =      3.97821  eV     1   --> A'             
     e( 11 - 11) =      5.11739  eV     1   --> A'             
     e( 12 - 12) =      5.73564  eV     1   --> A'             
     e( 13 - 13) =      6.09875  eV     1   --> A'             
     e( 14 - 14) =      7.05488  eV     1   --> A'             
     e( 15 - 15) =      7.78682  eV     1   --> A'             
     e( 16 - 16) =      8.30609  eV     1   --> A'             
     e( 17 - 17) =      8.59228  eV     1   --> A'             
     e( 18 - 18) =      9.39264  eV     1   --> A'             
     e( 19 - 19) =      9.47453  eV     1   --> A'             
     e( 20 - 20) =     11.95157  eV     1   --> A'             

 **************************************************************************

 **************************************************************************

                    xk=(   0.00000,   0.22453,   0.00000  )

     Band symmetry, C_s (m)     point group:

     e(  1 -  1) =    -19.44802  eV     1   --> A'             
     e(  2 -  2) =    -19.30378  eV     1   --> A'             
     e(  3 -  3) =     -7.28032  eV     1   --> A'             
     e(  4 -  4) =     -6.42864  eV     1   --> A'             
     e(  5 -  5) =     -6.38516  eV     1   --> A'             
     e(  6 -  6) =     -6.18841  eV     1   --> A'             
     e(  7 -  7) =     -5.00728  eV     1   --> A''            
     e(  8 -  8) =     -4.98094  eV     1   --> A''            
     e(  9 -  9) =      3.21079  eV     1   --> A'             
     e( 10 - 10) =      3.65979  eV     1   --> A'             
     e( 11 - 11) =      4.76935  eV     1   --> A'             
     e( 12 - 12) =      5.65589  eV     1   --> A'             
     e( 13 - 13) =      5.78655  eV     1   --> A'             
     e( 14 - 14) =      7.00501  eV     1   --> A'             
     e( 15 - 15) =      7.93060  eV     1   --> A'             
     e( 16 - 16) =      8.48078  eV     1   --> A'             
     e( 17 - 17) =      8.63978  eV     1   --> A'             
     e( 18 - 18) =      9.31158  eV     1   --> A'             
     e( 19 - 19) =      9.36579  eV     1   --> A'             
     e( 20 - 20) =     11.65818  eV     1   --> A'             

 **************************************************************************

 **************************************************************************

                    xk=(   0.00000,   0.19245,   0.00000  )

     Band symmetry, C_s (m)     point group:

     e(  1 -  1) =    -19.63300  eV     1   --> A'             
     e(  2 -  2) =    -19.48484  eV     1   --> A'             
     e(  3 -  3) =     -7.53222  eV     1   --> A'             
     e(  4 -  4) =     -6.47778  eV     1   --> A'             
     e(  5 -  5) =     -5.83972  eV     1   --> A'             
     e(  6 -  6) =     -5.79259  eV     1   --> A'             
     e(  7 -  7) =     -4.76466  eV     1   --> A''            
     e(  8 -  8) =     -4.74086  eV     1   --> A''            
     e(  9 -  9) =      2.90508  eV     1   --> A'             
     e( 10 - 10) =      3.37307  eV     1   --> A'             
     e( 11 - 11) =      4.45899  eV     1   --> A'             
     e( 12 - 12) =      5.49232  eV     1   --> A'             
     e( 13 - 13) =      5.49834  eV     1   --> A'             
     e( 14 - 14) =      6.94401  eV     1   --> A'             
     e( 15 - 15) =      7.87660  eV     1   --> A'             
     e( 16 - 16) =      8.66336  eV     1   --> A'             
     e( 17 - 17) =      8.73367  eV     1   --> A'             
     e( 18 - 18) =      9.26896  eV     1   --> A'             
     e( 19 - 19) =      9.48465  eV     1   --> A'             
     e( 20 - 20) =     11.26273  eV     1   --> A'             

 **************************************************************************

 **************************************************************************

                    xk=(   0.00000,   0.16038,   0.00000  )

     Band symmetry, C_s (m)     point group:

     e(  1 -  1) =    -19.79184  eV     1   --> A'             
     e(  2 -  2) =    -19.64030  eV     1   --> A'             
     e(  3 -  3) =     -7.75035  eV     1   --> A'             
     e(  4 -  4) =     -6.67730  eV     1   --> A'             
     e(  5 -  5) =     -5.31039  eV     1   --> A'             
     e(  6 -  6) =     -5.27373  eV     1   --> A'             
     e(  7 -  7) =     -4.53225  eV     1   --> A''            
     e(  8 -  8) =     -4.51126  eV     1   --> A''            
     e(  9 -  9) =      2.64167  eV     1   --> A'             
     e( 10 - 10) =      3.12469  eV     1   --> A'             
     e( 11 - 11) =      4.19330  eV     1   --> A'             
     e( 12 - 12) =      5.24422  eV     1   --> A'             
     e( 13 - 13) =      5.30973  eV     1   --> A'             
     e( 14 - 14) =      6.85557  eV     1   --> A'             
     e( 15 - 15) =      7.73886  eV     1   --> A'             
     e( 16 - 16) =      8.79169  eV     1   --> A'             
     e( 17 - 17) =      8.82937  eV     1   --> A'             
     e( 18 - 18) =      9.24102  eV     1   --> A'             
     e( 19 - 19) =      9.75471  eV     1   --> A'             
     e( 20 - 20) =     10.67947  eV     1   --> A''            

 **************************************************************************

 **************************************************************************

                    xk=(   0.00000,   0.12830,   0.00000  )

     Band symmetry, C_s (m)     point group:

     e(  1 -  1) =    -19.92342  eV     1   --> A'             
     e(  2 -  2) =    -19.76925  eV     1   --> A'             
     e(  3 -  3) =     -7.93088  eV     1   --> A'             
     e(  4 -  4) =     -6.84565  eV     1   --> A'             
     e(  5 -  5) =     -4.83734  eV     1   --> A'             
     e(  6 -  6) =     -4.80912  eV     1   --> A'             
     e(  7 -  7) =     -4.32144  eV     1   --> A''            
     e(  8 -  8) =     -4.30362  eV     1   --> A''            
     e(  9 -  9) =      2.42175  eV     1   --> A'             
     e( 10 - 10) =      2.91805  eV     1   --> A'             
     e( 11 - 11) =      3.97419  eV     1   --> A'             
     e( 12 - 12) =      5.03386  eV     1   --> A'             
     e( 13 - 13) =      5.13595  eV     1   --> A'             
     e( 14 - 14) =      6.75513  eV     1   --> A'             
     e( 15 - 15) =      7.58383  eV     1   --> A'             
     e( 16 - 16) =      8.89080  eV     1   --> A'             
     e( 17 - 17) =      8.91856  eV     1   --> A'             
     e( 18 - 18) =      9.21634  eV     1   --> A'             
     e( 19 - 19) =     10.04089  eV     1   --> A'             
     e( 20 - 20) =     10.14730  eV     1   --> A''            

 **************************************************************************

 **************************************************************************

                    xk=(   0.00000,   0.09623,   0.00000  )

     Band symmetry, C_s (m)     point group:

     e(  1 -  1) =    -20.02651  eV     1   --> A'             
     e(  2 -  2) =    -19.87023  eV     1   --> A'             
     e(  3 -  3) =     -8.07200  eV     1   --> A'             
     e(  4 -  4) =     -6.97797  eV     1   --> A'             
     e(  5 -  5) =     -4.43948  eV     1   --> A'             
     e(  6 -  6) =     -4.41903  eV     1   --> A'             
     e(  7 -  7) =     -4.13999  eV     1   --> A''            
     e(  8 -  8) =     -4.12633  eV     1   --> A''            
     e(  9 -  9) =      2.24699  eV     1   --> A'             
     e( 10 - 10) =      2.75533  eV     1   --> A'             
     e( 11 - 11) =      3.80266  eV     1   --> A'             
     e( 12 - 12) =      4.86828  eV     1   --> A'             
     e( 13 - 13) =      4.98913  eV     1   --> A'             
     e( 14 - 14) =      6.66123  eV     1   --> A'             
     e( 15 - 15) =      7.44393  eV     1   --> A'             
     e( 16 - 16) =      8.96698  eV     1   --> A'             
     e( 17 - 17) =      9.00349  eV     1   --> A'             
     e( 18 - 18) =      9.18988  eV     1   --> A'             
     e( 19 - 19) =      9.71529  eV     1   --> A''            
     e( 20 - 20) =      9.73429  eV     1   --> A''            

 **************************************************************************

 **************************************************************************

                    xk=(   0.00000,   0.06415,   0.00000  )

     Band symmetry, C_s (m)     point group:

     e(  1 -  1) =    -20.10066  eV     1   --> A'             
     e(  2 -  2) =    -19.94288  eV     1   --> A'             
     e(  3 -  3) =     -8.17327  eV     1   --> A'             
     e(  4 -  4) =     -7.07321  eV     1   --> A'             
     e(  5 -  5) =     -4.13722  eV     1   --> A'             
     e(  6 -  6) =     -4.12425  eV     1   --> A'             
     e(  7 -  7) =     -4.00087  eV     1   --> A''            
     e(  8 -  8) =     -3.99073  eV     1   --> A''            
     e(  9 -  9) =      2.11943  eV     1   --> A'             
     e( 10 - 10) =      2.63787  eV     1   --> A'             
     e( 11 - 11) =      3.67942  eV     1   --> A'             
     e( 12 - 12) =      4.74893  eV     1   --> A'             
     e( 13 - 13) =      4.87823  eV     1   --> A'             
     e( 14 - 14) =      6.58625  eV     1   --> A'             
     e( 15 - 15) =      7.33517  eV     1   --> A'             
     e( 16 - 16) =      9.02265  eV     1   --> A'             
     e( 17 - 17) =      9.07645  eV     1   --> A'             
     e( 18 - 18) =      9.16379  eV     1   --> A'             
     e( 19 - 19) =      9.39534  eV     1   --> A''            
     e( 20 - 20) =      9.41416  eV     1   --> A''            

 **************************************************************************

 **************************************************************************

                    xk=(   0.00000,   0.03208,   0.00000  )

     Band symmetry, C_s (m)     point group:

     e(  1 -  1) =    -20.14519  eV     1   --> A'             
     e(  2 -  2) =    -19.98657  eV     1   --> A'             
     e(  3 -  3) =     -8.23413  eV     1   --> A'             
     e(  4 -  4) =     -7.13032  eV     1   --> A'             
     e(  5 -  5) =     -3.94700  eV     1   --> A'             
     e(  6 -  6) =     -3.93966  eV     1   --> A'             
     e(  7 -  7) =     -3.91139  eV     1   --> A''            
     e(  8 -  8) =     -3.90521  eV     1   --> A''            
     e(  9 -  9) =      2.04152  eV     1   --> A'             
     e( 10 - 10) =      2.56693  eV     1   --> A'             
     e( 11 - 11) =      3.60516  eV     1   --> A'             
     e( 12 - 12) =      4.67692  eV     1   --> A'             
     e( 13 - 13) =      4.80939  eV     1   --> A'             
     e( 14 - 14) =      6.53854  eV     1   --> A'             
     e( 15 - 15) =      7.26667  eV     1   --> A'             
     e( 16 - 16) =      9.05887  eV     1   --> A'             
     e( 17 - 17) =      9.12905  eV     1   --> A'             
     e( 18 - 18) =      9.14336  eV     1   --> A'             
     e( 19 - 19) =      9.19894  eV     1   --> A''            
     e( 20 - 20) =      9.21732  eV     1   --> A''            

 **************************************************************************

 **************************************************************************

                    xk=(   0.00000,   0.00000,   0.00000  )

     point group C_3v (3m)  
     there are  3 classes
     the character table:

       E     2C3   3s_v 
A_1    1.00  1.00  1.00
A_2    1.00  1.00 -1.00
E      2.00 -1.00  0.00

     the symmetry operations in each class and the name of the first element:

     E        1
                                                                 
     2C3      2    3
                                                                 
     3s_v     4    5    6
                                                                 

     Band symmetry, C_3v (3m)   point group:

     e(  1 -  1) =    -20.16001  eV     1   --> A_1  L_1       
     e(  2 -  2) =    -20.00121  eV     1   --> A_1  L_1       
     e(  3 -  3) =     -8.25492  eV     1   --> A_1  L_1       
     e(  4 -  4) =     -7.14944  eV     1   --> A_1  L_1       
     e(  5 -  6) =     -3.88067  eV     2   --> E    L_3       
     e(  7 -  8) =     -3.87637  eV     2   --> E    L_3       
     e(  9 -  9) =      2.01528  eV     1   --> A_1  L_1       
     e( 10 - 10) =      2.54320  eV     1   --> A_1  L_1       
     e( 11 - 11) =      3.58035  eV     1   --> A_1  L_1       
     e( 12 - 12) =      4.65285  eV     1   --> A_1  L_1       
     e( 13 - 13) =      4.78598  eV     1   --> A_1  L_1       
     e( 14 - 14) =      6.52198  eV     1   --> A_1  L_1       
     e( 15 - 15) =      7.24333  eV     1   --> A_1  L_1       
     e( 16 - 16) =      9.07265  eV     1   --> A_1  L_1       
     e( 17 - 18) =      9.13228  eV     2   --> E    L_3       
     e( 19 - 20) =      9.15027  eV     2   --> E    L_3       

 **************************************************************************

     BANDS        :     11.68s CPU     11.92s WALL


   This run was terminated on:  16: 3:42  17Apr2024            

=------------------------------------------------------------------------------=
   JOB DONE.
=------------------------------------------------------------------------------=
