
     Program PWSCF v.7.2 starts on 12Apr2024 at 16:30: 5 

     This program is part of the open-source Quantum ESPRESSO suite
     for quantum simulation of materials; please cite
         "P. Giannozzi et al., J. Phys.:Condens. Matter 21 395502 (2009);
         "P. Giannozzi et al., J. Phys.:Condens. Matter 29 465901 (2017);
         "P. Giannozzi et al., J. Chem. Phys. 152 154105 (2020);
          URL http://www.quantum-espresso.org", 
     in publications or presentations arising from this work. More details at
     http://www.quantum-espresso.org/quote

     Parallel version (MPI & OpenMP), running on       8 processor cores
     Number of MPI processes:                 8
     Threads/MPI process:                     1

     MPI processes distributed on     1 nodes
     0 MiB available memory on the printing compute node when the environment starts

     Waiting for input...
     Reading input from standard input
Warning: card &IONS ignored
Warning: card / ignored
Warning: card &CELL ignored
Warning: card CELL_DOFREE = 'Z' ignored
Warning: card / ignored

     Current dimensions of program PWSCF are:
     Max number of different atomic species (ntypx) = 10
     Max number of k-points (npk) =  40000
     Max angular momentum in pseudopotentials (lmaxx) =  4

     Atomic positions and unit cell read from directory:
     ./tmp/BN2L_AB_PBE_vdW.save/
     Atomic positions from file used, from input discarded


     IMPORTANT: XC functional enforced from input :
     Exchange-correlation= VDW-DF2-B86R
                           (   1   4  26   0   2   0   0)
     Any further DFT definition will be discarded
     Please, verify this is what you really want


     R & G space division:  proc/nbgrp/npool/nimage =       8
     Subspace diagonalization in iterative solution of the eigenvalue problem:
     a serial algorithm will be used


     Parallelization info
     --------------------
     sticks:   dense  smooth     PW     G-vecs:    dense   smooth      PW
     Min          45      45     15                 5775     5775    1005
     Max          46      46     16                 5804     5804    1022
     Sum         367     367    121                46381    46381    8133

     Using Slab Decomposition



     bravais-lattice index     =            4
     lattice parameter (alat)  =       4.7400  a.u.
     unit-cell volume          =     737.8289 (a.u.)^3
     number of atoms/cell      =            4
     number of atomic types    =            2
     number of electrons       =        16.00
     number of Kohn-Sham states=           20
     kinetic-energy cutoff     =      60.0000  Ry
     charge density cutoff     =     240.0000  Ry
     Exchange-correlation= VDW-DF2-B86R
                           (   1   4  26   0   2   0   0)

     celldm(1)=   4.740000  celldm(2)=   0.000000  celldm(3)=   8.000000
     celldm(4)=   0.000000  celldm(5)=   0.000000  celldm(6)=   0.000000

     crystal axes: (cart. coord. in units of alat)
               a(1) = (   1.000000   0.000000   0.000000 )  
               a(2) = (  -0.500000   0.866025   0.000000 )  
               a(3) = (   0.000000   0.000000   8.000000 )  

     reciprocal axes: (cart. coord. in units 2 pi/alat)
               b(1) = (  1.000000  0.577350 -0.000000 )  
               b(2) = (  0.000000  1.154701  0.000000 )  
               b(3) = (  0.000000 -0.000000  0.125000 )  


     PseudoPot. # 1 for B  read from file:
     ../../../../Pseudo/PBE/B.upf
     MD5 check sum: 72f82fc31bc892420d0cab7e25c88ab8
     Pseudo is Norm-conserving + core correction, Zval =  3.0
     Generated using ONCVPSP code by D. R. Hamann
     Using radial grid of 1534 points,  4 beta functions with: 
                l(1) =   0
                l(2) =   0
                l(3) =   1
                l(4) =   1

     PseudoPot. # 2 for N  read from file:
     ../../../../Pseudo/PBE/N.upf
     MD5 check sum: d34365f73bb0e2ee98afc20ec3e87676
     Pseudo is Norm-conserving + core correction, Zval =  5.0
     Generated using ONCVPSP code by D. R. Hamann
     Using radial grid of 1058 points,  4 beta functions with: 
                l(1) =   0
                l(2) =   0
                l(3) =   1
                l(4) =   1

     atomic species   valence    mass     pseudopotential
        B              3.00    10.00000     B ( 1.00)
        N              5.00    14.01100     N ( 1.00)

      6 Sym. Ops. (no inversion) found


                                    s                        frac. trans.

      isym =  1     identity                                     

 cryst.   s( 1) = (     1          0          0      )
                  (     0          1          0      )
                  (     0          0          1      )

 cart.    s( 1) = (  1.0000000  0.0000000  0.0000000 )
                  (  0.0000000  1.0000000  0.0000000 )
                  (  0.0000000  0.0000000  1.0000000 )


      isym =  2     120 deg rotation - cryst. axis [0,0,1]       

 cryst.   s( 2) = (     0          1          0      )
                  (    -1         -1          0      )
                  (     0          0          1      )

 cart.    s( 2) = ( -0.5000000 -0.8660254  0.0000000 )
                  (  0.8660254 -0.5000000  0.0000000 )
                  (  0.0000000  0.0000000  1.0000000 )


      isym =  3     120 deg rotation - cryst. axis [0,0,-1]      

 cryst.   s( 3) = (    -1         -1          0      )
                  (     1          0          0      )
                  (     0          0          1      )

 cart.    s( 3) = ( -0.5000000  0.8660254  0.0000000 )
                  ( -0.8660254 -0.5000000  0.0000000 )
                  (  0.0000000  0.0000000  1.0000000 )


      isym =  4     inv. 180 deg rotation - cart. axis [1,0,0]   

 cryst.   s( 4) = (    -1          0          0      )
                  (     1          1          0      )
                  (     0          0          1      )

 cart.    s( 4) = ( -1.0000000  0.0000000  0.0000000 )
                  (  0.0000000  1.0000000  0.0000000 )
                  (  0.0000000  0.0000000  1.0000000 )


      isym =  5     inv. 180 deg rotation - cryst. axis [0,1,0]  

 cryst.   s( 5) = (     1          1          0      )
                  (     0         -1          0      )
                  (     0          0          1      )

 cart.    s( 5) = (  0.5000000  0.8660254  0.0000000 )
                  (  0.8660254 -0.5000000  0.0000000 )
                  (  0.0000000  0.0000000  1.0000000 )


      isym =  6     inv. 180 deg rotation - cryst. axis [1,1,0]  

 cryst.   s( 6) = (     0         -1          0      )
                  (    -1          0          0      )
                  (     0          0          1      )

 cart.    s( 6) = (  0.5000000 -0.8660254  0.0000000 )
                  ( -0.8660254 -0.5000000  0.0000000 )
                  (  0.0000000  0.0000000  1.0000000 )


     point group C_3v (3m)  
     there are  3 classes
     the character table:

       E     2C3   3s_v 
A_1    1.00  1.00  1.00
A_2    1.00  1.00 -1.00
E      2.00 -1.00  0.00

     the symmetry operations in each class and the name of the first element:

     E        1
          identity                                               
     2C3      2    3
          120 deg rotation - cryst. axis [0,0,1]                 
     3s_v     4    5    6
          inv. 180 deg rotation - cart. axis [1,0,0]             

   Cartesian axes

     site n.     atom                  positions (alat units)
         1           B   tau(   1) = (   0.0000000   0.0000000   0.0000000  )
         2           N   tau(   2) = (   0.0000000   0.5773497   0.0000000  )
         3           B   tau(   3) = (   0.0000000   0.0000000   1.3118221  )
         4           N   tau(   4) = (   0.5000005   0.2886748   1.3118221  )

   Crystallographic axes

     site n.     atom                  positions (cryst. coord.)
         1           B   tau(   1) = (  0.0000000  0.0000000  0.0000000  )
         2           N   tau(   2) = (  0.3333330  0.6666660  0.0000000  )
         3           B   tau(   3) = (  0.0000000  0.0000000  0.1639778  )
         4           N   tau(   4) = (  0.6666670  0.3333330  0.1639778  )

     number of k points=    51  Marzari-Vanderbilt smearing, width (Ry)=  0.0050
                       cart. coord. in units 2pi/alat
        k(    1) = (   0.0000000   0.0000000   0.0000000), wk =   0.0392157
        k(    2) = (  -0.0158729   0.0274930   0.0000000), wk =   0.0392157
        k(    3) = (  -0.0317457   0.0549860   0.0000000), wk =   0.0392157
        k(    4) = (  -0.0476186   0.0824789   0.0000000), wk =   0.0392157
        k(    5) = (  -0.0634914   0.1099719   0.0000000), wk =   0.0392157
        k(    6) = (  -0.0793643   0.1374649   0.0000000), wk =   0.0392157
        k(    7) = (  -0.0952371   0.1649579   0.0000000), wk =   0.0392157
        k(    8) = (  -0.1111100   0.1924509   0.0000000), wk =   0.0392157
        k(    9) = (  -0.1269829   0.2199438   0.0000000), wk =   0.0392157
        k(   10) = (  -0.1428557   0.2474368   0.0000000), wk =   0.0392157
        k(   11) = (  -0.1587286   0.2749298   0.0000000), wk =   0.0392157
        k(   12) = (  -0.1746014   0.3024228   0.0000000), wk =   0.0392157
        k(   13) = (  -0.1904743   0.3299158   0.0000000), wk =   0.0392157
        k(   14) = (  -0.2063471   0.3574087   0.0000000), wk =   0.0392157
        k(   15) = (  -0.2222200   0.3849017   0.0000000), wk =   0.0392157
        k(   16) = (  -0.2380929   0.4123947   0.0000000), wk =   0.0392157
        k(   17) = (  -0.2539657   0.4398877   0.0000000), wk =   0.0392157
        k(   18) = (  -0.2698386   0.4673807   0.0000000), wk =   0.0392157
        k(   19) = (  -0.2857114   0.4948736   0.0000000), wk =   0.0392157
        k(   20) = (  -0.3015843   0.5223666   0.0000000), wk =   0.0392157
        k(   21) = (  -0.3174571   0.5498596   0.0000000), wk =   0.0392157
        k(   22) = (  -0.3333300   0.5773526   0.0000000), wk =   0.0392157
        k(   23) = (  -0.3030273   0.5773524   0.0000000), wk =   0.0392157
        k(   24) = (  -0.2727245   0.5773522   0.0000000), wk =   0.0392157
        k(   25) = (  -0.2424218   0.5773519   0.0000000), wk =   0.0392157
        k(   26) = (  -0.2121191   0.5773517   0.0000000), wk =   0.0392157
        k(   27) = (  -0.1818164   0.5773515   0.0000000), wk =   0.0392157
        k(   28) = (  -0.1515136   0.5773513   0.0000000), wk =   0.0392157
        k(   29) = (  -0.1212109   0.5773511   0.0000000), wk =   0.0392157
        k(   30) = (  -0.0909082   0.5773509   0.0000000), wk =   0.0392157
        k(   31) = (  -0.0606055   0.5773507   0.0000000), wk =   0.0392157
        k(   32) = (  -0.0303027   0.5773505   0.0000000), wk =   0.0392157
        k(   33) = (   0.0000000   0.5773503   0.0000000), wk =   0.0392157
        k(   34) = (   0.0000000   0.5452753   0.0000000), wk =   0.0392157
        k(   35) = (   0.0000000   0.5132002   0.0000000), wk =   0.0392157
        k(   36) = (   0.0000000   0.4811252   0.0000000), wk =   0.0392157
        k(   37) = (   0.0000000   0.4490502   0.0000000), wk =   0.0392157
        k(   38) = (   0.0000000   0.4169752   0.0000000), wk =   0.0392157
        k(   39) = (   0.0000000   0.3849002   0.0000000), wk =   0.0392157
        k(   40) = (   0.0000000   0.3528252   0.0000000), wk =   0.0392157
        k(   41) = (   0.0000000   0.3207501   0.0000000), wk =   0.0392157
        k(   42) = (   0.0000000   0.2886751   0.0000000), wk =   0.0392157
        k(   43) = (   0.0000000   0.2566001   0.0000000), wk =   0.0392157
        k(   44) = (   0.0000000   0.2245251   0.0000000), wk =   0.0392157
        k(   45) = (   0.0000000   0.1924501   0.0000000), wk =   0.0392157
        k(   46) = (   0.0000000   0.1603751   0.0000000), wk =   0.0392157
        k(   47) = (   0.0000000   0.1283001   0.0000000), wk =   0.0392157
        k(   48) = (   0.0000000   0.0962250   0.0000000), wk =   0.0392157
        k(   49) = (   0.0000000   0.0641500   0.0000000), wk =   0.0392157
        k(   50) = (   0.0000000   0.0320750   0.0000000), wk =   0.0392157
        k(   51) = (   0.0000000   0.0000000   0.0000000), wk =   0.0392157

                       cryst. coord.
        k(    1) = (   0.0000000   0.0000000   0.0000000), wk =   0.0392157
        k(    2) = (  -0.0158729   0.0317460   0.0000000), wk =   0.0392157
        k(    3) = (  -0.0317457   0.0634921   0.0000000), wk =   0.0392157
        k(    4) = (  -0.0476186   0.0952381   0.0000000), wk =   0.0392157
        k(    5) = (  -0.0634914   0.1269842   0.0000000), wk =   0.0392157
        k(    6) = (  -0.0793643   0.1587302   0.0000000), wk =   0.0392157
        k(    7) = (  -0.0952371   0.1904763   0.0000000), wk =   0.0392157
        k(    8) = (  -0.1111100   0.2222223   0.0000000), wk =   0.0392157
        k(    9) = (  -0.1269829   0.2539684   0.0000000), wk =   0.0392157
        k(   10) = (  -0.1428557   0.2857144   0.0000000), wk =   0.0392157
        k(   11) = (  -0.1587286   0.3174605   0.0000000), wk =   0.0392157
        k(   12) = (  -0.1746014   0.3492065   0.0000000), wk =   0.0392157
        k(   13) = (  -0.1904743   0.3809526   0.0000000), wk =   0.0392157
        k(   14) = (  -0.2063471   0.4126986   0.0000000), wk =   0.0392157
        k(   15) = (  -0.2222200   0.4444447   0.0000000), wk =   0.0392157
        k(   16) = (  -0.2380929   0.4761907   0.0000000), wk =   0.0392157
        k(   17) = (  -0.2539657   0.5079368   0.0000000), wk =   0.0392157
        k(   18) = (  -0.2698386   0.5396828   0.0000000), wk =   0.0392157
        k(   19) = (  -0.2857114   0.5714289   0.0000000), wk =   0.0392157
        k(   20) = (  -0.3015843   0.6031749   0.0000000), wk =   0.0392157
        k(   21) = (  -0.3174571   0.6349210   0.0000000), wk =   0.0392157
        k(   22) = (  -0.3333300   0.6666670   0.0000000), wk =   0.0392157
        k(   23) = (  -0.3030273   0.6515155   0.0000000), wk =   0.0392157
        k(   24) = (  -0.2727245   0.6363639   0.0000000), wk =   0.0392157
        k(   25) = (  -0.2424218   0.6212124   0.0000000), wk =   0.0392157
        k(   26) = (  -0.2121191   0.6060608   0.0000000), wk =   0.0392157
        k(   27) = (  -0.1818164   0.5909093   0.0000000), wk =   0.0392157
        k(   28) = (  -0.1515136   0.5757577   0.0000000), wk =   0.0392157
        k(   29) = (  -0.1212109   0.5606062   0.0000000), wk =   0.0392157
        k(   30) = (  -0.0909082   0.5454546   0.0000000), wk =   0.0392157
        k(   31) = (  -0.0606055   0.5303031   0.0000000), wk =   0.0392157
        k(   32) = (  -0.0303027   0.5151515   0.0000000), wk =   0.0392157
        k(   33) = (   0.0000000   0.5000000   0.0000000), wk =   0.0392157
        k(   34) = (   0.0000000   0.4722222   0.0000000), wk =   0.0392157
        k(   35) = (   0.0000000   0.4444444   0.0000000), wk =   0.0392157
        k(   36) = (   0.0000000   0.4166667   0.0000000), wk =   0.0392157
        k(   37) = (   0.0000000   0.3888889   0.0000000), wk =   0.0392157
        k(   38) = (   0.0000000   0.3611111   0.0000000), wk =   0.0392157
        k(   39) = (   0.0000000   0.3333333   0.0000000), wk =   0.0392157
        k(   40) = (   0.0000000   0.3055556   0.0000000), wk =   0.0392157
        k(   41) = (   0.0000000   0.2777778   0.0000000), wk =   0.0392157
        k(   42) = (   0.0000000   0.2500000   0.0000000), wk =   0.0392157
        k(   43) = (   0.0000000   0.2222222   0.0000000), wk =   0.0392157
        k(   44) = (   0.0000000   0.1944444   0.0000000), wk =   0.0392157
        k(   45) = (   0.0000000   0.1666667   0.0000000), wk =   0.0392157
        k(   46) = (   0.0000000   0.1388889   0.0000000), wk =   0.0392157
        k(   47) = (   0.0000000   0.1111111   0.0000000), wk =   0.0392157
        k(   48) = (   0.0000000   0.0833333   0.0000000), wk =   0.0392157
        k(   49) = (   0.0000000   0.0555556   0.0000000), wk =   0.0392157
        k(   50) = (   0.0000000   0.0277778   0.0000000), wk =   0.0392157
        k(   51) = (   0.0000000   0.0000000   0.0000000), wk =   0.0392157

     Dense  grid:    46381 G-vectors     FFT dimensions: (  24,  24, 192)

     Dynamical RAM for                 wfc:       0.22 MB

     Dynamical RAM for     wfc (w. buffer):       0.22 MB

     Dynamical RAM for           str. fact:       0.18 MB

     Dynamical RAM for           local pot:       0.00 MB

     Dynamical RAM for          nlocal pot:       0.35 MB

     Dynamical RAM for                qrad:       0.71 MB

     Dynamical RAM for          rho,v,vnew:       0.58 MB

     Dynamical RAM for           G-vectors:       0.38 MB

     Dynamical RAM for          h,s,v(r/c):       0.07 MB

     Dynamical RAM for          <psi|beta>:       0.01 MB

     Dynamical RAM for                 psi:       0.44 MB

     Dynamical RAM for                hpsi:       0.44 MB

     Dynamical RAM for      wfcinit/wfcrot:       0.45 MB

     Estimated static dynamical RAM per process >       3.21 MB

     Estimated max dynamical RAM per process >       4.18 MB

     Estimated total dynamical RAM >      33.43 MB

     The potential is recalculated from file :
     ./tmp/BN2L_AB_PBE_vdW.save/charge-density



     %%%%%%%%%%%%%%%%%%%%%%%%%%%%%%%%%%%%%%%%%%%%%%%%%%%%%%%%%%%%%%%%%%%%%%%%
     %                                                                      %
     % You are using vdW-DF, which was implemented by the Thonhauser group. %
     % Please cite the following two papers that made this development      %
     % possible and the two reviews that describe the various versions:     %
     %                                                                      %
     %   T. Thonhauser et al., PRL 115, 136402 (2015).                      %
     %   T. Thonhauser et al., PRB 76, 125112 (2007).                       %
     %   K. Berland et al., Rep. Prog. Phys. 78, 066501 (2015).             %
     %   D.C. Langreth et al., J. Phys.: Condens. Matter 21, 084203 (2009). %
     %                                                                      %
     % If you are calculating stress with vdW-DF, please also cite:         %
     %                                                                      %
     %   R. Sabatini et al., J. Phys.: Condens. Matter 24, 424209 (2012).   %
     %                                                                      %
     %%%%%%%%%%%%%%%%%%%%%%%%%%%%%%%%%%%%%%%%%%%%%%%%%%%%%%%%%%%%%%%%%%%%%%%%

     %%%%%%%%%%%%%%%%%%%%%%%%%%%%%%%%%%%%%%%%%%%%%%%%%%%%%%%%%%%%%%%%%%%%%%%%
     %                                                                      %
     %  vdW-DF NEWS:                                                        %
     %                                                                      %
     %  * vdW-DF3 is now available. DOI: 10.1021/acs.jctc.0c00471           %
     %    use with input_dft = 'vdW-DF3-opt1' or 'vdW-DF3-opt2'             %
     %                                                                      %
     %  * Unscreened and range-separated hybrid vdW-DF-cx functionals       %
     %    DOI: 10.1063/1.4986522 and 10.1088/1361-648X/ac2ad2               %
     %    use with input_dft = 'vdW-DF-cx0'    and 'vdW-DF-ahcx'            %
     %  * Unscreened and range-separated hybrid vdW-DF2-b86r functionals    %
     %    DOI: 10.1063/1.4986522 and DOI: 10.1103/PhysRevX.12.041003        %
     %    use with input_dft = 'vdW-DF2-br0' and 'vdW-DF2-ahbr'             %
     %                                                                      %
     %%%%%%%%%%%%%%%%%%%%%%%%%%%%%%%%%%%%%%%%%%%%%%%%%%%%%%%%%%%%%%%%%%%%%%%%


     Carrying out vdW-DF run using the following parameters:
     Nqs    =  20  Npoints =  1024  r_max =  100.000
     q_mesh =  0.00001000  0.04494208  0.09755937  0.15916263
               0.23128650  0.31572767  0.41458969  0.53033537
               0.66584808  0.82450364  1.01025438  1.22772762
               1.48234092  1.78043706  2.12944203  2.53805004
               3.01644009  3.57652955  4.23227104  5.00000000


     -----------------------------------------------
     Non-local corr. energy    =       0.20066346 Ry
     -----------------------------------------------

     Starting wfcs are   16 randomized atomic wfcs +    4 random wfcs

     Band Structure Calculation
     Davidson diagonalization with overlap

     Computing kpt #:     1  of    51
     total cpu time spent up to now is        9.7 secs

     Computing kpt #:     2  of    51
     total cpu time spent up to now is       10.1 secs

     Computing kpt #:     3  of    51
     total cpu time spent up to now is       10.5 secs

     Computing kpt #:     4  of    51
     total cpu time spent up to now is       10.8 secs

     Computing kpt #:     5  of    51
     total cpu time spent up to now is       11.3 secs

     Computing kpt #:     6  of    51
     total cpu time spent up to now is       11.7 secs

     Computing kpt #:     7  of    51
     total cpu time spent up to now is       12.1 secs

     Computing kpt #:     8  of    51
     total cpu time spent up to now is       12.5 secs

     Computing kpt #:     9  of    51
     total cpu time spent up to now is       12.8 secs

     Computing kpt #:    10  of    51
     total cpu time spent up to now is       13.2 secs

     Computing kpt #:    11  of    51
     total cpu time spent up to now is       13.5 secs

     Computing kpt #:    12  of    51
     total cpu time spent up to now is       13.9 secs

     Computing kpt #:    13  of    51
     total cpu time spent up to now is       14.1 secs

     Computing kpt #:    14  of    51
     total cpu time spent up to now is       14.5 secs

     Computing kpt #:    15  of    51
     total cpu time spent up to now is       14.8 secs

     Computing kpt #:    16  of    51
     total cpu time spent up to now is       15.1 secs

     Computing kpt #:    17  of    51
     total cpu time spent up to now is       15.4 secs

     Computing kpt #:    18  of    51
     total cpu time spent up to now is       15.7 secs

     Computing kpt #:    19  of    51
     total cpu time spent up to now is       15.9 secs

     Computing kpt #:    20  of    51
     total cpu time spent up to now is       16.2 secs

     Computing kpt #:    21  of    51
     total cpu time spent up to now is       16.5 secs

     Computing kpt #:    22  of    51
     c_bands:  1 eigenvalues not converged
     total cpu time spent up to now is       17.0 secs

     Computing kpt #:    23  of    51
     total cpu time spent up to now is       17.3 secs

     Computing kpt #:    24  of    51
     total cpu time spent up to now is       17.6 secs

     Computing kpt #:    25  of    51
     total cpu time spent up to now is       17.9 secs

     Computing kpt #:    26  of    51
     total cpu time spent up to now is       18.1 secs

     Computing kpt #:    27  of    51
     total cpu time spent up to now is       18.4 secs

     Computing kpt #:    28  of    51
     total cpu time spent up to now is       18.6 secs

     Computing kpt #:    29  of    51
     total cpu time spent up to now is       19.0 secs

     Computing kpt #:    30  of    51
     total cpu time spent up to now is       19.3 secs

     Computing kpt #:    31  of    51
     total cpu time spent up to now is       19.6 secs

     Computing kpt #:    32  of    51
     total cpu time spent up to now is       19.9 secs

     Computing kpt #:    33  of    51
     total cpu time spent up to now is       20.3 secs

     Computing kpt #:    34  of    51
     total cpu time spent up to now is       20.5 secs

     Computing kpt #:    35  of    51
     total cpu time spent up to now is       20.8 secs

     Computing kpt #:    36  of    51
     total cpu time spent up to now is       21.1 secs

     Computing kpt #:    37  of    51
     total cpu time spent up to now is       21.3 secs

     Computing kpt #:    38  of    51
     total cpu time spent up to now is       21.6 secs

     Computing kpt #:    39  of    51
     total cpu time spent up to now is       21.9 secs

     Computing kpt #:    40  of    51
     total cpu time spent up to now is       22.2 secs

     Computing kpt #:    41  of    51
     total cpu time spent up to now is       22.6 secs

     Computing kpt #:    42  of    51
     total cpu time spent up to now is       22.9 secs

     Computing kpt #:    43  of    51
     total cpu time spent up to now is       23.3 secs

     Computing kpt #:    44  of    51
     total cpu time spent up to now is       23.6 secs

     Computing kpt #:    45  of    51
     total cpu time spent up to now is       24.1 secs

     Computing kpt #:    46  of    51
     total cpu time spent up to now is       24.5 secs

     Computing kpt #:    47  of    51
     total cpu time spent up to now is       24.9 secs

     Computing kpt #:    48  of    51
     total cpu time spent up to now is       25.3 secs

     Computing kpt #:    49  of    51
     total cpu time spent up to now is       25.6 secs

     Computing kpt #:    50  of    51
     total cpu time spent up to now is       26.0 secs

     Computing kpt #:    51  of    51
     total cpu time spent up to now is       26.4 secs

     ethr =  6.25E-09,  avg # of iterations = 49.9

     total cpu time spent up to now is       26.4 secs

     End of band structure calculation

          k = 0.0000 0.0000 0.0000 (  5727 PWs)   bands (ev):

   -20.1708 -20.0102  -8.2634  -7.1509  -3.8528  -3.8527  -3.8497  -3.8496
     2.0342   2.5598   3.6003   4.6767   4.8209   6.5605   7.2847   9.1289
     9.2003   9.2004   9.2183   9.2184

          k =-0.0159 0.0275 0.0000 (  5747 PWs)   bands (ev):

   -20.1563 -19.9959  -8.2434  -7.1323  -3.9167  -3.9124  -3.8820  -3.8791
     2.0600   2.5832   3.6247   4.7003   4.8438   6.5766   7.3076   9.1179
     9.2002   9.2055   9.2649   9.2838

          k =-0.0317 0.0550 0.0000 (  5755 PWs)   bands (ev):

   -20.1125 -19.9529  -8.1835  -7.0761  -4.1005  -4.0934  -3.9693  -3.9671
     2.1364   2.6529   3.6977   4.7711   4.9116   6.6238   7.3750   9.0908
     9.1597   9.2199   9.4464   9.4740

          k =-0.0476 0.0825 0.0000 (  5749 PWs)   bands (ev):

   -20.0395 -19.8814  -8.0839  -6.9824  -4.3894  -4.3786  -4.1113  -4.1101
     2.2618   2.7684   3.8188   4.8885   5.0213   6.6981   7.4833   9.0565
     9.1189   9.2382   9.7041   9.7707

          k =-0.0635 0.1100 0.0000 (  5751 PWs)   bands (ev):

   -19.9381 -19.7820  -7.9449  -6.8520  -4.7641  -4.7493  -4.3061  -4.3048
     2.4341   2.9287   3.9877   5.0516   5.1677   6.7920   7.6269   9.0224
     9.0949   9.2593   9.9695  10.1384

          k =-0.0794 0.1375 0.0000 (  5752 PWs)   bands (ev):

   -19.8087 -19.6552  -7.7672  -6.6863  -5.2021  -5.1836  -4.5477  -4.5443
     2.6517   3.1325   4.2038   5.2593   5.3438   6.8933   7.7958   8.9915
     9.0911   9.2867   9.8384  10.2424

          k =-0.0952 0.1650 0.0000 (  5768 PWs)   bands (ev):

   -19.6522 -19.5021  -7.5523  -6.4883  -5.6832  -5.6599  -4.8306  -4.8242
     2.9137   3.3783   4.4664   5.5097   5.5358   6.9848   7.9646   8.9697
     9.0850   9.3348   9.5781  10.4810

          k =-0.1111 0.1925 0.0000 (  5758 PWs)   bands (ev):

   -19.4697 -19.3234  -7.3025  -6.3039  -6.1886  -6.1164  -5.1466  -5.1365
     3.2197   3.6634   4.7748   5.7158   5.7990   7.0537   8.0553   8.9802
     9.0324   9.4189   9.4832  10.7216

          k =-0.1270 0.2199 0.0000 (  5758 PWs)   bands (ev):

   -19.2627 -19.1209  -7.0355  -6.7085  -6.6883  -5.9660  -5.4897  -5.4748
     3.5692   3.9831   5.1254   5.8238   6.1171   7.1228   7.9311   9.0618
     9.0806   9.5464   9.5723  10.9695

          k =-0.1429 0.2474 0.0000 (  5786 PWs)   bands (ev):

   -19.0333 -18.8967  -7.2585  -7.2255  -6.6657  -5.8528  -5.8361  -5.6723
     3.9616   4.3269   5.4864   5.8034   6.4289   7.2692   7.6569   9.2380
     9.3116   9.7173   9.7559  11.2269

          k =-0.1587 0.2749 0.0000 (  5774 PWs)   bands (ev):

   -18.7836 -18.6530  -7.7607  -7.7364  -6.3259  -6.2244  -6.2046  -5.3534
     4.3957   4.6686   5.4539   6.0370   6.5995   7.5221   7.5380   9.5036
     9.6357   9.9278  10.0045  11.4953

          k =-0.1746 0.3024 0.0000 (  5786 PWs)   bands (ev):

   -18.5170 -18.3934  -8.2522  -8.2304  -6.6137  -6.5815  -5.9403  -5.0105
     4.8546   4.9330   5.1086   6.5164   6.5256   7.7659   7.9042   9.8381
     9.9991  10.1705  10.3117  11.7732

          k =-0.1905 0.3299 0.0000 (  5790 PWs)   bands (ev):

   -18.2378 -18.1219  -8.7176  -8.6971  -6.9987  -6.9596  -5.5350  -4.6512
     4.6256   4.9632   5.4077   6.5578   7.0556   8.2216   8.3338  10.2174
    10.3740  10.4365  10.6755  12.0548

          k =-0.2063 0.3574 0.0000 (  5808 PWs)   bands (ev):

   -17.9512 -17.8441  -9.1483  -9.1285  -7.3806  -7.3338  -5.1102  -4.2828
     4.1454   4.7184   5.9638   6.8743   7.6424   8.7655   8.8019  10.6073
    10.7153  10.7459  11.0834  12.2777

          k =-0.2222 0.3849 0.0000 (  5812 PWs)   bands (ev):

   -17.6640 -17.5670  -9.5340  -9.5144  -7.7552  -7.6998  -4.6732  -3.9144
     3.6581   4.3526   6.5605   7.3632   8.2724   9.2833   9.3646  10.9202
    11.0237  11.1068  11.5136  12.3392

          k =-0.2381 0.4124 0.0000 (  5826 PWs)   bands (ev):

   -17.3849 -17.2996  -9.8656  -9.8455  -8.1186  -8.0542  -4.2335  -3.5579
     3.1859   3.9698   7.1916   7.9345   8.9372   9.7388  10.0029  11.0897
    11.3471  11.4440  11.9160  12.2634

          k =-0.2540 0.4399 0.0000 (  5816 PWs)   bands (ev):

   -17.1242 -17.0520 -10.1317 -10.1111  -8.4670  -8.3923  -3.8041  -3.2278
     2.7472   3.6175   7.8500   8.5429   9.5974  10.1180  10.6542  11.1654
    11.6811  11.7199  11.8431  12.4627

          k =-0.2698 0.4674 0.0000 (  5810 PWs)   bands (ev):

   -16.8937 -16.8360 -10.3217 -10.3010  -8.7969  -8.7108  -3.4022  -2.9418
     2.3595   3.3215   8.5223   9.1390   9.9932  10.5767  11.1489  11.2657
    11.6735  12.0202  12.0816  12.8784

          k =-0.2857 0.4949 0.0000 (  5794 PWs)   bands (ev):

   -16.7051 -16.6626 -10.4274 -10.4073  -9.1036  -9.0039  -3.0487  -2.7166
     2.0404   3.0973   9.1803   9.6167   9.9969  11.1512  11.1912  11.5417
    12.0436  12.3272  12.5547  13.2382

          k =-0.3016 0.5224 0.0000 (  5796 PWs)   bands (ev):

   -16.5677 -16.5404 -10.4475 -10.4319  -9.3793  -9.2624  -2.7684  -2.5662
     1.8071   2.9509   9.7591   9.8182   9.9007  11.4000  11.4077  12.2116
    12.2434  12.7306  13.0151  13.5389

          k =-0.3175 0.5499 0.0000 (  5792 PWs)   bands (ev):

   -16.4851 -16.4722 -10.4005 -10.3951  -9.6015  -9.4630  -2.5816  -2.4951
     1.6713   2.8768   9.8104   9.8126  10.1446  11.6561  11.7838  12.2070
    12.8233  12.9265  13.3672  13.9701

          k =-0.3333 0.5774 0.0000 (  5814 PWs)   bands (ev):

   -16.4558 -16.4548 -10.3593 -10.3584  -9.7025  -9.5493  -2.4983  -2.4974
     1.6297   2.8573   9.7815   9.7821  10.2590  11.9458  11.9918  11.9924
    12.9514  12.9518  13.8372  14.1701

          k =-0.3030 0.5774 0.0000 (  5792 PWs)   bands (ev):

   -16.4788 -16.4683 -10.4232 -10.4012  -9.5959  -9.4579  -2.5552  -2.5033
     1.6590   2.8674   9.8129   9.8197  10.1864  11.6373  11.8638  12.1744
    12.7610  12.9938  13.6023  13.7569

          k =-0.2727 0.5774 0.0000 (  5788 PWs)   bands (ev):

   -16.5315 -16.5123 -10.5637 -10.5147  -9.3313  -9.2164  -2.6512  -2.5729
     1.7268   2.8837   9.9175   9.9213  10.0109  11.2255  11.6801  12.0793
    12.5464  12.7255  13.2840  13.3730

          k =-0.2424 0.5774 0.0000 (  5788 PWs)   bands (ev):

   -16.6031 -16.5769 -10.7203 -10.6522  -8.9851  -8.8870  -2.7696  -2.6824
     1.8064   2.8916   9.7490  10.0642  10.0997  10.7769  11.4602  11.8127
    12.2996  12.3243  12.9584  13.0144

          k =-0.2121 0.5774 0.0000 (  5796 PWs)   bands (ev):

   -16.6843 -16.6528 -10.8698 -10.7888  -8.5975  -8.5121  -2.8975  -2.8114
     1.8787   2.8844   9.4254  10.1927  10.2515  10.3551  11.2421  11.4547
    11.8616  12.1983  12.6708  12.6898

          k =-0.1818 0.5774 0.0000 (  5788 PWs)   bands (ev):

   -16.7675 -16.7315 -11.0045 -10.9139  -8.1936  -8.1192  -3.0237  -2.9437
     1.9341   2.8624   9.0362   9.7445  10.2557  10.5246  11.0788  11.0925
    11.4936  12.1441  12.4074  12.5039

          k =-0.1515 0.5774 0.0000 (  5794 PWs)   bands (ev):

   -16.8467 -16.8073 -11.1207 -11.0228  -7.7964  -7.7325  -3.1408  -3.0686
     1.9708   2.8298   8.6008   9.1976  10.2353  10.5491  10.7930  11.0392
    11.2718  12.0110  12.1704  12.5468

          k =-0.1212 0.5774 0.0000 (  5800 PWs)   bands (ev):

   -16.9170 -16.8750 -11.2169 -11.1135  -7.4275  -7.3725  -3.2430  -3.1785
     1.9914   2.7925   8.1585   8.6776  10.1585  10.4327  10.5750  10.9090
    11.3496  11.8480  11.9816  12.6284

          k =-0.0909 0.5774 0.0000 (  5794 PWs)   bands (ev):

   -16.9748 -16.9308 -11.2920 -11.1847  -7.1083  -7.0611  -3.3263  -3.2685
     2.0007   2.7565   7.7563   8.2262  10.0651  10.3055  10.4268  10.7609
    11.4873  11.7101  11.8481  12.6113

          k =-0.0606 0.5774 0.0000 (  5794 PWs)   bands (ev):

   -17.0178 -16.9725 -11.3461 -11.2360  -6.8605  -6.8195  -3.3877  -3.3346
     2.0033   2.7269   7.4362   7.8770   9.9845  10.2061  10.3303  10.6536
    11.5545  11.6090  11.7881  12.5398

          k =-0.0303 0.5774 0.0000 (  5788 PWs)   bands (ev):

   -17.0441 -16.9981 -11.3787 -11.2669  -6.7027  -6.6658  -3.4250  -3.3750
     2.0030   2.7075   7.2305   7.6563   9.9323  10.1446  10.2751  10.5896
    11.5477  11.5518  11.7909  12.4879

          k = 0.0000 0.5774 0.0000 (  5812 PWs)   bands (ev):

   -17.0532 -17.0070 -11.3896 -11.2773  -6.6494  -6.6133  -3.4381  -3.3890
     2.0023   2.7005   7.1596   7.5808   9.9144  10.1238  10.2570  10.5683
    11.5271  11.5428  11.7983  12.4699

          k = 0.0000 0.5453 0.0000 (  5818 PWs)   bands (ev):

   -17.1003 -17.0485 -11.3203 -11.2089  -6.6333  -6.5974  -3.5981  -3.3653
     2.0894   2.7911   7.1123   7.5818   9.3964   9.5884  10.6532  10.8438
    11.1263  11.5652  11.8401  12.3481

          k = 0.0000 0.5132 0.0000 (  5824 PWs)   bands (ev):

   -17.2330 -17.1682 -11.1189 -11.0099  -6.5854  -6.5502  -3.8884  -3.4592
     2.3398   3.0456   6.9610   7.5736   8.8316   8.9163   9.9458  10.9148
    10.9590  11.6709  12.0997  12.2742

          k = 0.0000 0.4811 0.0000 (  5816 PWs)   bands (ev):

   -17.4313 -17.3522 -10.8030 -10.6979  -6.5066  -6.4720  -4.2527  -3.6658
     2.7244   3.4230   6.6852   7.5057   8.3375   8.3854   9.2382  10.2372
    10.4911  11.8479  12.3152  12.7940

          k = 0.0000 0.4491 0.0000 (  5808 PWs)   bands (ev):

   -17.6736 -17.5812 -10.3949 -10.2947  -6.3976  -6.3635  -4.6579  -3.9511
     3.2038   3.8758   6.2903   7.2466   7.9647   8.0605   8.6265   9.5767
    10.0064  11.3922  12.1921  13.0988

          k = 0.0000 0.4170 0.0000 (  5822 PWs)   bands (ev):

   -17.9409 -17.8369  -9.9161  -9.8216  -6.2604  -6.2266  -5.0789  -4.2816
     3.7352   4.3496   5.8235   6.8251   7.5703   7.9333   8.1967   8.9814
     9.5600  10.9427  11.6367  13.3328

          k = 0.0000 0.3849 0.0000 (  5814 PWs)   bands (ev):

   -18.2181 -18.1043  -9.3836  -9.2956  -6.0960  -6.0629  -5.4984  -4.6318
     4.2725   4.7594   5.3349   6.4639   7.0643   7.8320   7.9444   8.5044
     9.1917  10.5235  11.0943  13.1416

          k = 0.0000 0.3528 0.0000 (  5800 PWs)   bands (ev):

   -18.4941 -18.3719  -8.8135  -8.7318  -5.9072  -5.9045  -5.8751  -4.9842
     4.6977   4.8514   5.0017   6.3565   6.5523   7.6070   7.7111   8.2799
     8.9260  10.1512  10.5955  12.8360

          k = 0.0000 0.3208 0.0000 (  5792 PWs)   bands (ev):

   -18.7611 -18.6314  -8.2192  -8.1440  -6.2885  -5.6972  -5.6661  -5.3267
     4.3927   4.6412   5.3154   6.0679   6.4895   7.3526   7.4937   8.2591
     8.7607   9.8408  10.1531  12.5263

          k = 0.0000 0.2887 0.0000 (  5802 PWs)   bands (ev):

   -19.0130 -18.8770  -7.6145  -7.5451  -6.6427  -5.6499  -5.4709  -5.4408
     3.9686   4.3370   5.4650   5.7626   6.4150   7.1949   7.5559   8.2993
     8.6750   9.6045   9.7851  12.2454

          k = 0.0000 0.2566 0.0000 (  5764 PWs)   bands (ev):

   -19.2455 -19.1042  -7.0801  -6.9593  -6.8808  -5.9462  -5.2313  -5.2030
     3.5811   4.0010   5.1445   5.7823   6.1294   7.0983   7.8423   8.3818
     8.6578   9.4461   9.5259  12.0085

          k = 0.0000 0.2245 0.0000 (  5762 PWs)   bands (ev):

   -19.4559 -19.3100  -7.2848  -6.4104  -6.3655  -6.1821  -4.9861  -4.9599
     3.2330   3.6809   4.7940   5.6992   5.8151   7.0486   7.9827   8.5555
     8.7072   9.3679   9.4234  11.7366

          k = 0.0000 0.1925 0.0000 (  5740 PWs)   bands (ev):

   -19.6417 -19.4917  -7.5380  -6.4762  -5.8172  -5.7702  -4.7416  -4.7181
     2.9262   3.3929   4.4822   5.5233   5.5348   6.9867   7.9246   8.7336
     8.8038   9.3264   9.5526  11.3454

          k = 0.0000 0.1604 0.0000 (  5732 PWs)   bands (ev):

   -19.8012 -19.6479  -7.7571  -6.6768  -5.2863  -5.2494  -4.5081  -4.4875
     2.6620   3.1435   4.2154   5.2702   5.3478   6.8969   7.7835   8.8598
     8.9004   9.2994   9.8294  10.7558

          k = 0.0000 0.1283 0.0000 (  5750 PWs)   bands (ev):

   -19.9333 -19.7773  -7.9384  -6.8458  -4.8119  -4.7839  -4.2956  -4.2779
     2.4415   2.9360   3.9955   5.0590   5.1727   6.7955   7.6267   8.9576
     8.9891   9.2751  10.1186  10.2204

          k = 0.0000 0.0962 0.0000 (  5752 PWs)   bands (ev):

   -20.0368 -19.8787  -8.0801  -6.9789  -4.4131  -4.3931  -4.1136  -4.1001
     2.2663   2.7727   3.8233   4.8928   5.0249   6.7006   7.4858   9.0320
     9.0731   9.2495   9.7859   9.8049

          k = 0.0000 0.0642 0.0000 (  5753 PWs)   bands (ev):

   -20.1112 -19.9517  -8.1819  -7.0746  -4.1099  -4.0970  -3.9730  -3.9641
     2.1385   2.6548   3.6997   4.7731   4.9134   6.6250   7.3767   9.0853
     9.1455   9.2255   9.4643   9.4828

          k = 0.0000 0.0321 0.0000 (  5747 PWs)   bands (ev):

   -20.1560 -19.9956  -8.2431  -7.1320  -3.9189  -3.9126  -3.8837  -3.8784
     2.0605   2.5837   3.6252   4.7008   4.8443   6.5770   7.3081   9.1176
     9.1965   9.2084   9.2668   9.2848

          k = 0.0000 0.0000 0.0000 (  5727 PWs)   bands (ev):

   -20.1708 -20.0102  -8.2634  -7.1509  -3.8528  -3.8527  -3.8497  -3.8496
     2.0342   2.5598   3.6003   4.6767   4.8209   6.5605   7.2847   9.1289
     9.2003   9.2004   9.2183   9.2184

     Writing all to output data dir ./tmp/BN2L_AB_PBE_vdW.save/

     init_run     :      9.36s CPU      9.38s WALL (       1 calls)
     electrons    :     18.04s CPU     16.88s WALL (       1 calls)

     Called by init_run:
     wfcinit      :      0.00s CPU      0.00s WALL (       1 calls)
     wfcinit:atom :      0.01s CPU      0.01s WALL (      51 calls)
     wfcinit:wfcr :      0.45s CPU      0.44s WALL (      51 calls)
     potinit      :      8.98s CPU      9.00s WALL (       1 calls)
     hinit0       :      0.34s CPU      0.34s WALL (       1 calls)

     Called by electrons:
     c_bands      :     18.04s CPU     16.88s WALL (       1 calls)
     v_of_rho     :      8.98s CPU      9.00s WALL (       1 calls)
     v_h          :      0.00s CPU      0.00s WALL (       1 calls)
     v_xc         :      8.98s CPU      9.00s WALL (       1 calls)
     vdW_kernel   :      8.94s CPU      8.95s WALL (       1 calls)

     Called by c_bands:
     init_us_2    :      0.01s CPU      0.01s WALL (      51 calls)
     init_us_2:cp :      0.01s CPU      0.01s WALL (      51 calls)
     cegterg      :     17.54s CPU     16.37s WALL (     150 calls)

     Called by sum_band:

     Called by *egterg:
     cdiaghg      :      1.53s CPU      1.55s WALL (    2597 calls)
     cegterg:over :      1.86s CPU      1.42s WALL (    2546 calls)
     cegterg:upda :      1.26s CPU      0.98s WALL (    2546 calls)
     cegterg:last :      2.07s CPU      1.36s WALL (    1296 calls)
     h_psi        :     10.64s CPU     10.76s WALL (    2747 calls)
     g_psi        :      0.11s CPU      0.15s WALL (    2546 calls)

     Called by h_psi:
     h_psi:calbec :      0.76s CPU      0.78s WALL (    2747 calls)
     vloc_psi     :      8.82s CPU      9.11s WALL (    2747 calls)
     add_vuspsi   :      0.96s CPU      0.76s WALL (    2747 calls)

     General routines
     calbec       :      0.76s CPU      0.77s WALL (    2747 calls)
     fft          :      0.27s CPU      0.27s WALL (      61 calls)
     fftw         :      7.87s CPU      8.09s WALL (   51328 calls)
     davcio       :      0.00s CPU      0.02s WALL (     102 calls)

     Parallel routines

     PWSCF        :     27.62s CPU     26.58s WALL


   This run was terminated on:  16:30:32  12Apr2024            

=------------------------------------------------------------------------------=
   JOB DONE.
=------------------------------------------------------------------------------=
