
     Program PWSCF v.7.2 starts on 17Apr2024 at 16: 3: 1 

     This program is part of the open-source Quantum ESPRESSO suite
     for quantum simulation of materials; please cite
         "P. Giannozzi et al., J. Phys.:Condens. Matter 21 395502 (2009);
         "P. Giannozzi et al., J. Phys.:Condens. Matter 29 465901 (2017);
         "P. Giannozzi et al., J. Chem. Phys. 152 154105 (2020);
          URL http://www.quantum-espresso.org", 
     in publications or presentations arising from this work. More details at
     http://www.quantum-espresso.org/quote

     Parallel version (MPI & OpenMP), running on       8 processor cores
     Number of MPI processes:                 8
     Threads/MPI process:                     1

     MPI processes distributed on     1 nodes
     0 MiB available memory on the printing compute node when the environment starts

     Waiting for input...
     Reading input from standard input
Warning: card &IONS ignored
Warning: card / ignored
Warning: card &CELL ignored
Warning: card CELL_DOFREE = 'Z' ignored
Warning: card / ignored

     Current dimensions of program PWSCF are:
     Max number of different atomic species (ntypx) = 10
     Max number of k-points (npk) =  40000
     Max angular momentum in pseudopotentials (lmaxx) =  4

     Atomic positions and unit cell read from directory:
     ./tmp/BN2L_AB_PBE_vdW.save/
     Atomic positions from file used, from input discarded


     IMPORTANT: XC functional enforced from input :
     Exchange-correlation= VDW-DF2-B86R
                           (   1   4  26   0   2   0   0)
     Any further DFT definition will be discarded
     Please, verify this is what you really want


     R & G space division:  proc/nbgrp/npool/nimage =       8
     Subspace diagonalization in iterative solution of the eigenvalue problem:
     a serial algorithm will be used


     Parallelization info
     --------------------
     sticks:   dense  smooth     PW     G-vecs:    dense   smooth      PW
     Min          45      45     14                 5791     5791    1010
     Max          46      46     16                 5824     5824    1027
     Sum         367     367    121                46525    46525    8181

     Using Slab Decomposition



     bravais-lattice index     =            4
     lattice parameter (alat)  =       4.7485  a.u.
     unit-cell volume          =     741.8053 (a.u.)^3
     number of atoms/cell      =            4
     number of atomic types    =            2
     number of electrons       =        16.00
     number of Kohn-Sham states=           20
     kinetic-energy cutoff     =      60.0000  Ry
     charge density cutoff     =     240.0000  Ry
     Exchange-correlation= VDW-DF2-B86R
                           (   1   4  26   0   2   0   0)

     celldm(1)=   4.748500  celldm(2)=   0.000000  celldm(3)=   8.000000
     celldm(4)=   0.000000  celldm(5)=   0.000000  celldm(6)=   0.000000

     crystal axes: (cart. coord. in units of alat)
               a(1) = (   1.000000   0.000000   0.000000 )  
               a(2) = (  -0.500000   0.866025   0.000000 )  
               a(3) = (   0.000000   0.000000   8.000000 )  

     reciprocal axes: (cart. coord. in units 2 pi/alat)
               b(1) = (  1.000000  0.577350 -0.000000 )  
               b(2) = (  0.000000  1.154701  0.000000 )  
               b(3) = (  0.000000 -0.000000  0.125000 )  


     PseudoPot. # 1 for B  read from file:
     ../../../../Pseudo/PBE/B.upf
     MD5 check sum: 72f82fc31bc892420d0cab7e25c88ab8
     Pseudo is Norm-conserving + core correction, Zval =  3.0
     Generated using ONCVPSP code by D. R. Hamann
     Using radial grid of 1534 points,  4 beta functions with: 
                l(1) =   0
                l(2) =   0
                l(3) =   1
                l(4) =   1

     PseudoPot. # 2 for N  read from file:
     ../../../../Pseudo/PBE/N.upf
     MD5 check sum: d34365f73bb0e2ee98afc20ec3e87676
     Pseudo is Norm-conserving + core correction, Zval =  5.0
     Generated using ONCVPSP code by D. R. Hamann
     Using radial grid of 1058 points,  4 beta functions with: 
                l(1) =   0
                l(2) =   0
                l(3) =   1
                l(4) =   1

     atomic species   valence    mass     pseudopotential
        B              3.00    10.00000     B ( 1.00)
        N              5.00    14.01100     N ( 1.00)

      6 Sym. Ops. (no inversion) found


                                    s                        frac. trans.

      isym =  1     identity                                     

 cryst.   s( 1) = (     1          0          0      )
                  (     0          1          0      )
                  (     0          0          1      )

 cart.    s( 1) = (  1.0000000  0.0000000  0.0000000 )
                  (  0.0000000  1.0000000  0.0000000 )
                  (  0.0000000  0.0000000  1.0000000 )


      isym =  2     120 deg rotation - cryst. axis [0,0,1]       

 cryst.   s( 2) = (     0          1          0      )
                  (    -1         -1          0      )
                  (     0          0          1      )

 cart.    s( 2) = ( -0.5000000 -0.8660254  0.0000000 )
                  (  0.8660254 -0.5000000  0.0000000 )
                  (  0.0000000  0.0000000  1.0000000 )


      isym =  3     120 deg rotation - cryst. axis [0,0,-1]      

 cryst.   s( 3) = (    -1         -1          0      )
                  (     1          0          0      )
                  (     0          0          1      )

 cart.    s( 3) = ( -0.5000000  0.8660254  0.0000000 )
                  ( -0.8660254 -0.5000000  0.0000000 )
                  (  0.0000000  0.0000000  1.0000000 )


      isym =  4     inv. 180 deg rotation - cart. axis [1,0,0]   

 cryst.   s( 4) = (    -1          0          0      )
                  (     1          1          0      )
                  (     0          0          1      )

 cart.    s( 4) = ( -1.0000000  0.0000000  0.0000000 )
                  (  0.0000000  1.0000000  0.0000000 )
                  (  0.0000000  0.0000000  1.0000000 )


      isym =  5     inv. 180 deg rotation - cryst. axis [0,1,0]  

 cryst.   s( 5) = (     1          1          0      )
                  (     0         -1          0      )
                  (     0          0          1      )

 cart.    s( 5) = (  0.5000000  0.8660254  0.0000000 )
                  (  0.8660254 -0.5000000  0.0000000 )
                  (  0.0000000  0.0000000  1.0000000 )


      isym =  6     inv. 180 deg rotation - cryst. axis [1,1,0]  

 cryst.   s( 6) = (     0         -1          0      )
                  (    -1          0          0      )
                  (     0          0          1      )

 cart.    s( 6) = (  0.5000000 -0.8660254  0.0000000 )
                  ( -0.8660254 -0.5000000  0.0000000 )
                  (  0.0000000  0.0000000  1.0000000 )


     point group C_3v (3m)  
     there are  3 classes
     the character table:

       E     2C3   3s_v 
A_1    1.00  1.00  1.00
A_2    1.00  1.00 -1.00
E      2.00 -1.00  0.00

     the symmetry operations in each class and the name of the first element:

     E        1
          identity                                               
     2C3      2    3
          120 deg rotation - cryst. axis [0,0,1]                 
     3s_v     4    5    6
          inv. 180 deg rotation - cart. axis [1,0,0]             

   Cartesian axes

     site n.     atom                  positions (alat units)
         1           B   tau(   1) = (   0.0000000   0.0000000   0.0000000  )
         2           N   tau(   2) = (   0.0000000   0.5773497   0.0000000  )
         3           B   tau(   3) = (   0.0000000   0.0000000   1.3117120  )
         4           N   tau(   4) = (   0.5000005   0.2886748   1.3118960  )

   Crystallographic axes

     site n.     atom                  positions (cryst. coord.)
         1           B   tau(   1) = (  0.0000000  0.0000000  0.0000000  )
         2           N   tau(   2) = (  0.3333330  0.6666660  0.0000000  )
         3           B   tau(   3) = (  0.0000000  0.0000000  0.1639640  )
         4           N   tau(   4) = (  0.6666670  0.3333330  0.1639870  )

     number of k points=    51  Marzari-Vanderbilt smearing, width (Ry)=  0.0050
                       cart. coord. in units 2pi/alat
        k(    1) = (   0.0000000   0.0000000   0.0000000), wk =   0.0392157
        k(    2) = (  -0.0158729   0.0274930   0.0000000), wk =   0.0392157
        k(    3) = (  -0.0317457   0.0549860   0.0000000), wk =   0.0392157
        k(    4) = (  -0.0476186   0.0824789   0.0000000), wk =   0.0392157
        k(    5) = (  -0.0634914   0.1099719   0.0000000), wk =   0.0392157
        k(    6) = (  -0.0793643   0.1374649   0.0000000), wk =   0.0392157
        k(    7) = (  -0.0952371   0.1649579   0.0000000), wk =   0.0392157
        k(    8) = (  -0.1111100   0.1924509   0.0000000), wk =   0.0392157
        k(    9) = (  -0.1269829   0.2199438   0.0000000), wk =   0.0392157
        k(   10) = (  -0.1428557   0.2474368   0.0000000), wk =   0.0392157
        k(   11) = (  -0.1587286   0.2749298   0.0000000), wk =   0.0392157
        k(   12) = (  -0.1746014   0.3024228   0.0000000), wk =   0.0392157
        k(   13) = (  -0.1904743   0.3299158   0.0000000), wk =   0.0392157
        k(   14) = (  -0.2063471   0.3574087   0.0000000), wk =   0.0392157
        k(   15) = (  -0.2222200   0.3849017   0.0000000), wk =   0.0392157
        k(   16) = (  -0.2380929   0.4123947   0.0000000), wk =   0.0392157
        k(   17) = (  -0.2539657   0.4398877   0.0000000), wk =   0.0392157
        k(   18) = (  -0.2698386   0.4673807   0.0000000), wk =   0.0392157
        k(   19) = (  -0.2857114   0.4948736   0.0000000), wk =   0.0392157
        k(   20) = (  -0.3015843   0.5223666   0.0000000), wk =   0.0392157
        k(   21) = (  -0.3174571   0.5498596   0.0000000), wk =   0.0392157
        k(   22) = (  -0.3333300   0.5773526   0.0000000), wk =   0.0392157
        k(   23) = (  -0.3030273   0.5773524   0.0000000), wk =   0.0392157
        k(   24) = (  -0.2727245   0.5773522   0.0000000), wk =   0.0392157
        k(   25) = (  -0.2424218   0.5773519   0.0000000), wk =   0.0392157
        k(   26) = (  -0.2121191   0.5773517   0.0000000), wk =   0.0392157
        k(   27) = (  -0.1818164   0.5773515   0.0000000), wk =   0.0392157
        k(   28) = (  -0.1515136   0.5773513   0.0000000), wk =   0.0392157
        k(   29) = (  -0.1212109   0.5773511   0.0000000), wk =   0.0392157
        k(   30) = (  -0.0909082   0.5773509   0.0000000), wk =   0.0392157
        k(   31) = (  -0.0606055   0.5773507   0.0000000), wk =   0.0392157
        k(   32) = (  -0.0303027   0.5773505   0.0000000), wk =   0.0392157
        k(   33) = (   0.0000000   0.5773503   0.0000000), wk =   0.0392157
        k(   34) = (   0.0000000   0.5452753   0.0000000), wk =   0.0392157
        k(   35) = (   0.0000000   0.5132002   0.0000000), wk =   0.0392157
        k(   36) = (   0.0000000   0.4811252   0.0000000), wk =   0.0392157
        k(   37) = (   0.0000000   0.4490502   0.0000000), wk =   0.0392157
        k(   38) = (   0.0000000   0.4169752   0.0000000), wk =   0.0392157
        k(   39) = (   0.0000000   0.3849002   0.0000000), wk =   0.0392157
        k(   40) = (   0.0000000   0.3528252   0.0000000), wk =   0.0392157
        k(   41) = (   0.0000000   0.3207501   0.0000000), wk =   0.0392157
        k(   42) = (   0.0000000   0.2886751   0.0000000), wk =   0.0392157
        k(   43) = (   0.0000000   0.2566001   0.0000000), wk =   0.0392157
        k(   44) = (   0.0000000   0.2245251   0.0000000), wk =   0.0392157
        k(   45) = (   0.0000000   0.1924501   0.0000000), wk =   0.0392157
        k(   46) = (   0.0000000   0.1603751   0.0000000), wk =   0.0392157
        k(   47) = (   0.0000000   0.1283001   0.0000000), wk =   0.0392157
        k(   48) = (   0.0000000   0.0962250   0.0000000), wk =   0.0392157
        k(   49) = (   0.0000000   0.0641500   0.0000000), wk =   0.0392157
        k(   50) = (   0.0000000   0.0320750   0.0000000), wk =   0.0392157
        k(   51) = (   0.0000000   0.0000000   0.0000000), wk =   0.0392157

                       cryst. coord.
        k(    1) = (   0.0000000   0.0000000   0.0000000), wk =   0.0392157
        k(    2) = (  -0.0158729   0.0317460   0.0000000), wk =   0.0392157
        k(    3) = (  -0.0317457   0.0634921   0.0000000), wk =   0.0392157
        k(    4) = (  -0.0476186   0.0952381   0.0000000), wk =   0.0392157
        k(    5) = (  -0.0634914   0.1269842   0.0000000), wk =   0.0392157
        k(    6) = (  -0.0793643   0.1587302   0.0000000), wk =   0.0392157
        k(    7) = (  -0.0952371   0.1904763   0.0000000), wk =   0.0392157
        k(    8) = (  -0.1111100   0.2222223   0.0000000), wk =   0.0392157
        k(    9) = (  -0.1269829   0.2539684   0.0000000), wk =   0.0392157
        k(   10) = (  -0.1428557   0.2857144   0.0000000), wk =   0.0392157
        k(   11) = (  -0.1587286   0.3174605   0.0000000), wk =   0.0392157
        k(   12) = (  -0.1746014   0.3492065   0.0000000), wk =   0.0392157
        k(   13) = (  -0.1904743   0.3809526   0.0000000), wk =   0.0392157
        k(   14) = (  -0.2063471   0.4126986   0.0000000), wk =   0.0392157
        k(   15) = (  -0.2222200   0.4444447   0.0000000), wk =   0.0392157
        k(   16) = (  -0.2380929   0.4761907   0.0000000), wk =   0.0392157
        k(   17) = (  -0.2539657   0.5079368   0.0000000), wk =   0.0392157
        k(   18) = (  -0.2698386   0.5396828   0.0000000), wk =   0.0392157
        k(   19) = (  -0.2857114   0.5714289   0.0000000), wk =   0.0392157
        k(   20) = (  -0.3015843   0.6031749   0.0000000), wk =   0.0392157
        k(   21) = (  -0.3174571   0.6349210   0.0000000), wk =   0.0392157
        k(   22) = (  -0.3333300   0.6666670   0.0000000), wk =   0.0392157
        k(   23) = (  -0.3030273   0.6515155   0.0000000), wk =   0.0392157
        k(   24) = (  -0.2727245   0.6363639   0.0000000), wk =   0.0392157
        k(   25) = (  -0.2424218   0.6212124   0.0000000), wk =   0.0392157
        k(   26) = (  -0.2121191   0.6060608   0.0000000), wk =   0.0392157
        k(   27) = (  -0.1818164   0.5909093   0.0000000), wk =   0.0392157
        k(   28) = (  -0.1515136   0.5757577   0.0000000), wk =   0.0392157
        k(   29) = (  -0.1212109   0.5606062   0.0000000), wk =   0.0392157
        k(   30) = (  -0.0909082   0.5454546   0.0000000), wk =   0.0392157
        k(   31) = (  -0.0606055   0.5303031   0.0000000), wk =   0.0392157
        k(   32) = (  -0.0303027   0.5151515   0.0000000), wk =   0.0392157
        k(   33) = (   0.0000000   0.5000000   0.0000000), wk =   0.0392157
        k(   34) = (   0.0000000   0.4722222   0.0000000), wk =   0.0392157
        k(   35) = (   0.0000000   0.4444444   0.0000000), wk =   0.0392157
        k(   36) = (   0.0000000   0.4166667   0.0000000), wk =   0.0392157
        k(   37) = (   0.0000000   0.3888889   0.0000000), wk =   0.0392157
        k(   38) = (   0.0000000   0.3611111   0.0000000), wk =   0.0392157
        k(   39) = (   0.0000000   0.3333333   0.0000000), wk =   0.0392157
        k(   40) = (   0.0000000   0.3055556   0.0000000), wk =   0.0392157
        k(   41) = (   0.0000000   0.2777778   0.0000000), wk =   0.0392157
        k(   42) = (   0.0000000   0.2500000   0.0000000), wk =   0.0392157
        k(   43) = (   0.0000000   0.2222222   0.0000000), wk =   0.0392157
        k(   44) = (   0.0000000   0.1944444   0.0000000), wk =   0.0392157
        k(   45) = (   0.0000000   0.1666667   0.0000000), wk =   0.0392157
        k(   46) = (   0.0000000   0.1388889   0.0000000), wk =   0.0392157
        k(   47) = (   0.0000000   0.1111111   0.0000000), wk =   0.0392157
        k(   48) = (   0.0000000   0.0833333   0.0000000), wk =   0.0392157
        k(   49) = (   0.0000000   0.0555556   0.0000000), wk =   0.0392157
        k(   50) = (   0.0000000   0.0277778   0.0000000), wk =   0.0392157
        k(   51) = (   0.0000000   0.0000000   0.0000000), wk =   0.0392157

     Dense  grid:    46525 G-vectors     FFT dimensions: (  24,  24, 192)

     Dynamical RAM for                 wfc:       0.22 MB

     Dynamical RAM for     wfc (w. buffer):       0.22 MB

     Dynamical RAM for           str. fact:       0.18 MB

     Dynamical RAM for           local pot:       0.00 MB

     Dynamical RAM for          nlocal pot:       0.35 MB

     Dynamical RAM for                qrad:       0.71 MB

     Dynamical RAM for          rho,v,vnew:       0.58 MB

     Dynamical RAM for           G-vectors:       0.38 MB

     Dynamical RAM for          h,s,v(r/c):       0.07 MB

     Dynamical RAM for          <psi|beta>:       0.01 MB

     Dynamical RAM for                 psi:       0.44 MB

     Dynamical RAM for                hpsi:       0.44 MB

     Dynamical RAM for      wfcinit/wfcrot:       0.45 MB

     Estimated static dynamical RAM per process >       3.22 MB

     Estimated max dynamical RAM per process >       4.19 MB

     Estimated total dynamical RAM >      33.51 MB

     The potential is recalculated from file :
     ./tmp/BN2L_AB_PBE_vdW.save/charge-density



     %%%%%%%%%%%%%%%%%%%%%%%%%%%%%%%%%%%%%%%%%%%%%%%%%%%%%%%%%%%%%%%%%%%%%%%%
     %                                                                      %
     % You are using vdW-DF, which was implemented by the Thonhauser group. %
     % Please cite the following two papers that made this development      %
     % possible and the two reviews that describe the various versions:     %
     %                                                                      %
     %   T. Thonhauser et al., PRL 115, 136402 (2015).                      %
     %   T. Thonhauser et al., PRB 76, 125112 (2007).                       %
     %   K. Berland et al., Rep. Prog. Phys. 78, 066501 (2015).             %
     %   D.C. Langreth et al., J. Phys.: Condens. Matter 21, 084203 (2009). %
     %                                                                      %
     % If you are calculating stress with vdW-DF, please also cite:         %
     %                                                                      %
     %   R. Sabatini et al., J. Phys.: Condens. Matter 24, 424209 (2012).   %
     %                                                                      %
     %%%%%%%%%%%%%%%%%%%%%%%%%%%%%%%%%%%%%%%%%%%%%%%%%%%%%%%%%%%%%%%%%%%%%%%%

     %%%%%%%%%%%%%%%%%%%%%%%%%%%%%%%%%%%%%%%%%%%%%%%%%%%%%%%%%%%%%%%%%%%%%%%%
     %                                                                      %
     %  vdW-DF NEWS:                                                        %
     %                                                                      %
     %  * vdW-DF3 is now available. DOI: 10.1021/acs.jctc.0c00471           %
     %    use with input_dft = 'vdW-DF3-opt1' or 'vdW-DF3-opt2'             %
     %                                                                      %
     %  * Unscreened and range-separated hybrid vdW-DF-cx functionals       %
     %    DOI: 10.1063/1.4986522 and 10.1088/1361-648X/ac2ad2               %
     %    use with input_dft = 'vdW-DF-cx0'    and 'vdW-DF-ahcx'            %
     %  * Unscreened and range-separated hybrid vdW-DF2-b86r functionals    %
     %    DOI: 10.1063/1.4986522 and DOI: 10.1103/PhysRevX.12.041003        %
     %    use with input_dft = 'vdW-DF2-br0' and 'vdW-DF2-ahbr'             %
     %                                                                      %
     %%%%%%%%%%%%%%%%%%%%%%%%%%%%%%%%%%%%%%%%%%%%%%%%%%%%%%%%%%%%%%%%%%%%%%%%


     Carrying out vdW-DF run using the following parameters:
     Nqs    =  20  Npoints =  1024  r_max =  100.000
     q_mesh =  0.00001000  0.04494208  0.09755937  0.15916263
               0.23128650  0.31572767  0.41458969  0.53033537
               0.66584808  0.82450364  1.01025438  1.22772762
               1.48234092  1.78043706  2.12944203  2.53805004
               3.01644009  3.57652955  4.23227104  5.00000000


     -----------------------------------------------
     Non-local corr. energy    =       0.20085998 Ry
     -----------------------------------------------

     Starting wfcs are   16 randomized atomic wfcs +    4 random wfcs

     Band Structure Calculation
     Davidson diagonalization with overlap

     Computing kpt #:     1  of    51
     total cpu time spent up to now is       10.6 secs

     Computing kpt #:     2  of    51
     total cpu time spent up to now is       11.0 secs

     Computing kpt #:     3  of    51
     total cpu time spent up to now is       11.4 secs

     Computing kpt #:     4  of    51
     total cpu time spent up to now is       11.8 secs

     Computing kpt #:     5  of    51
     total cpu time spent up to now is       12.2 secs

     Computing kpt #:     6  of    51
     total cpu time spent up to now is       12.6 secs

     Computing kpt #:     7  of    51
     total cpu time spent up to now is       13.0 secs

     Computing kpt #:     8  of    51
     total cpu time spent up to now is       13.3 secs

     Computing kpt #:     9  of    51
     total cpu time spent up to now is       13.7 secs

     Computing kpt #:    10  of    51
     total cpu time spent up to now is       14.1 secs

     Computing kpt #:    11  of    51
     total cpu time spent up to now is       14.4 secs

     Computing kpt #:    12  of    51
     total cpu time spent up to now is       14.8 secs

     Computing kpt #:    13  of    51
     total cpu time spent up to now is       15.1 secs

     Computing kpt #:    14  of    51
     total cpu time spent up to now is       15.5 secs

     Computing kpt #:    15  of    51
     total cpu time spent up to now is       15.8 secs

     Computing kpt #:    16  of    51
     total cpu time spent up to now is       16.1 secs

     Computing kpt #:    17  of    51
     total cpu time spent up to now is       16.3 secs

     Computing kpt #:    18  of    51
     total cpu time spent up to now is       16.6 secs

     Computing kpt #:    19  of    51
     total cpu time spent up to now is       16.8 secs

     Computing kpt #:    20  of    51
     total cpu time spent up to now is       17.1 secs

     Computing kpt #:    21  of    51
     total cpu time spent up to now is       17.5 secs

     Computing kpt #:    22  of    51
     total cpu time spent up to now is       17.9 secs

     Computing kpt #:    23  of    51
     total cpu time spent up to now is       18.1 secs

     Computing kpt #:    24  of    51
     total cpu time spent up to now is       18.4 secs

     Computing kpt #:    25  of    51
     total cpu time spent up to now is       18.7 secs

     Computing kpt #:    26  of    51
     total cpu time spent up to now is       19.0 secs

     Computing kpt #:    27  of    51
     total cpu time spent up to now is       19.3 secs

     Computing kpt #:    28  of    51
     total cpu time spent up to now is       19.7 secs

     Computing kpt #:    29  of    51
     total cpu time spent up to now is       20.0 secs

     Computing kpt #:    30  of    51
     total cpu time spent up to now is       20.4 secs

     Computing kpt #:    31  of    51
     total cpu time spent up to now is       20.7 secs

     Computing kpt #:    32  of    51
     total cpu time spent up to now is       21.0 secs

     Computing kpt #:    33  of    51
     total cpu time spent up to now is       21.4 secs

     Computing kpt #:    34  of    51
     total cpu time spent up to now is       21.8 secs

     Computing kpt #:    35  of    51
     total cpu time spent up to now is       22.1 secs

     Computing kpt #:    36  of    51
     total cpu time spent up to now is       22.4 secs

     Computing kpt #:    37  of    51
     total cpu time spent up to now is       22.7 secs

     Computing kpt #:    38  of    51
     total cpu time spent up to now is       23.0 secs

     Computing kpt #:    39  of    51
     total cpu time spent up to now is       23.3 secs

     Computing kpt #:    40  of    51
     total cpu time spent up to now is       23.6 secs

     Computing kpt #:    41  of    51
     total cpu time spent up to now is       24.0 secs

     Computing kpt #:    42  of    51
     total cpu time spent up to now is       24.4 secs

     Computing kpt #:    43  of    51
     total cpu time spent up to now is       24.8 secs

     Computing kpt #:    44  of    51
     total cpu time spent up to now is       25.3 secs

     Computing kpt #:    45  of    51
     total cpu time spent up to now is       25.9 secs

     Computing kpt #:    46  of    51
     c_bands:  1 eigenvalues not converged
     total cpu time spent up to now is       26.5 secs

     Computing kpt #:    47  of    51
     total cpu time spent up to now is       26.9 secs

     Computing kpt #:    48  of    51
     total cpu time spent up to now is       27.3 secs

     Computing kpt #:    49  of    51
     total cpu time spent up to now is       27.7 secs

     Computing kpt #:    50  of    51
     total cpu time spent up to now is       28.1 secs

     Computing kpt #:    51  of    51
     total cpu time spent up to now is       28.5 secs

     ethr =  6.25E-09,  avg # of iterations = 49.3

     total cpu time spent up to now is       28.5 secs

     End of band structure calculation

          k = 0.0000 0.0000 0.0000 (  5775 PWs)   bands (ev):

   -20.1600 -20.0012  -8.2549  -7.1494  -3.8807  -3.8806  -3.8764  -3.8763
     2.0153   2.5432   3.5804   4.6528   4.7860   6.5220   7.2433   9.0726
     9.1323   9.1323   9.1503   9.1503

          k =-0.0159 0.0275 0.0000 (  5783 PWs)   bands (ev):

   -20.1455 -19.9869  -8.2347  -7.1306  -3.9446  -3.9394  -3.9101  -3.9059
     2.0410   2.5664   3.6047   4.6764   4.8089   6.5381   7.2662   9.0593
     9.1321   9.1408   9.1969   9.2158

          k =-0.0317 0.0550 0.0000 (  5791 PWs)   bands (ev):

   -20.1019 -19.9441  -8.1749  -7.0746  -4.1281  -4.1204  -3.9969  -3.9931
     2.1173   2.6360   3.6774   4.7470   4.8764   6.5850   7.3335   9.0286
     9.0905   9.1576   9.3771   9.4055

          k =-0.0476 0.0825 0.0000 (  5773 PWs)   bands (ev):

   -20.0292 -19.8729  -8.0756  -6.9813  -4.4158  -4.4045  -4.1383  -4.1350
     2.2425   2.7511   3.7982   4.8640   4.9855   6.6587   7.4415   8.9924
     9.0495   9.1773   9.6319   9.7007

          k =-0.0635 0.1100 0.0000 (  5767 PWs)   bands (ev):

   -19.9281 -19.7738  -7.9371  -6.8515  -4.7896  -4.7744  -4.3316  -4.3283
     2.4144   2.9108   3.9665   5.0265   5.1312   6.7518   7.5845   8.9576
     9.0248   9.1982   9.8900  10.0640

          k =-0.0794 0.1375 0.0000 (  5776 PWs)   bands (ev):

   -19.7993 -19.6476  -7.7603  -6.6863  -5.2266  -5.2078  -4.5720  -4.5675
     2.6315   3.1139   4.1817   5.2334   5.3058   6.8520   7.7523   8.9276
     9.0197   9.2246   9.7603  10.1644

          k =-0.0952 0.1650 0.0000 (  5776 PWs)   bands (ev):

   -19.6434 -19.4950  -7.5464  -6.4894  -5.7064  -5.6825  -4.8527  -4.8458
     2.8928   3.3587   4.4434   5.4828   5.4960   6.9424   7.9193   8.9079
     9.0113   9.2714   9.5072  10.3993

          k =-0.1111 0.1925 0.0000 (  5776 PWs)   bands (ev):

   -19.4618 -19.3171  -7.2977  -6.3123  -6.2102  -6.1314  -5.1676  -5.1572
     3.1977   3.6425   4.7505   5.6729   5.7708   7.0106   8.0054   8.9218
     8.9594   9.3536   9.4180  10.6374

          k =-0.1270 0.2199 0.0000 (  5786 PWs)   bands (ev):

   -19.2557 -19.1155  -7.0339  -6.7282  -6.7066  -5.9698  -5.5091  -5.4942
     3.5461   3.9607   5.0991   5.7769   6.0870   7.0805   7.8747   9.0068
     9.0147   9.4794   9.5082  10.8833

          k =-0.1429 0.2474 0.0000 (  5812 PWs)   bands (ev):

   -19.0274 -18.8924  -7.2764  -7.2436  -6.6645  -5.8706  -5.8537  -5.6774
     3.9371   4.3024   5.4526   5.7587   6.3953   7.2285   7.6012   9.1856
     9.2479   9.6488   9.6922  11.1396

          k =-0.1587 0.2749 0.0000 (  5824 PWs)   bands (ev):

   -18.7790 -18.6499  -7.7778  -7.7531  -6.3264  -6.2404  -6.2214  -5.3601
     4.3697   4.6409   5.4008   6.0086   6.5572   7.4758   7.4974   9.4525
     9.5697   9.8575   9.9413  11.4071

          k =-0.1746 0.3024 0.0000 (  5812 PWs)   bands (ev):

   -18.5136 -18.3914  -8.2671  -8.2445  -6.6285  -6.5967  -5.9418  -5.0185
     4.8260   4.9000   5.0568   6.4801   6.4869   7.7272   7.8623   9.7875
     9.9290  10.0990  10.2493  11.6861

          k =-0.1905 0.3299 0.0000 (  5832 PWs)   bands (ev):

   -18.2359 -18.1213  -8.7307  -8.7092  -7.0122  -6.9737  -5.5388  -4.6613
     4.5761   4.9217   5.3766   6.5184   7.0239   8.1835   8.2899  10.1665
    10.3003  10.3636  10.6110  11.9701

          k =-0.2063 0.3574 0.0000 (  5846 PWs)   bands (ev):

   -17.9509 -17.8450  -9.1591  -9.1383  -7.3930  -7.3470  -5.1161  -4.2947
     4.0983   4.6731   5.9309   6.8386   7.6084   8.7260   8.7559  10.5536
    10.6441  10.6708  11.0133  12.1961

          k =-0.2222 0.3849 0.0000 (  5860 PWs)   bands (ev):

   -17.6654 -17.5696  -9.5428  -9.5222  -7.7667  -7.7124  -4.6813  -3.9284
     3.6132   4.3068   6.5252   7.3274   8.2357   9.2353   9.3230  10.8530
    10.9659  11.0310  11.4354  12.2607

          k =-0.2381 0.4124 0.0000 (  5858 PWs)   bands (ev):

   -17.3880 -17.3038  -9.8717  -9.8508  -8.1290  -8.0657  -4.2441  -3.5740
     3.1439   3.9256   7.1535   7.8972   8.8974   9.6898   9.9590  11.0222
    11.2894  11.3674  11.8285  12.2138

          k =-0.2540 0.4399 0.0000 (  5854 PWs)   bands (ev):

   -17.1291 -17.0581 -10.1357 -10.1139  -8.4768  -8.4035  -3.8172  -3.2459
     2.7077   3.5749   7.8086   8.5033   9.5529  10.0713  10.6083  11.0978
    11.6220  11.6423  11.7805  12.3898

          k =-0.2698 0.4674 0.0000 (  5842 PWs)   bands (ev):

   -16.9005 -16.8435 -10.3235 -10.3014  -8.8065  -8.7218  -3.4173  -2.9613
     2.3225   3.2803   8.4769   9.0974   9.9452  10.5324  11.1045  11.1978
    11.6066  11.9484  12.0227  12.8021

          k =-0.2857 0.4949 0.0000 (  5832 PWs)   bands (ev):

   -16.7135 -16.6716 -10.4267 -10.4057  -9.1136  -9.0155  -3.0663  -2.7372
     2.0053   3.0570   9.1299   9.5744   9.9518  11.0932  11.1419  11.4857
    11.9678  12.2650  12.4950  13.1695

          k =-0.3016 0.5224 0.0000 (  5814 PWs)   bands (ev):

   -16.5773 -16.5502 -10.4441 -10.4273  -9.3897  -9.2748  -2.7877  -2.5874
     1.7737   2.9112   9.7028   9.7772   9.8576  11.3392  11.3505  12.1405
    12.1923  12.6660  12.9558  13.4830

          k =-0.3175 0.5499 0.0000 (  5828 PWs)   bands (ev):

   -16.4957 -16.4825 -10.3948 -10.3876  -9.6140  -9.4775  -2.6024  -2.5166
     1.6387   2.8374   9.7695   9.7728  10.0807  11.6002  11.7139  12.1464
    12.7643  12.8709  13.3129  13.9104

          k =-0.3333 0.5774 0.0000 (  5826 PWs)   bands (ev):

   -16.4674 -16.4642 -10.3517 -10.3486  -9.7168  -9.5649  -2.5206  -2.5174
     1.5975   2.8180   9.7404   9.7433  10.1933  11.8692  11.9361  11.9376
    12.8952  12.9007  13.7798  14.1144

          k =-0.3030 0.5774 0.0000 (  5824 PWs)   bands (ev):

   -16.4894 -16.4786 -10.4169 -10.3945  -9.6082  -9.4722  -2.5762  -2.5249
     1.6265   2.8280   9.7718   9.7802  10.1213  11.5803  11.7929  12.1151
    12.7089  12.9329  13.5476  13.7007

          k =-0.2727 0.5774 0.0000 (  5812 PWs)   bands (ev):

   -16.5414 -16.5224 -10.5600 -10.5105  -9.3414  -9.2283  -2.6715  -2.5940
     1.6940   2.8446   9.8751   9.8792   9.9485  11.1668  11.6149  12.0166
    12.4938  12.6598  13.2302  13.3175

          k =-0.2424 0.5774 0.0000 (  5812 PWs)   bands (ev):

   -16.6124 -16.5866 -10.7181 -10.6500  -8.9945  -8.8979  -2.7893  -2.7029
     1.7733   2.8530   9.6852  10.0227  10.0544  10.7146  11.3994  11.7473
    12.2344  12.2730  12.9054  12.9605

          k =-0.2121 0.5774 0.0000 (  5836 PWs)   bands (ev):

   -16.6931 -16.6619 -10.8687 -10.7880  -8.6072  -8.5229  -2.9165  -2.8312
     1.8452   2.8464   9.3599  10.1498  10.1838  10.3070  11.1845  11.3895
    11.8009  12.1472  12.6193  12.6378

          k =-0.1818 0.5774 0.0000 (  5824 PWs)   bands (ev):

   -16.7755 -16.7400 -11.0037 -10.9137  -8.2039  -8.1305  -3.0419  -2.9627
     1.9007   2.8252   8.9687   9.6702  10.2112  10.4757  11.0239  11.0312
    11.4377  12.0925  12.3570  12.4534

          k =-0.1515 0.5774 0.0000 (  5814 PWs)   bands (ev):

   -16.8540 -16.8150 -11.1200 -11.0229  -7.8072  -7.7441  -3.1582  -3.0868
     1.9375   2.7934   8.5309   9.1207  10.1892  10.4998  10.7369  10.9875
    11.2165  11.9604  12.1212  12.4949

          k =-0.1212 0.5774 0.0000 (  5836 PWs)   bands (ev):

   -16.9238 -16.8824 -11.2165 -11.1141  -7.4389  -7.3847  -3.2605  -3.1966
     1.9584   2.7567   8.0869   8.5990  10.1108  10.3846  10.5238  10.8607
    11.2913  11.7985  11.9331  12.5763

          k =-0.0909 0.5774 0.0000 (  5836 PWs)   bands (ev):

   -16.9812 -16.9379 -11.2919 -11.1854  -7.1206  -7.0737  -3.3434  -3.2859
     1.9677   2.7212   7.6838   8.1468  10.0163  10.2587  10.3788  10.7139
    11.4279  11.6614  11.7996  12.5605

          k =-0.0606 0.5774 0.0000 (  5820 PWs)   bands (ev):

   -17.0238 -16.9792 -11.3459 -11.2368  -6.8732  -6.8324  -3.4038  -3.3514
     1.9707   2.6925   7.3634   7.7976   9.9357  10.1604  10.2843  10.6073
    11.4980  11.5608  11.7370  12.4890

          k =-0.0303 0.5774 0.0000 (  5814 PWs)   bands (ev):

   -17.0500 -17.0047 -11.3783 -11.2676  -6.7162  -6.6789  -3.4410  -3.3915
     1.9706   2.6733   7.1577   7.5772   9.8837  10.0995  10.2300  10.5437
    11.4987  11.5000  11.7361  12.4370

          k = 0.0000 0.5774 0.0000 (  5820 PWs)   bands (ev):

   -17.0589 -17.0133 -11.3892 -11.2779  -6.6623  -6.6265  -3.4537  -3.4051
     1.9701   2.6666   7.0868   7.5017   9.8658  10.0789  10.2122  10.5226
    11.4794  11.4911  11.7426  12.4191

          k = 0.0000 0.5453 0.0000 (  5846 PWs)   bands (ev):

   -17.1057 -17.0546 -11.3206 -11.2102  -6.6465  -6.6105  -3.6130  -3.3819
     2.0567   2.7563   7.0412   7.5030   9.3488   9.5465  10.6057  10.7967
    11.0780  11.5108  11.7885  12.2953

          k = 0.0000 0.5132 0.0000 (  5850 PWs)   bands (ev):

   -17.2374 -17.1735 -11.1203 -11.0124  -6.5990  -6.5635  -3.9016  -3.4755
     2.3056   3.0089   6.8958   7.4966   8.7819   8.8752   9.9031  10.8651
    10.9093  11.6179  12.0482  12.2173

          k = 0.0000 0.4811 0.0000 (  5846 PWs)   bands (ev):

   -17.4342 -17.3562 -10.8062 -10.7021  -6.5202  -6.4858  -4.2636  -3.6813
     2.6879   3.3839   6.6292   7.4363   8.2916   8.3316   9.1967  10.1940
    10.4389  11.7937  12.2565  12.7403

          k = 0.0000 0.4491 0.0000 (  5858 PWs)   bands (ev):

   -17.6751 -17.5839 -10.4004 -10.3011  -6.4122  -6.3782  -4.6666  -3.9649
     3.1640   3.8337   6.2438   7.1966   7.9104   7.9992   8.5821   9.5354
     9.9554  11.3393  12.1382  13.0342

          k = 0.0000 0.4170 0.0000 (  5848 PWs)   bands (ev):

   -17.9406 -17.8379  -9.9236  -9.8299  -6.2754  -6.2418  -5.0850  -4.2934
     3.6928   4.3059   5.7843   6.7864   7.5275   7.8631   8.1429   8.9404
     9.5087  10.8913  11.5857  13.2652

          k = 0.0000 0.3849 0.0000 (  5838 PWs)   bands (ev):

   -18.2162 -18.1038  -9.3935  -9.3063  -6.1118  -6.0787  -5.5024  -4.6418
     4.2275   4.7156   5.3005   6.4269   7.0295   7.7703   7.8846   8.4571
     9.1379  10.4730  11.0452  13.0803

          k = 0.0000 0.3528 0.0000 (  5828 PWs)   bands (ev):

   -18.4908 -18.3700  -8.8257  -8.7447  -5.9238  -5.9064  -5.8918  -4.9927
     4.6575   4.8211   4.9562   6.3148   6.5211   7.5573   7.6606   8.2148
     8.8681  10.1011  10.5475  12.7779

          k = 0.0000 0.3208 0.0000 (  5818 PWs)   bands (ev):

   -18.7564 -18.6282  -8.2335  -8.1589  -6.2886  -5.7149  -5.6842  -5.3332
     4.3653   4.6120   5.2633   6.0391   6.4463   7.3078   7.4465   8.1863
     8.6990   9.7904  10.1057  12.4698

          k = 0.0000 0.2887 0.0000 (  5810 PWs)   bands (ev):

   -19.0071 -18.8726  -7.6308  -7.5619  -6.6410  -5.6547  -5.4893  -5.4594
     3.9433   4.3119   5.4258   5.7235   6.3800   7.1513   7.5026   8.2249
     8.6112   9.5530   9.7370  12.1898

          k = 0.0000 0.2566 0.0000 (  5786 PWs)   bands (ev):

   -19.2386 -19.0988  -7.0885  -6.9767  -6.8893  -5.9499  -5.2509  -5.2230
     3.5575   3.9782   5.1174   5.7356   6.0988   7.0549   7.7868   8.3061
     8.5923   9.3926   9.4745  11.9516

          k = 0.0000 0.2245 0.0000 (  5788 PWs)   bands (ev):

   -19.4480 -19.3038  -7.2803  -6.4286  -6.3852  -6.1884  -5.0073  -4.9809
     3.2108   3.6598   4.7693   5.6559   5.7866   7.0050   7.9306   8.4808
     8.6398   9.3116   9.3658  11.6582

          k = 0.0000 0.1925 0.0000 (  5778 PWs)   bands (ev):

   -19.6330 -19.4848  -7.5322  -6.4778  -5.8397  -5.7926  -4.7647  -4.7409
     2.9051   3.3731   4.4590   5.4923   5.4983   6.9440   7.8766   8.6634
     8.7337   9.2690   9.4846  11.2627

          k = 0.0000 0.1604 0.0000 (  5768 PWs)   bands (ev):

   -19.7918 -19.6403  -7.7503  -6.6773  -5.3104  -5.2737  -4.5323  -4.5113
     2.6417   3.1247   4.1933   5.2442   5.3097   6.8556   7.7389   8.7917
     8.8294   9.2410   9.7547  10.6795

          k = 0.0000 0.1283 0.0000 (  5792 PWs)   bands (ev):

   -19.9234 -19.7693  -7.9309  -6.8456  -4.8373  -4.8091  -4.3214  -4.3036
     2.4218   2.9180   3.9742   5.0339   5.1359   6.7551   7.5838   8.8908
     8.9186   9.2163  10.0409  10.1473

          k = 0.0000 0.0962 0.0000 (  5782 PWs)   bands (ev):

   -20.0265 -19.8702  -8.0720  -6.9780  -4.4395  -4.4190  -4.1400  -4.1263
     2.2470   2.7553   3.8027   4.8683   4.9891   6.6612   7.4439   8.9670
     9.0035   9.1899   9.7153   9.7343

          k = 0.0000 0.0642 0.0000 (  5793 PWs)   bands (ev):

   -20.1007 -19.9429  -8.1733  -7.0732  -4.1372  -4.1243  -4.0009  -3.9907
     2.1194   2.6379   3.6794   4.7489   4.8782   6.5862   7.3352   9.0226
     9.0764   9.1638   9.3953   9.4142

          k = 0.0000 0.0321 0.0000 (  5777 PWs)   bands (ev):

   -20.1452 -19.9866  -8.2341  -7.1303  -3.9470  -3.9397  -3.9114  -3.9052
     2.0415   2.5669   3.6052   4.6769   4.8094   6.5385   7.2667   9.0589
     9.1291   9.1434   9.1989   9.2173

          k = 0.0000 0.0000 0.0000 (  5775 PWs)   bands (ev):

   -20.1600 -20.0012  -8.2549  -7.1494  -3.8807  -3.8806  -3.8764  -3.8763
     2.0153   2.5432   3.5804   4.6528   4.7860   6.5220   7.2433   9.0726
     9.1323   9.1323   9.1503   9.1503

     Writing all to output data dir ./tmp/BN2L_AB_PBE_vdW.save/

     init_run     :     10.00s CPU     10.11s WALL (       1 calls)
     electrons    :     19.20s CPU     18.25s WALL (       1 calls)

     Called by init_run:
     wfcinit      :      0.00s CPU      0.00s WALL (       1 calls)
     wfcinit:atom :      0.01s CPU      0.01s WALL (      51 calls)
     wfcinit:wfcr :      0.51s CPU      0.51s WALL (      51 calls)
     potinit      :      9.62s CPU      9.71s WALL (       1 calls)
     hinit0       :      0.35s CPU      0.36s WALL (       1 calls)

     Called by electrons:
     c_bands      :     19.20s CPU     18.25s WALL (       1 calls)
     v_of_rho     :      9.62s CPU      9.71s WALL (       1 calls)
     v_h          :      0.00s CPU      0.00s WALL (       1 calls)
     v_xc         :      9.62s CPU      9.71s WALL (       1 calls)
     vdW_kernel   :      9.57s CPU      9.65s WALL (       1 calls)

     Called by c_bands:
     init_us_2    :      0.01s CPU      0.01s WALL (      51 calls)
     init_us_2:cp :      0.01s CPU      0.01s WALL (      51 calls)
     cegterg      :     18.63s CPU     17.67s WALL (     144 calls)

     Called by sum_band:

     Called by *egterg:
     cdiaghg      :      1.54s CPU      1.58s WALL (    2563 calls)
     cegterg:over :      2.00s CPU      1.55s WALL (    2512 calls)
     cegterg:upda :      1.28s CPU      1.05s WALL (    2512 calls)
     cegterg:last :      2.14s CPU      1.47s WALL (    1286 calls)
     h_psi        :     11.50s CPU     11.77s WALL (    2707 calls)
     g_psi        :      0.11s CPU      0.15s WALL (    2512 calls)

     Called by h_psi:
     h_psi:calbec :      0.91s CPU      0.92s WALL (    2707 calls)
     vloc_psi     :      9.50s CPU      9.92s WALL (    2707 calls)
     add_vuspsi   :      0.99s CPU      0.80s WALL (    2707 calls)

     General routines
     calbec       :      0.90s CPU      0.91s WALL (    2707 calls)
     fft          :      0.29s CPU      0.29s WALL (      61 calls)
     fftw         :      8.47s CPU      8.81s WALL (   50778 calls)
     davcio       :      0.00s CPU      0.01s WALL (     102 calls)

     Parallel routines

     PWSCF        :     29.43s CPU     28.68s WALL


   This run was terminated on:  16: 3:30  17Apr2024            

=------------------------------------------------------------------------------=
   JOB DONE.
=------------------------------------------------------------------------------=
