
     Program PWSCF v.7.0 starts on 14Apr2025 at 14:37:42 

     This program is part of the open-source Quantum ESPRESSO suite
     for quantum simulation of materials; please cite
         "P. Giannozzi et al., J. Phys.:Condens. Matter 21 395502 (2009);
         "P. Giannozzi et al., J. Phys.:Condens. Matter 29 465901 (2017);
         "P. Giannozzi et al., J. Chem. Phys. 152 154105 (2020);
          URL http://www.quantum-espresso.org", 
     in publications or presentations arising from this work. More details at
     http://www.quantum-espresso.org/quote

     Parallel version (MPI & OpenMP), running on       8 processor cores
     Number of MPI processes:                 8
     Threads/MPI process:                     1

     MPI processes distributed on     1 nodes
     R & G space division:  proc/nbgrp/npool/nimage =       8
     0 MiB available memory on the printing compute node when the environment starts

     Waiting for input...
     Reading input from standard input

     Current dimensions of program PWSCF are:
     Max number of different atomic species (ntypx) = 10
     Max number of k-points (npk) =  40000
     Max angular momentum in pseudopotentials (lmaxx) =  4

     IMPORTANT: XC functional enforced from input :
     Exchange-correlation= VDW-DF2-B86R
                           (   1   4  26   0   2   0   0)
     Any further DFT definition will be discarded
     Please, verify this is what you really want


     Subspace diagonalization in iterative solution of the eigenvalue problem:
     one sub-group per band group will be used
     scalapack distributed-memory algorithm (size of sub-group:  2*  2 procs)


     Parallelization info
     --------------------
     sticks:   dense  smooth     PW     G-vecs:    dense   smooth      PW
     Min          90      90     26                15598    15598    2466
     Max          91      91     28                15621    15621    2484
     Sum         721     721    211               124833   124833   19791

     Using Slab Decomposition



     bravais-lattice index     =            4
     lattice parameter (alat)  =       4.6645  a.u.
     unit-cell volume          =     703.1169 (a.u.)^3
     number of atoms/cell      =            4
     number of atomic types    =            1
     number of electrons       =        16.00
     number of Kohn-Sham states=           12
     kinetic-energy cutoff     =     120.0000  Ry
     charge density cutoff     =     480.0000  Ry
     scf convergence threshold =      1.0E-06
     mixing beta               =       0.7000
     number of iterations used =            8  plain     mixing
     energy convergence thresh.=      1.0E-04
     force convergence thresh. =      1.0E-03
     press convergence thresh. =      5.0E-01
     Exchange-correlation= VDW-DF2-B86R
                           (   1   4  26   0   2   0   0)
     nstep                     =           50


     celldm(1)=   4.664470  celldm(2)=   0.000000  celldm(3)=   8.000000
     celldm(4)=   0.000000  celldm(5)=   0.000000  celldm(6)=   0.000000

     crystal axes: (cart. coord. in units of alat)
               a(1) = (   1.000000   0.000000   0.000000 )  
               a(2) = (  -0.500000   0.866025   0.000000 )  
               a(3) = (   0.000000   0.000000   8.000000 )  

     reciprocal axes: (cart. coord. in units 2 pi/alat)
               b(1) = (  1.000000  0.577350 -0.000000 )  
               b(2) = (  0.000000  1.154701  0.000000 )  
               b(3) = (  0.000000 -0.000000  0.125000 )  


     PseudoPot. # 1 for C  read from file:
     ../../../../Pseudo/PBE/C.upf
     MD5 check sum: 34a24e64c0a39f27c6c36b90a16ac686
     Pseudo is Norm-conserving + core correction, Zval =  4.0
     Generated using ONCVPSP code by D. R. Hamann
     Using radial grid of 1248 points,  4 beta functions with: 
                l(1) =   0
                l(2) =   0
                l(3) =   1
                l(4) =   1

     atomic species   valence    mass     pseudopotential
        C              4.00    12.01100     C ( 1.00)

      6 Sym. Ops. (no inversion) found


                                    s                        frac. trans.

      isym =  1     identity                                     

 cryst.   s( 1) = (     1          0          0      )
                  (     0          1          0      )
                  (     0          0          1      )

 cart.    s( 1) = (  1.0000000  0.0000000  0.0000000 )
                  (  0.0000000  1.0000000  0.0000000 )
                  (  0.0000000  0.0000000  1.0000000 )


      isym =  2     120 deg rotation - cryst. axis [0,0,1]       

 cryst.   s( 2) = (     0          1          0      )
                  (    -1         -1          0      )
                  (     0          0          1      )

 cart.    s( 2) = ( -0.5000000 -0.8660254  0.0000000 )
                  (  0.8660254 -0.5000000  0.0000000 )
                  (  0.0000000  0.0000000  1.0000000 )


      isym =  3     120 deg rotation - cryst. axis [0,0,-1]      

 cryst.   s( 3) = (    -1         -1          0      )
                  (     1          0          0      )
                  (     0          0          1      )

 cart.    s( 3) = ( -0.5000000  0.8660254  0.0000000 )
                  ( -0.8660254 -0.5000000  0.0000000 )
                  (  0.0000000  0.0000000  1.0000000 )


      isym =  4     inv. 180 deg rotation - cart. axis [1,0,0]   

 cryst.   s( 4) = (    -1          0          0      )
                  (     1          1          0      )
                  (     0          0          1      )

 cart.    s( 4) = ( -1.0000000  0.0000000  0.0000000 )
                  (  0.0000000  1.0000000  0.0000000 )
                  (  0.0000000  0.0000000  1.0000000 )


      isym =  5     inv. 180 deg rotation - cryst. axis [0,1,0]  

 cryst.   s( 5) = (     1          1          0      )
                  (     0         -1          0      )
                  (     0          0          1      )

 cart.    s( 5) = (  0.5000000  0.8660254  0.0000000 )
                  (  0.8660254 -0.5000000  0.0000000 )
                  (  0.0000000  0.0000000  1.0000000 )


      isym =  6     inv. 180 deg rotation - cryst. axis [1,1,0]  

 cryst.   s( 6) = (     0         -1          0      )
                  (    -1          0          0      )
                  (     0          0          1      )

 cart.    s( 6) = (  0.5000000 -0.8660254  0.0000000 )
                  ( -0.8660254 -0.5000000  0.0000000 )
                  (  0.0000000  0.0000000  1.0000000 )


     point group C_3v (3m)  
     there are  3 classes
     the character table:

       E     2C3   3s_v 
A_1    1.00  1.00  1.00
A_2    1.00  1.00 -1.00
E      2.00 -1.00  0.00

     the symmetry operations in each class and the name of the first element:

     E        1
          identity                                               
     2C3      2    3
          120 deg rotation - cryst. axis [0,0,1]                 
     3s_v     4    5    6
          inv. 180 deg rotation - cart. axis [1,0,0]             

   Cartesian axes

     site n.     atom                  positions (alat units)
         1           C   tau(   1) = (   0.0000000   0.0000000   0.0000000  )
         2           C   tau(   2) = (   0.0000000   0.0000000   1.3401360  )
         3           C   tau(   3) = (   0.5000005   0.2886748   0.0000000  )
         4           C   tau(   4) = (  -0.0000005   0.5773506   1.3401360  )

   Crystallographic axes

     site n.     atom                  positions (cryst. coord.)
         1           C   tau(   1) = (  0.0000000  0.0000000  0.0000000  )
         2           C   tau(   2) = (  0.0000000  0.0000000  0.1675170  )
         3           C   tau(   3) = (  0.6666670  0.3333330  0.0000000  )
         4           C   tau(   4) = (  0.3333330  0.6666670  0.1675170  )

     number of k points=    19  Marzari-Vanderbilt smearing, width (Ry)=  0.0050
                       cart. coord. in units 2pi/alat
        k(    1) = (   0.0000000   0.0000000   0.0000000), wk =   0.0138889
        k(    2) = (   0.0000000   0.0962250   0.0000000), wk =   0.0833333
        k(    3) = (   0.0000000   0.1924501   0.0000000), wk =   0.0833333
        k(    4) = (   0.0000000   0.2886751   0.0000000), wk =   0.0833333
        k(    5) = (   0.0000000   0.3849002   0.0000000), wk =   0.0833333
        k(    6) = (   0.0000000   0.4811252   0.0000000), wk =   0.0833333
        k(    7) = (   0.0000000  -0.5773503   0.0000000), wk =   0.0416667
        k(    8) = (   0.0833333   0.1443376   0.0000000), wk =   0.0833333
        k(    9) = (   0.0833333   0.2405626   0.0000000), wk =   0.1666667
        k(   10) = (   0.0833333   0.3367877   0.0000000), wk =   0.1666667
        k(   11) = (   0.0833333   0.4330127   0.0000000), wk =   0.1666667
        k(   12) = (   0.0833333   0.5292377   0.0000000), wk =   0.1666667
        k(   13) = (   0.1666667   0.2886751   0.0000000), wk =   0.0833333
        k(   14) = (   0.1666667   0.3849002   0.0000000), wk =   0.1666667
        k(   15) = (   0.1666667   0.4811252   0.0000000), wk =   0.1666667
        k(   16) = (   0.1666667   0.5773503   0.0000000), wk =   0.0833333
        k(   17) = (   0.2500000   0.4330127   0.0000000), wk =   0.0833333
        k(   18) = (   0.2500000   0.5292377   0.0000000), wk =   0.1666667
        k(   19) = (   0.3333333   0.5773503   0.0000000), wk =   0.0277778

                       cryst. coord.
        k(    1) = (   0.0000000   0.0000000   0.0000000), wk =   0.0138889
        k(    2) = (   0.0000000   0.0833333   0.0000000), wk =   0.0833333
        k(    3) = (   0.0000000   0.1666667   0.0000000), wk =   0.0833333
        k(    4) = (   0.0000000   0.2500000   0.0000000), wk =   0.0833333
        k(    5) = (   0.0000000   0.3333333   0.0000000), wk =   0.0833333
        k(    6) = (   0.0000000   0.4166667   0.0000000), wk =   0.0833333
        k(    7) = (   0.0000000  -0.5000000   0.0000000), wk =   0.0416667
        k(    8) = (   0.0833333   0.0833333   0.0000000), wk =   0.0833333
        k(    9) = (   0.0833333   0.1666667   0.0000000), wk =   0.1666667
        k(   10) = (   0.0833333   0.2500000   0.0000000), wk =   0.1666667
        k(   11) = (   0.0833333   0.3333333   0.0000000), wk =   0.1666667
        k(   12) = (   0.0833333   0.4166667   0.0000000), wk =   0.1666667
        k(   13) = (   0.1666667   0.1666667   0.0000000), wk =   0.0833333
        k(   14) = (   0.1666667   0.2500000   0.0000000), wk =   0.1666667
        k(   15) = (   0.1666667   0.3333333   0.0000000), wk =   0.1666667
        k(   16) = (   0.1666667   0.4166667   0.0000000), wk =   0.0833333
        k(   17) = (   0.2500000   0.2500000   0.0000000), wk =   0.0833333
        k(   18) = (   0.2500000   0.3333333   0.0000000), wk =   0.1666667
        k(   19) = (   0.3333333   0.3333333   0.0000000), wk =   0.0277778

     Dense  grid:   124833 G-vectors     FFT dimensions: (  36,  36, 270)

     Dynamical RAM for                 wfc:       0.36 MB

     Dynamical RAM for     wfc (w. buffer):       7.14 MB

     Dynamical RAM for           str. fact:       0.24 MB

     Dynamical RAM for           local pot:       0.00 MB

     Dynamical RAM for          nlocal pot:       0.95 MB

     Dynamical RAM for                qrad:       1.00 MB

     Dynamical RAM for          rho,v,vnew:       1.72 MB

     Dynamical RAM for               rhoin:       0.57 MB

     Dynamical RAM for            rho*nmix:       3.81 MB

     Dynamical RAM for           G-vectors:       1.01 MB

     Dynamical RAM for          h,s,v(r/c):       0.01 MB

     Dynamical RAM for          <psi|beta>:       0.01 MB

     Dynamical RAM for                 psi:       0.71 MB

     Dynamical RAM for                hpsi:       0.71 MB

     Dynamical RAM for      wfcinit/wfcrot:       0.96 MB

     Estimated static dynamical RAM per process >      14.81 MB

     Estimated max dynamical RAM per process >      20.06 MB

     Estimated total dynamical RAM >     160.46 MB

     Initial potential from superposition of free atoms

     starting charge      15.9998, renormalised to      16.0000

     negative rho (up, down):  3.247E-06 0.000E+00


     %%%%%%%%%%%%%%%%%%%%%%%%%%%%%%%%%%%%%%%%%%%%%%%%%%%%%%%%%%%%%%%%%%%%%%%%
     %                                                                      %
     % You are using vdW-DF, which was implemented by the Thonhauser group. %
     % Please cite the following two papers that made this development      %
     % possible and the two reviews that describe the various versions:     %
     %                                                                      %
     %   T. Thonhauser et al., PRL 115, 136402 (2015).                      %
     %   T. Thonhauser et al., PRB 76, 125112 (2007).                       %
     %   K. Berland et al., Rep. Prog. Phys. 78, 066501 (2015).             %
     %   D.C. Langreth et al., J. Phys.: Condens. Matter 21, 084203 (2009). %
     %                                                                      %
     %                                                                      %
     % If you are calculating the stress with vdW-DF, please also cite:     %
     %                                                                      %
     %   R. Sabatini et al., J. Phys.: Condens. Matter 24, 424209 (2012).   %
     %                                                                      %
     %%%%%%%%%%%%%%%%%%%%%%%%%%%%%%%%%%%%%%%%%%%%%%%%%%%%%%%%%%%%%%%%%%%%%%%%


     Carrying out vdW-DF run using the following parameters:
     Nqs    =  20  Npoints =  1024  r_max =  100.000
     q_mesh =  0.00001000  0.04494208  0.09755937  0.15916263
               0.23128650  0.31572767  0.41458969  0.53033537
               0.66584808  0.82450364  1.01025438  1.22772762
               1.48234092  1.78043706  2.12944203  2.53805004
               3.01644009  3.57652955  4.23227104  5.00000000


     -----------------------------------------------
     Non-local corr. energy    =       0.17027240 Ry
     -----------------------------------------------

     Starting wfcs are   16 randomized atomic wfcs

     total cpu time spent up to now is        9.9 secs

     Self-consistent Calculation

     iteration #  1     ecut=   120.00 Ry     beta= 0.70
     Davidson diagonalization with overlap

---- Real-time Memory Report at c_bands before calling an iterative solver
             0 MiB given to the printing process from OS
             0 MiB allocation reported by mallinfo(arena+hblkhd)
             0 MiB available memory on the node where the printing process lives
------------------
     ethr =  1.00E-02,  avg # of iterations =  3.5


     -----------------------------------------------
     Non-local corr. energy    =       0.19370972 Ry
     -----------------------------------------------


     total cpu time spent up to now is       11.5 secs

     total energy              =     -48.21194096 Ry
     estimated scf accuracy    <       0.34601873 Ry

     iteration #  2     ecut=   120.00 Ry     beta= 0.70
     Davidson diagonalization with overlap

---- Real-time Memory Report at c_bands before calling an iterative solver
             0 MiB given to the printing process from OS
             0 MiB allocation reported by mallinfo(arena+hblkhd)
             0 MiB available memory on the node where the printing process lives
------------------
     ethr =  2.16E-03,  avg # of iterations =  4.2


     -----------------------------------------------
     Non-local corr. energy    =       0.19445444 Ry
     -----------------------------------------------


     total cpu time spent up to now is       12.9 secs

     total energy              =     -48.25402015 Ry
     estimated scf accuracy    <       0.00538595 Ry

     iteration #  3     ecut=   120.00 Ry     beta= 0.70
     Davidson diagonalization with overlap

---- Real-time Memory Report at c_bands before calling an iterative solver
             0 MiB given to the printing process from OS
             0 MiB allocation reported by mallinfo(arena+hblkhd)
             0 MiB available memory on the node where the printing process lives
------------------
     c_bands:  1 eigenvalues not converged
     ethr =  3.37E-05,  avg # of iterations = 11.4


     -----------------------------------------------
     Non-local corr. energy    =       0.19406856 Ry
     -----------------------------------------------


     total cpu time spent up to now is       15.3 secs

     total energy              =     -48.25539083 Ry
     estimated scf accuracy    <       0.00140830 Ry

     iteration #  4     ecut=   120.00 Ry     beta= 0.70
     Davidson diagonalization with overlap

---- Real-time Memory Report at c_bands before calling an iterative solver
             0 MiB given to the printing process from OS
             0 MiB allocation reported by mallinfo(arena+hblkhd)
             0 MiB available memory on the node where the printing process lives
------------------
     c_bands:  1 eigenvalues not converged
     ethr =  8.80E-06,  avg # of iterations =  6.4


     -----------------------------------------------
     Non-local corr. energy    =       0.19400311 Ry
     -----------------------------------------------


     total cpu time spent up to now is       17.0 secs

     WARNING: integrated charge=    16.00070948, expected=    16.00000000

     total energy              =     -48.25549217 Ry
     estimated scf accuracy    <       0.00203031 Ry

     iteration #  5     ecut=   120.00 Ry     beta= 0.70
     Davidson diagonalization with overlap

---- Real-time Memory Report at c_bands before calling an iterative solver
             0 MiB given to the printing process from OS
             0 MiB allocation reported by mallinfo(arena+hblkhd)
             0 MiB available memory on the node where the printing process lives
------------------
     ethr =  8.80E-06,  avg # of iterations =  4.6


     -----------------------------------------------
     Non-local corr. energy    =       0.19401350 Ry
     -----------------------------------------------


     total cpu time spent up to now is       18.3 secs

     WARNING: integrated charge=    16.00083351, expected=    16.00000000

     total energy              =     -48.25576449 Ry
     estimated scf accuracy    <       0.00223856 Ry

     iteration #  6     ecut=   120.00 Ry     beta= 0.70
     Davidson diagonalization with overlap

---- Real-time Memory Report at c_bands before calling an iterative solver
             0 MiB given to the printing process from OS
             0 MiB allocation reported by mallinfo(arena+hblkhd)
             0 MiB available memory on the node where the printing process lives
------------------
     ethr =  8.80E-06,  avg # of iterations =  3.1


     -----------------------------------------------
     Non-local corr. energy    =       0.19409414 Ry
     -----------------------------------------------


     total cpu time spent up to now is       19.6 secs

     WARNING: integrated charge=    16.00042751, expected=    16.00000000

     total energy              =     -48.25591889 Ry
     estimated scf accuracy    <       0.00002198 Ry

     iteration #  7     ecut=   120.00 Ry     beta= 0.70
     Davidson diagonalization with overlap

---- Real-time Memory Report at c_bands before calling an iterative solver
             0 MiB given to the printing process from OS
             0 MiB allocation reported by mallinfo(arena+hblkhd)
             0 MiB available memory on the node where the printing process lives
------------------
     ethr =  1.37E-07,  avg # of iterations =  4.2


     -----------------------------------------------
     Non-local corr. energy    =       0.19411972 Ry
     -----------------------------------------------


     total cpu time spent up to now is       21.1 secs

     WARNING: integrated charge=    16.00022086, expected=    16.00000000

     total energy              =     -48.25592236 Ry
     estimated scf accuracy    <       0.00000560 Ry

     iteration #  8     ecut=   120.00 Ry     beta= 0.70
     Davidson diagonalization with overlap

---- Real-time Memory Report at c_bands before calling an iterative solver
             0 MiB given to the printing process from OS
             0 MiB allocation reported by mallinfo(arena+hblkhd)
             0 MiB available memory on the node where the printing process lives
------------------
     ethr =  3.50E-08,  avg # of iterations =  1.4


     -----------------------------------------------
     Non-local corr. energy    =       0.19413651 Ry
     -----------------------------------------------


     total cpu time spent up to now is       22.2 secs

     End of self-consistent calculation

          k = 0.0000 0.0000 0.0000 ( 15581 PWs)   bands (ev):

   -20.1413 -19.9683  -8.7211  -7.6450  -3.6406  -3.6405  -3.6297  -3.6296
     2.5697   2.9940   4.1379   5.2628

     occupation numbers 
     1.0000   1.0000   1.0000   1.0000   1.0000   1.0000   1.0000   1.0000
     0.0000   0.0000   0.0000   0.0000

          k = 0.0000 0.0962 0.0000 ( 15544 PWs)   bands (ev):

   -19.9771 -19.8058  -8.5220  -7.4526  -4.2922  -4.2724  -3.9798  -3.9632
     2.7897   3.2158   4.3642   5.4873

     occupation numbers 
     1.0000   1.0000   1.0000   1.0000   1.0000   1.0000   1.0000   1.0000
     0.0000   0.0000   0.0000   0.0000

          k = 0.0000 0.1925 0.0000 ( 15550 PWs)   bands (ev):

   -19.4860 -19.3199  -7.9294  -6.8815  -5.9316  -5.8941  -4.7726  -4.7489
     3.4495   3.8795   5.0427   6.1595

     occupation numbers 
     1.0000   1.0000   1.0000   1.0000   1.0000   1.0000   1.0000   1.0000
     0.0000   0.0000   0.0000   0.0000

          k = 0.0000 0.2887 0.0000 ( 15574 PWs)   bands (ev):

   -18.6740 -18.5163  -8.0327  -7.9750  -6.9602  -5.9531  -5.6527  -5.6245
     4.5456   4.9695   6.1706   6.4772

     occupation numbers 
     1.0000   1.0000   1.0000   1.0000   1.0000   1.0000   1.0000   1.0000
     0.0000   0.0000   0.0000   0.0000

          k = 0.0000 0.3849 0.0000 ( 15652 PWs)   bands (ev):

   -17.5533 -17.4072 -10.2388 -10.1613  -6.3867  -6.3560  -5.6580  -4.7261
     4.0692   4.5811   6.0708   6.5433

     occupation numbers 
     1.0000   1.0000   1.0000   1.0000   1.0000   1.0000   1.0000   1.0000
     0.0000   0.0000   0.0000   0.0000

          k = 0.0000 0.4811 0.0000 ( 15630 PWs)   bands (ev):

   -16.1546 -16.0245 -12.3403 -12.2462  -6.8602  -6.8282  -4.1586  -3.3999
     1.9249   2.4839   6.8519   7.0680

     occupation numbers 
     1.0000   1.0000   1.0000   1.0000   1.0000   1.0000   1.0000   1.0000
     0.0000   0.0000   0.0000   0.0000

          k = 0.0000-0.5774 0.0000 ( 15610 PWs)   bands (ev):

   -14.8697 -14.8045 -13.8123 -13.7632  -7.0228  -6.9903  -3.1578  -2.7599
     0.9409   1.3234   6.7660   6.9942

     occupation numbers 
     1.0000   1.0000   1.0000   1.0000   1.0000   1.0000   1.0000   1.0000
     0.0000   0.0000   0.0000   0.0000

          k = 0.0833 0.1443 0.0000 ( 15550 PWs)   bands (ev):

   -19.6494 -19.4816  -8.1261  -7.0707  -5.3221  -5.3031  -4.6514  -4.6375
     3.2298   3.6588   4.8167   5.9361

     occupation numbers 
     1.0000   1.0000   1.0000   1.0000   1.0000   1.0000   1.0000   1.0000
     0.0000   0.0000   0.0000   0.0000

          k = 0.0833 0.2406 0.0000 ( 15563 PWs)   bands (ev):

   -18.9979 -18.8369  -7.3445  -7.0360  -6.9965  -6.3194  -5.6513  -5.6255
     4.1088   4.5407   5.7212   6.8288

     occupation numbers 
     1.0000   1.0000   1.0000   1.0000   1.0000   1.0000   1.0000   1.0000
     0.0000   0.0000   0.0000   0.0000

          k = 0.0833 0.3368 0.0000 ( 15608 PWs)   bands (ev):

   -18.0314 -17.8803  -9.1139  -9.0500  -6.5406  -6.5061  -6.2033  -5.2338
     5.1202   5.4173   5.5433   5.9000

     occupation numbers 
     1.0000   1.0000   1.0000   1.0000   1.0000   1.0000   1.0000   1.0000
     0.0000   0.0000   0.0000   0.0000

          k = 0.0833 0.4330 0.0000 ( 15647 PWs)   bands (ev):

   -16.7687 -16.6310 -11.2397 -11.1554  -7.1771  -7.1386  -4.7751  -3.9134
     2.8845   3.4003   7.1471   7.5628

     occupation numbers 
     1.0000   1.0000   1.0000   1.0000   1.0000   1.0000   1.0000   1.0000
     0.0000   0.0000   0.0000   0.0000

          k = 0.0833 0.5292 0.0000 ( 15642 PWs)   bands (ev):

   -15.2842 -15.1702 -13.1771 -13.0844  -7.5064  -7.4663  -3.3394  -2.7695
     1.1738   1.6178   7.4916   7.7292

     occupation numbers 
     1.0000   1.0000   1.0000   1.0000   1.0000   1.0000   1.0000   1.0000
     0.0000   0.0000   0.0000   0.0000

          k = 0.1667 0.2887 0.0000 ( 15608 PWs)   bands (ev):

   -18.1918 -18.0391  -8.3616  -8.3297  -7.0032  -6.9800  -6.3874  -5.4060
     5.2041   5.6337   5.6489   5.9232

     occupation numbers 
     1.0000   1.0000   1.0000   1.0000   1.0000   1.0000   1.0000   1.0000
     0.0000   0.0000   0.0000   0.0000

          k = 0.1667 0.3849 0.0000 ( 15629 PWs)   bands (ev):

   -17.0820 -16.9409 -10.0967 -10.0364  -8.0662  -8.0245  -5.0999  -4.1943
     3.6666   4.0223   6.7266   7.1480

     occupation numbers 
     1.0000   1.0000   1.0000   1.0000   1.0000   1.0000   1.0000   1.0000
     0.0000   0.0000   0.0000   0.0000

          k = 0.1667 0.4811 0.0000 ( 15632 PWs)   bands (ev):

   -15.7033 -15.5783 -12.0114 -11.9264  -8.6479  -8.5954  -3.6023  -2.8557
     1.7316   2.1558   8.6450   8.9876

     occupation numbers 
     1.0000   1.0000   1.0000   1.0000   1.0000   1.0000   1.0000   1.0000
     0.0000   0.0000   0.0000   0.0000

          k = 0.1667 0.5774 0.0000 ( 15640 PWs)   bands (ev):

   -14.4485 -14.3859 -13.4136 -13.3705  -8.8342  -8.7791  -2.5589  -2.1675
     0.8114   0.9956   9.2270   9.5379

     occupation numbers 
     1.0000   1.0000   1.0000   1.0000   1.0000   1.0000   1.0000   1.0000
     0.0000   0.0000   0.0000   0.0000

          k = 0.2500 0.4330 0.0000 ( 15618 PWs)   bands (ev):

   -15.8515 -15.7241 -11.1248 -11.0805  -9.5348  -9.5022  -3.7095  -2.9083
     2.0644   2.4036   8.4347   8.7390

     occupation numbers 
     1.0000   1.0000   1.0000   1.0000   1.0000   1.0000   1.0000   1.0000
     0.0000   0.0000   0.0000   0.0000

          k = 0.2500 0.5292 0.0000 ( 15609 PWs)   bands (ev):

   -14.4245 -14.3203 -12.5511 -12.4808 -10.2525 -10.1976  -2.2268  -1.6528
     0.5764   0.8840   9.9580  10.2577

     occupation numbers 
     1.0000   1.0000   1.0000   1.0000   1.0000   1.0000   1.0000   1.0000
     0.0000   0.0000   0.0000   0.0000

          k = 0.3333 0.5774 0.0000 ( 15606 PWs)   bands (ev):

   -13.2182 -13.1604 -13.1602 -13.1081 -11.1102 -11.1100  -0.9482  -0.5834
    -0.5832  -0.1922   9.8707   9.8712

     occupation numbers 
     1.0000   1.0000   1.0000   1.0000   1.0000   1.0000   1.0000   0.5011
     0.4989   0.0000   0.0000   0.0000

     the Fermi energy is    -0.5738 ev

!    total energy              =     -48.25592288 Ry
     estimated scf accuracy    <       0.00000008 Ry
     smearing contrib. (-TS)   =      -0.00004558 Ry
     internal energy E=F+TS    =     -48.25587730 Ry

     The total energy is F=E-TS. E is the sum of the following terms:
     one-electron contribution =    -529.08547208 Ry
     hartree contribution      =     268.21762229 Ry
     xc contribution           =     -17.21421555 Ry
     ewald contribution        =     229.82618804 Ry

     convergence has been achieved in   8 iterations


     -----------------------------------------------
     Non-local corr. energy    =       0.19413651 Ry
     -----------------------------------------------


     Forces acting on atoms (cartesian axes, Ry/au):

     atom    1 type  1   force =     0.00000000    0.00000000    0.00039991
     atom    2 type  1   force =     0.00000000    0.00000000   -0.00039940
     atom    3 type  1   force =     0.00000000    0.00000000   -0.00078937
     atom    4 type  1   force =     0.00000000    0.00000000    0.00078887
     The non-local contrib.  to forces
     atom    1 type  1   force =     0.00000000   -0.00000000    0.00060774
     atom    2 type  1   force =     0.00000000   -0.00000000   -0.00057988
     atom    3 type  1   force =     0.00000000    0.00000000   -0.00102358
     atom    4 type  1   force =     0.00000000    0.00000000    0.00103477
     The ionic contribution  to forces
     atom    1 type  1   force =     0.00000851   -0.00000491  -14.19328446
     atom    2 type  1   force =    -0.00000851    0.00000491   14.19328446
     atom    3 type  1   force =    -0.00000852    0.00000492  -14.18753220
     atom    4 type  1   force =     0.00000852   -0.00000492   14.18753220
     The local contribution  to forces
     atom    1 type  1   force =    -0.00000000    0.00000000   14.19342855
     atom    2 type  1   force =     0.00000000   -0.00000000  -14.19345829
     atom    3 type  1   force =    -0.00000679    0.00000392   14.18804193
     atom    4 type  1   force =     0.00000679   -0.00000392  -14.18805199
     The core correction contribution to forces
     atom    1 type  1   force =    -0.00000000    0.00000000   -0.00009895
     atom    2 type  1   force =     0.00000000   -0.00000000    0.00009531
     atom    3 type  1   force =     0.00000053   -0.00000031   -0.00002369
     atom    4 type  1   force =    -0.00000053    0.00000031    0.00002125
     The Hubbard contrib.    to forces
     atom    1 type  1   force =     0.00000000    0.00000000    0.00000000
     atom    2 type  1   force =     0.00000000    0.00000000    0.00000000
     atom    3 type  1   force =     0.00000000    0.00000000    0.00000000
     atom    4 type  1   force =     0.00000000    0.00000000    0.00000000
     The SCF correction term to forces
     atom    1 type  1   force =    -0.00000000    0.00000000   -0.00000000
     atom    2 type  1   force =     0.00000000   -0.00000000    0.00028178
     atom    3 type  1   force =     0.00000000   -0.00000000   -0.00000000
     atom    4 type  1   force =    -0.00000000    0.00000000    0.00027544

     Total force =     0.000884     Total SCF correction =     0.000394
     SCF correction compared to forces is large: reduce conv_thr to get better values


     Computing stress (Cartesian axis) and pressure



     -----------------------------------------------
     Non-local corr. energy    =       0.19413651 Ry
     -----------------------------------------------

          total   stress  (Ry/bohr**3)                   (kbar)     P=        0.67
   0.00000495  -0.00000000   0.00000000            0.73       -0.00        0.00
  -0.00000000   0.00000495   0.00000000           -0.00        0.73        0.00
   0.00000000  -0.00000000   0.00000379            0.00       -0.00        0.56

     kinetic stress (kbar)   4527.35      0.00      0.00
                                0.00   4527.35     -0.00
                                0.00     -0.00   4983.46

     local   stress (kbar)-115137.22      0.00     -0.00
                                0.00-115137.22      0.00
                               -0.00      0.00 116488.03

     nonloc. stress (kbar)   -460.60     -0.00      0.00
                               -0.00   -460.60      0.00
                                0.00      0.00   -384.93

     hartree stress (kbar)  55768.45     -0.00     -0.00
                               -0.00  55768.45     -0.00
                               -0.00     -0.00 -55420.80

     exc-cor stress (kbar)   -360.25     -0.00     -0.00
                               -0.00   -360.25      0.00
                               -0.00      0.00   -419.82

     corecor stress (kbar)   -686.54      0.00      0.00
                                0.00   -686.54     -0.00
                                0.00     -0.00   -667.73

     ewald   stress (kbar)  56346.45     -0.01      0.00
                               -0.01  56346.44     -0.00
                                0.00     -0.00 -64608.99

     hubbard stress (kbar)      0.00      0.00      0.00
                                0.00      0.00      0.00
                                0.00      0.00      0.00

     DFT-D   stress (kbar)      0.00      0.00      0.00
                                0.00      0.00      0.00
                                0.00      0.00      0.00

     XDM     stress (kbar)      0.00      0.00      0.00
                                0.00      0.00      0.00
                                0.00      0.00      0.00

     dft-nl  stress (kbar)      3.10      0.00      0.00
                                0.00      3.10     -0.00
                                0.00     -0.00     31.34

     TS-vdW  stress (kbar)      0.00      0.00      0.00
                                0.00      0.00      0.00
                                0.00      0.00      0.00


                                0.00      0.00      0.00
                                0.00      0.00      0.00


                                0.00      0.00      0.00


     BFGS Geometry Optimization
     Energy error            =      0.0E+00 Ry
     Gradient error          =      7.9E-04 Ry/Bohr
     Cell gradient error     =      7.3E-01 kbar

     number of scf cycles    =   1
     number of bfgs steps    =   0

     enthalpy           new  =     -48.2559228780 Ry

     new trust radius        =       0.0007888695 bohr
     new conv_thr            =       0.0000010000 Ry

     new unit-cell volume =    703.29105 a.u.^3 (   104.21698 Ang^3 )
     density =      0.76551 g/cm^3

CELL_PARAMETERS (alat=  4.66447000)
   1.000123841  -0.000000000   0.000000000
  -0.500061920   0.866132653   0.000000000
   0.000000000   0.000000000   8.000000000

ATOMIC_POSITIONS (crystal)
C             0.0000000000        0.0000000000        0.0000000000    0   0   0
C             0.0000000000        0.0000000000        0.1675062966
C             0.6666670000        0.3333330000        0.0000000000    0   0   0
C             0.3333330000        0.6666670000        0.1675381404



     Writing config-only to output data dir ./tmp/C2L_AB_PBE_vdW.save/
     NEW-OLD atomic charge density approx. for the potential

     negative rho (up, down):  1.175E-08 0.000E+00


     -----------------------------------------------
     Non-local corr. energy    =       0.19418274 Ry
     -----------------------------------------------

     extrapolated charge   16.00396, renormalised to   16.00000

     total cpu time spent up to now is       25.4 secs

     Self-consistent Calculation

     iteration #  1     ecut=   120.00 Ry     beta= 0.70
     Davidson diagonalization with overlap

---- Real-time Memory Report at c_bands before calling an iterative solver
             0 MiB given to the printing process from OS
             0 MiB allocation reported by mallinfo(arena+hblkhd)
             0 MiB available memory on the node where the printing process lives
------------------
     ethr =  1.00E-06,  avg # of iterations =  2.6


     -----------------------------------------------
     Non-local corr. energy    =       0.19410253 Ry
     -----------------------------------------------


     total cpu time spent up to now is       26.8 secs

     total energy              =     -48.25590080 Ry
     estimated scf accuracy    <       0.00001823 Ry

     iteration #  2     ecut=   120.00 Ry     beta= 0.70
     Davidson diagonalization with overlap

---- Real-time Memory Report at c_bands before calling an iterative solver
             0 MiB given to the printing process from OS
             0 MiB allocation reported by mallinfo(arena+hblkhd)
             0 MiB available memory on the node where the printing process lives
------------------
     ethr =  1.14E-07,  avg # of iterations =  4.2


     -----------------------------------------------
     Non-local corr. energy    =       0.19411201 Ry
     -----------------------------------------------


     total cpu time spent up to now is       28.4 secs

     total energy              =     -48.25591408 Ry
     estimated scf accuracy    <       0.00010165 Ry

     iteration #  3     ecut=   120.00 Ry     beta= 0.70
     Davidson diagonalization with overlap

---- Real-time Memory Report at c_bands before calling an iterative solver
             0 MiB given to the printing process from OS
             0 MiB allocation reported by mallinfo(arena+hblkhd)
             0 MiB available memory on the node where the printing process lives
------------------
     ethr =  1.14E-07,  avg # of iterations =  2.0


     -----------------------------------------------
     Non-local corr. energy    =       0.19411566 Ry
     -----------------------------------------------


     total cpu time spent up to now is       29.6 secs

     total energy              =     -48.25592008 Ry
     estimated scf accuracy    <       0.00009046 Ry

     iteration #  4     ecut=   120.00 Ry     beta= 0.70
     Davidson diagonalization with overlap

---- Real-time Memory Report at c_bands before calling an iterative solver
             0 MiB given to the printing process from OS
             0 MiB allocation reported by mallinfo(arena+hblkhd)
             0 MiB available memory on the node where the printing process lives
------------------
     ethr =  1.14E-07,  avg # of iterations =  1.1


     -----------------------------------------------
     Non-local corr. energy    =       0.19412929 Ry
     -----------------------------------------------


     total cpu time spent up to now is       30.7 secs

     total energy              =     -48.25592442 Ry
     estimated scf accuracy    <       0.00000590 Ry

     iteration #  5     ecut=   120.00 Ry     beta= 0.70
     Davidson diagonalization with overlap

---- Real-time Memory Report at c_bands before calling an iterative solver
             0 MiB given to the printing process from OS
             0 MiB allocation reported by mallinfo(arena+hblkhd)
             0 MiB available memory on the node where the printing process lives
------------------
     ethr =  3.69E-08,  avg # of iterations =  1.1


     -----------------------------------------------
     Non-local corr. energy    =       0.19413572 Ry
     -----------------------------------------------


     total cpu time spent up to now is       31.7 secs

     total energy              =     -48.25592415 Ry
     estimated scf accuracy    <       0.00000205 Ry

     iteration #  6     ecut=   120.00 Ry     beta= 0.70
     Davidson diagonalization with overlap

---- Real-time Memory Report at c_bands before calling an iterative solver
             0 MiB given to the printing process from OS
             0 MiB allocation reported by mallinfo(arena+hblkhd)
             0 MiB available memory on the node where the printing process lives
------------------
     ethr =  1.28E-08,  avg # of iterations =  1.3


     -----------------------------------------------
     Non-local corr. energy    =       0.19414844 Ry
     -----------------------------------------------


     total cpu time spent up to now is       32.9 secs

     End of self-consistent calculation

          k = 0.0000 0.0000 0.0000 ( 15581 PWs)   bands (ev):

   -20.1475 -19.9744  -8.7275  -7.6512  -3.6500  -3.6499  -3.6391  -3.6391
     2.5687   2.9946   4.1747   5.2806

     occupation numbers 
     1.0000   1.0000   1.0000   1.0000   1.0000   1.0000   1.0000   1.0000
     0.0000   0.0000   0.0000   0.0000

          k = 0.0000 0.0962 0.0000 ( 15544 PWs)   bands (ev):

   -19.9833 -19.8119  -8.5285  -7.4589  -4.3015  -4.2818  -3.9891  -3.9725
     2.7886   3.2163   4.4008   5.5050

     occupation numbers 
     1.0000   1.0000   1.0000   1.0000   1.0000   1.0000   1.0000   1.0000
     0.0000   0.0000   0.0000   0.0000

          k = 0.0000 0.1924 0.0000 ( 15550 PWs)   bands (ev):

   -19.4924 -19.3262  -7.9362  -6.8879  -5.9407  -5.9031  -4.7816  -4.7578
     3.4481   3.8797   5.0788   6.1770

     occupation numbers 
     1.0000   1.0000   1.0000   1.0000   1.0000   1.0000   1.0000   1.0000
     0.0000   0.0000   0.0000   0.0000

          k = 0.0000 0.2886 0.0000 ( 15574 PWs)   bands (ev):

   -18.6806 -18.5228  -8.0413  -7.9836  -6.9672  -5.9598  -5.6614  -5.6332
     4.5437   4.9692   6.2053   6.4662

     occupation numbers 
     1.0000   1.0000   1.0000   1.0000   1.0000   1.0000   1.0000   1.0000
     0.0000   0.0000   0.0000   0.0000

          k = 0.0000 0.3849 0.0000 ( 15652 PWs)   bands (ev):

   -17.5601 -17.4139 -10.2470 -10.1695  -6.3952  -6.3644  -5.6655  -4.7333
     4.0590   4.5705   6.0679   6.5419

     occupation numbers 
     1.0000   1.0000   1.0000   1.0000   1.0000   1.0000   1.0000   1.0000
     0.0000   0.0000   0.0000   0.0000

          k = 0.0000 0.4811 0.0000 ( 15630 PWs)   bands (ev):

   -16.1618 -16.0316 -12.3479 -12.2538  -6.8685  -6.8364  -4.1666  -3.4077
     1.9155   2.4742   6.8392   7.0553

     occupation numbers 
     1.0000   1.0000   1.0000   1.0000   1.0000   1.0000   1.0000   1.0000
     0.0000   0.0000   0.0000   0.0000

          k =-0.0000-0.5773 0.0000 ( 15610 PWs)   bands (ev):

   -14.8776 -14.8124 -13.8191 -13.7700  -7.0310  -6.9986  -3.1662  -2.7679
     0.9322   1.3140   6.7532   6.9815

     occupation numbers 
     1.0000   1.0000   1.0000   1.0000   1.0000   1.0000   1.0000   1.0000
     0.0000   0.0000   0.0000   0.0000

          k = 0.0833 0.1443 0.0000 ( 15550 PWs)   bands (ev):

   -19.6557 -19.4878  -8.1327  -7.0771  -5.3313  -5.3123  -4.6605  -4.6465
     3.2285   3.6591   4.8530   5.9537

     occupation numbers 
     1.0000   1.0000   1.0000   1.0000   1.0000   1.0000   1.0000   1.0000
     0.0000   0.0000   0.0000   0.0000

          k = 0.0833 0.2405 0.0000 ( 15563 PWs)   bands (ev):

   -19.0044 -18.8432  -7.3514  -7.0449  -7.0054  -6.3260  -5.6600  -5.6342
     4.1071   4.5406   5.7568   6.8458

     occupation numbers 
     1.0000   1.0000   1.0000   1.0000   1.0000   1.0000   1.0000   1.0000
     0.0000   0.0000   0.0000   0.0000

          k = 0.0833 0.3367 0.0000 ( 15608 PWs)   bands (ev):

   -18.0381 -17.8870  -9.1224  -9.0584  -6.5490  -6.5145  -6.2106  -5.2408
     5.1097   5.4151   5.5323   5.8989

     occupation numbers 
     1.0000   1.0000   1.0000   1.0000   1.0000   1.0000   1.0000   1.0000
     0.0000   0.0000   0.0000   0.0000

          k = 0.0833 0.4330 0.0000 ( 15647 PWs)   bands (ev):

   -16.7757 -16.6380 -11.2476 -11.1633  -7.1854  -7.1469  -4.7829  -3.9209
     2.8746   3.3902   7.1436   7.5591

     occupation numbers 
     1.0000   1.0000   1.0000   1.0000   1.0000   1.0000   1.0000   1.0000
     0.0000   0.0000   0.0000   0.0000

          k = 0.0833 0.5292 0.0000 ( 15642 PWs)   bands (ev):

   -15.2917 -15.1777 -13.1845 -13.0917  -7.5145  -7.4744  -3.3477  -2.7775
     1.1648   1.6083   7.4787   7.7164

     occupation numbers 
     1.0000   1.0000   1.0000   1.0000   1.0000   1.0000   1.0000   1.0000
     0.0000   0.0000   0.0000   0.0000

          k = 0.1666 0.2886 0.0000 ( 15608 PWs)   bands (ev):

   -18.1985 -18.0457  -8.3703  -8.3384  -7.0114  -6.9882  -6.3946  -5.4130
     5.2018   5.6331   5.6379   5.9121

     occupation numbers 
     1.0000   1.0000   1.0000   1.0000   1.0000   1.0000   1.0000   1.0000
     0.0000   0.0000   0.0000   0.0000

          k = 0.1666 0.3849 0.0000 ( 15629 PWs)   bands (ev):

   -17.0889 -16.9478 -10.1050 -10.0447  -8.0741  -8.0324  -5.1076  -4.2016
     3.6561   4.0119   6.7238   7.1465

     occupation numbers 
     1.0000   1.0000   1.0000   1.0000   1.0000   1.0000   1.0000   1.0000
     0.0000   0.0000   0.0000   0.0000

          k = 0.1666 0.4811 0.0000 ( 15632 PWs)   bands (ev):

   -15.7106 -15.5855 -12.0192 -11.9342  -8.6558  -8.6032  -3.6105  -2.8636
     1.7220   2.1461   8.6406   8.9835

     occupation numbers 
     1.0000   1.0000   1.0000   1.0000   1.0000   1.0000   1.0000   1.0000
     0.0000   0.0000   0.0000   0.0000

          k = 0.1666 0.5773 0.0000 ( 15640 PWs)   bands (ev):

   -14.4564 -14.3938 -13.4207 -13.3775  -8.8421  -8.7869  -2.5676  -2.1757
     0.8026   0.9862   9.2138   9.5248

     occupation numbers 
     1.0000   1.0000   1.0000   1.0000   1.0000   1.0000   1.0000   1.0000
     0.0000   0.0000   0.0000   0.0000

          k = 0.2500 0.4330 0.0000 ( 15618 PWs)   bands (ev):

   -15.8588 -15.7312 -11.1332 -11.0889  -9.5422  -9.5095  -3.7176  -2.9162
     2.0544   2.3939   8.4307   8.7361

     occupation numbers 
     1.0000   1.0000   1.0000   1.0000   1.0000   1.0000   1.0000   1.0000
     0.0000   0.0000   0.0000   0.0000

          k = 0.2500 0.5292 0.0000 ( 15609 PWs)   bands (ev):

   -14.4322 -14.3279 -12.5589 -12.4887 -10.2597 -10.2048  -2.2355  -1.6612
     0.5670   0.8748   9.9505  10.2484

     occupation numbers 
     1.0000   1.0000   1.0000   1.0000   1.0000   1.0000   1.0000   1.0000
     0.0000   0.0000   0.0000   0.0000

          k = 0.3333 0.5773 0.0000 ( 15606 PWs)   bands (ev):

   -13.2263 -13.1684 -13.1683 -13.1162 -11.1166 -11.1165  -0.9576  -0.5922
    -0.5922  -0.2009   9.8620   9.8623

     occupation numbers 
     1.0000   1.0000   1.0000   1.0000   1.0000   1.0000   1.0000   0.5002
     0.4998   0.0000   0.0000   0.0000

     the Fermi energy is    -0.5827 ev

!    total energy              =     -48.25592363 Ry
     estimated scf accuracy    <       0.00000067 Ry
     smearing contrib. (-TS)   =      -0.00004558 Ry
     internal energy E=F+TS    =     -48.25587805 Ry

     The total energy is F=E-TS. E is the sum of the following terms:
     one-electron contribution =    -528.94866176 Ry
     hartree contribution      =     268.15198204 Ry
     xc contribution           =     -17.21316790 Ry
     ewald contribution        =     229.75396957 Ry

     convergence has been achieved in   6 iterations


     -----------------------------------------------
     Non-local corr. energy    =       0.19414844 Ry
     -----------------------------------------------


     Forces acting on atoms (cartesian axes, Ry/au):

     atom    1 type  1   force =     0.00000000    0.00000000    0.00054708
     atom    2 type  1   force =     0.00000000    0.00000000   -0.00016639
     atom    3 type  1   force =     0.00000000    0.00000000   -0.00069532
     atom    4 type  1   force =     0.00000000    0.00000000    0.00031463
     The non-local contrib.  to forces
     atom    1 type  1   force =     0.00000000    0.00000000    0.00060447
     atom    2 type  1   force =    -0.00000000   -0.00000000    0.00015938
     atom    3 type  1   force =     0.00000000    0.00000000   -0.00109027
     atom    4 type  1   force =     0.00000000    0.00000000    0.00027478
     The ionic contribution  to forces
     atom    1 type  1   force =     0.00000851   -0.00000491  -14.18955407
     atom    2 type  1   force =    -0.00000851    0.00000491   14.18223858
     atom    3 type  1   force =    -0.00000852    0.00000492  -14.18379272
     atom    4 type  1   force =     0.00000852   -0.00000492   14.19110821
     The local contribution  to forces
     atom    1 type  1   force =    -0.00000000    0.00000000   14.19129644
     atom    2 type  1   force =     0.00000000   -0.00000000  -14.18434036
     atom    3 type  1   force =    -0.00000680    0.00000392   14.18591036
     atom    4 type  1   force =     0.00000680   -0.00000392  -14.19277381
     The core correction contribution to forces
     atom    1 type  1   force =    -0.00000000    0.00000000   -0.00008701
     atom    2 type  1   force =     0.00000000   -0.00000000    0.00007880
     atom    3 type  1   force =     0.00000053   -0.00000031   -0.00001036
     atom    4 type  1   force =    -0.00000053    0.00000031    0.00001994
     The Hubbard contrib.    to forces
     atom    1 type  1   force =     0.00000000    0.00000000    0.00000000
     atom    2 type  1   force =     0.00000000    0.00000000    0.00000000
     atom    3 type  1   force =     0.00000000    0.00000000    0.00000000
     atom    4 type  1   force =     0.00000000    0.00000000    0.00000000
     The SCF correction term to forces
     atom    1 type  1   force =    -0.00000000    0.00000000   -0.00000000
     atom    2 type  1   force =     0.00000000   -0.00000000    0.00168684
     atom    3 type  1   force =     0.00000000   -0.00000000   -0.00000000
     atom    4 type  1   force =    -0.00000000    0.00000000    0.00167516

     Total force =     0.000356     Total SCF correction =     0.002377
     SCF correction compared to forces is large: reduce conv_thr to get better values


     Computing stress (Cartesian axis) and pressure



     -----------------------------------------------
     Non-local corr. energy    =       0.19414844 Ry
     -----------------------------------------------

          total   stress  (Ry/bohr**3)                   (kbar)     P=        0.34
   0.00000118   0.00000000   0.00000000            0.17        0.00        0.00
   0.00000000   0.00000118   0.00000000            0.00        0.17        0.00
   0.00000000   0.00000000   0.00000457            0.00        0.00        0.67

     kinetic stress (kbar)   4525.56      0.00      0.00
                               -0.00   4525.56      0.00
                                0.00      0.00   4981.91

     local   stress (kbar)-115078.90      0.00     -0.00
                                0.00-115078.89      0.00
                               -0.00      0.00 116428.39

     nonloc. stress (kbar)   -460.32      0.00      0.00
                                0.00   -460.32      0.00
                                0.00      0.00   -384.74

     hartree stress (kbar)  55740.82     -0.00      0.00
                               -0.00  55740.82     -0.00
                                0.00     -0.00 -55393.18

     exc-cor stress (kbar)   -360.11     -0.00      0.00
                               -0.00   -360.11     -0.00
                                0.00     -0.00   -419.65

     corecor stress (kbar)   -686.35      0.00     -0.00
                                0.00   -686.35      0.00
                               -0.00      0.00   -667.56

     ewald   stress (kbar)  56316.36     -0.01      0.00
                               -0.01  56316.35     -0.00
                                0.00     -0.00 -64575.83

     hubbard stress (kbar)      0.00      0.00      0.00
                                0.00      0.00      0.00
                                0.00      0.00      0.00

     DFT-D   stress (kbar)      0.00      0.00      0.00
                                0.00      0.00      0.00
                                0.00      0.00      0.00

     XDM     stress (kbar)      0.00      0.00      0.00
                                0.00      0.00      0.00
                                0.00      0.00      0.00

     dft-nl  stress (kbar)      3.10      0.00      0.00
                                0.00      3.10     -0.00
                                0.00     -0.00     31.33

     TS-vdW  stress (kbar)      0.00      0.00      0.00
                                0.00      0.00      0.00
                                0.00      0.00      0.00


                                0.00      0.00      0.00
                                0.00      0.00      0.00


                                0.00      0.00      0.00

     Energy error            =      7.5E-07 Ry
     Gradient error          =      3.1E-04 Ry/Bohr
     Cell gradient error     =      1.7E-01 kbar

     bfgs converged in   2 scf cycles and   1 bfgs steps
     (criteria: energy <  1.0E-04 Ry, force <  1.0E-03Ry/Bohr, cell <  5.0E-01kbar)

     End of BFGS Geometry Optimization

     Final enthalpy           =     -48.2559236276 Ry

     File ./tmp/C2L_AB_PBE_vdW.bfgs deleted, as requested
Begin final coordinates
     new unit-cell volume =    703.29105 a.u.^3 (   104.21698 Ang^3 )
     density =      0.76551 g/cm^3

CELL_PARAMETERS (alat=  4.66447000)
   1.000123841  -0.000000000   0.000000000
  -0.500061920   0.866132653   0.000000000
   0.000000000   0.000000000   8.000000000

ATOMIC_POSITIONS (crystal)
C             0.0000000000        0.0000000000        0.0000000000    0   0   0
C             0.0000000000        0.0000000000        0.1675062966
C             0.6666670000        0.3333330000        0.0000000000    0   0   0
C             0.3333330000        0.6666670000        0.1675381404
End final coordinates



     Writing config-only to output data dir ./tmp/C2L_AB_PBE_vdW.save/

     Final scf calculation at the relaxed structure.
     The G-vectors are recalculated for the final unit cell
     Results may differ from those at the preceding step.

     Parallelization info
     --------------------
     sticks:   dense  smooth     PW     G-vecs:    dense   smooth      PW
     Min          90      90     26                15598    15598    2466
     Max          91      91     28                15621    15621    2484
     Sum         721     721    211               124833   124833   19791

     Using Slab Decomposition



     bravais-lattice index     =            4
     lattice parameter (alat)  =       4.6645  a.u.
     unit-cell volume          =     703.2911 (a.u.)^3
     number of atoms/cell      =            4
     number of atomic types    =            1
     number of electrons       =        16.00
     number of Kohn-Sham states=           12
     kinetic-energy cutoff     =     120.0000  Ry
     charge density cutoff     =     480.0000  Ry
     scf convergence threshold =      1.0E-06
     mixing beta               =       0.7000
     number of iterations used =            8  plain     mixing
     press convergence thresh. =      5.0E-01
     Exchange-correlation= VDW-DF2-B86R
                           (   1   4  26   0   2   0   0)

     celldm(1)=   4.664470  celldm(2)=   0.000000  celldm(3)=   8.000000
     celldm(4)=   0.000000  celldm(5)=   0.000000  celldm(6)=   0.000000

     crystal axes: (cart. coord. in units of alat)
               a(1) = (   1.000124  -0.000000   0.000000 )  
               a(2) = (  -0.500062   0.866133   0.000000 )  
               a(3) = (   0.000000   0.000000   8.000000 )  

     reciprocal axes: (cart. coord. in units 2 pi/alat)
               b(1) = (  0.999876  0.577279 -0.000000 )  
               b(2) = (  0.000000  1.154558 -0.000000 )  
               b(3) = ( -0.000000 -0.000000  0.125000 )  


     PseudoPot. # 1 for C  read from file:
     ../../../../Pseudo/PBE/C.upf
     MD5 check sum: 34a24e64c0a39f27c6c36b90a16ac686
     Pseudo is Norm-conserving + core correction, Zval =  4.0
     Generated using ONCVPSP code by D. R. Hamann
     Using radial grid of 1248 points,  4 beta functions with: 
                l(1) =   0
                l(2) =   0
                l(3) =   1
                l(4) =   1

     atomic species   valence    mass     pseudopotential
        C              4.00    12.01100     C ( 1.00)

      6 Sym. Ops. (no inversion) found


                                    s                        frac. trans.

      isym =  1     identity                                     

 cryst.   s( 1) = (     1          0          0      )
                  (     0          1          0      )
                  (     0          0          1      )

 cart.    s( 1) = (  1.0000000  0.0000000  0.0000000 )
                  (  0.0000000  1.0000000  0.0000000 )
                  (  0.0000000  0.0000000  1.0000000 )


      isym =  2     120 deg rotation - cryst. axis [0,0,1]       

 cryst.   s( 2) = (     0          1          0      )
                  (    -1         -1          0      )
                  (     0          0          1      )

 cart.    s( 2) = ( -0.5000000 -0.8660254  0.0000000 )
                  (  0.8660254 -0.5000000  0.0000000 )
                  (  0.0000000  0.0000000  1.0000000 )


      isym =  3     120 deg rotation - cryst. axis [0,0,-1]      

 cryst.   s( 3) = (    -1         -1          0      )
                  (     1          0          0      )
                  (     0          0          1      )

 cart.    s( 3) = ( -0.5000000  0.8660254  0.0000000 )
                  ( -0.8660254 -0.5000000  0.0000000 )
                  (  0.0000000  0.0000000  1.0000000 )


      isym =  4     inv. 180 deg rotation - cart. axis [1,0,0]   

 cryst.   s( 4) = (    -1          0          0      )
                  (     1          1          0      )
                  (     0          0          1      )

 cart.    s( 4) = ( -1.0000000  0.0000000  0.0000000 )
                  (  0.0000000  1.0000000  0.0000000 )
                  (  0.0000000  0.0000000  1.0000000 )


      isym =  5     inv. 180 deg rotation - cryst. axis [0,1,0]  

 cryst.   s( 5) = (     1          1          0      )
                  (     0         -1          0      )
                  (     0          0          1      )

 cart.    s( 5) = (  0.5000000  0.8660254  0.0000000 )
                  (  0.8660254 -0.5000000  0.0000000 )
                  (  0.0000000  0.0000000  1.0000000 )


      isym =  6     inv. 180 deg rotation - cryst. axis [1,1,0]  

 cryst.   s( 6) = (     0         -1          0      )
                  (    -1          0          0      )
                  (     0          0          1      )

 cart.    s( 6) = (  0.5000000 -0.8660254  0.0000000 )
                  ( -0.8660254 -0.5000000  0.0000000 )
                  (  0.0000000  0.0000000  1.0000000 )


     point group C_3v (3m)  
     there are  3 classes
     the character table:

       E     2C3   3s_v 
A_1    1.00  1.00  1.00
A_2    1.00  1.00 -1.00
E      2.00 -1.00  0.00

     the symmetry operations in each class and the name of the first element:

     E        1
          identity                                               
     2C3      2    3
          120 deg rotation - cryst. axis [0,0,1]                 
     3s_v     4    5    6
          inv. 180 deg rotation - cart. axis [1,0,0]             

   Cartesian axes

     site n.     atom                  positions (alat units)
         1           C   tau(   1) = (   0.0000000   0.0000000   0.0000000  )
         2           C   tau(   2) = (   0.0000000   0.0000000   1.3400504  )
         3           C   tau(   3) = (   0.5000624   0.2887106   0.0000000  )
         4           C   tau(   4) = (  -0.0000005   0.5774221   1.3403051  )

   Crystallographic axes

     site n.     atom                  positions (cryst. coord.)
         1           C   tau(   1) = (  0.0000000  0.0000000  0.0000000  )
         2           C   tau(   2) = (  0.0000000  0.0000000  0.1675063  )
         3           C   tau(   3) = (  0.6666670  0.3333330  0.0000000  )
         4           C   tau(   4) = (  0.3333330  0.6666670  0.1675381  )

     number of k points=    19  Marzari-Vanderbilt smearing, width (Ry)=  0.0050
                       cart. coord. in units 2pi/alat
        k(    1) = (   0.0000000   0.0000000   0.0000000), wk =   0.0138889
        k(    2) = (   0.0000000   0.0962131   0.0000000), wk =   0.0833333
        k(    3) = (   0.0000000   0.1924263   0.0000000), wk =   0.0833333
        k(    4) = (   0.0000000   0.2886394   0.0000000), wk =   0.0833333
        k(    5) = (   0.0000000   0.3848525   0.0000000), wk =   0.0833333
        k(    6) = (   0.0000000   0.4810656   0.0000000), wk =   0.0833333
        k(    7) = (  -0.0000000  -0.5772788   0.0000000), wk =   0.0416667
        k(    8) = (   0.0833230   0.1443197   0.0000000), wk =   0.0833333
        k(    9) = (   0.0833230   0.2405328   0.0000000), wk =   0.1666667
        k(   10) = (   0.0833230   0.3367460   0.0000000), wk =   0.1666667
        k(   11) = (   0.0833230   0.4329591   0.0000000), wk =   0.1666667
        k(   12) = (   0.0833230   0.5291722   0.0000000), wk =   0.1666667
        k(   13) = (   0.1666460   0.2886394   0.0000000), wk =   0.0833333
        k(   14) = (   0.1666460   0.3848525   0.0000000), wk =   0.1666667
        k(   15) = (   0.1666460   0.4810656   0.0000000), wk =   0.1666667
        k(   16) = (   0.1666460   0.5772788   0.0000000), wk =   0.0833333
        k(   17) = (   0.2499690   0.4329591   0.0000000), wk =   0.0833333
        k(   18) = (   0.2499690   0.5291722   0.0000000), wk =   0.1666667
        k(   19) = (   0.3332921   0.5772788   0.0000000), wk =   0.0277778

                       cryst. coord.
        k(    1) = (   0.0000000   0.0000000   0.0000000), wk =   0.0138889
        k(    2) = (   0.0000000   0.0833333   0.0000000), wk =   0.0833333
        k(    3) = (   0.0000000   0.1666667   0.0000000), wk =   0.0833333
        k(    4) = (   0.0000000   0.2500000   0.0000000), wk =   0.0833333
        k(    5) = (   0.0000000   0.3333333   0.0000000), wk =   0.0833333
        k(    6) = (  -0.0000000   0.4166667   0.0000000), wk =   0.0833333
        k(    7) = (   0.0000000  -0.5000000   0.0000000), wk =   0.0416667
        k(    8) = (   0.0833333   0.0833333   0.0000000), wk =   0.0833333
        k(    9) = (   0.0833333   0.1666667   0.0000000), wk =   0.1666667
        k(   10) = (   0.0833333   0.2500000   0.0000000), wk =   0.1666667
        k(   11) = (   0.0833333   0.3333333   0.0000000), wk =   0.1666667
        k(   12) = (   0.0833333   0.4166667   0.0000000), wk =   0.1666667
        k(   13) = (   0.1666667   0.1666667   0.0000000), wk =   0.0833333
        k(   14) = (   0.1666667   0.2500000   0.0000000), wk =   0.1666667
        k(   15) = (   0.1666667   0.3333333   0.0000000), wk =   0.1666667
        k(   16) = (   0.1666667   0.4166667   0.0000000), wk =   0.0833333
        k(   17) = (   0.2500000   0.2500000   0.0000000), wk =   0.0833333
        k(   18) = (   0.2500000   0.3333333   0.0000000), wk =   0.1666667
        k(   19) = (   0.3333333   0.3333333   0.0000000), wk =   0.0277778

     Dense  grid:   124833 G-vectors     FFT dimensions: (  36,  36, 270)

     Dynamical RAM for                 wfc:       0.36 MB

     Dynamical RAM for     wfc (w. buffer):       7.14 MB

     Dynamical RAM for           str. fact:       0.24 MB

     Dynamical RAM for           local pot:       0.12 MB

     Dynamical RAM for          nlocal pot:       0.95 MB

     Dynamical RAM for                qrad:       1.00 MB

     Dynamical RAM for          rho,v,vnew:       1.72 MB

     Dynamical RAM for               rhoin:       0.57 MB

     Dynamical RAM for            rho*nmix:       3.81 MB

     Dynamical RAM for           G-vectors:       1.01 MB

     Dynamical RAM for          h,s,v(r/c):       0.01 MB

     Dynamical RAM for          <psi|beta>:       0.01 MB

     Dynamical RAM for                 psi:       0.71 MB

     Dynamical RAM for                hpsi:       0.71 MB

     Dynamical RAM for      wfcinit/wfcrot:       0.96 MB

     Estimated static dynamical RAM per process >      14.93 MB

     Estimated max dynamical RAM per process >      20.18 MB

     Estimated total dynamical RAM >     161.41 MB

     Initial potential from superposition of free atoms

     starting charge      15.9998, renormalised to      16.0000

     negative rho (up, down):  3.246E-06 0.000E+00


     -----------------------------------------------
     Non-local corr. energy    =       0.17029415 Ry
     -----------------------------------------------

     Starting wfcs are   16 randomized atomic wfcs

     total cpu time spent up to now is       36.5 secs

     Self-consistent Calculation

     iteration #  1     ecut=   120.00 Ry     beta= 0.70
     Davidson diagonalization with overlap

---- Real-time Memory Report at c_bands before calling an iterative solver
             0 MiB given to the printing process from OS
             0 MiB allocation reported by mallinfo(arena+hblkhd)
             0 MiB available memory on the node where the printing process lives
------------------
     c_bands:  2 eigenvalues not converged
     c_bands:  4 eigenvalues not converged
     c_bands:  3 eigenvalues not converged
     c_bands:  2 eigenvalues not converged
     c_bands:  4 eigenvalues not converged
     c_bands:  3 eigenvalues not converged
     c_bands:  1 eigenvalues not converged
     c_bands:  2 eigenvalues not converged
     c_bands:  2 eigenvalues not converged
     c_bands:  2 eigenvalues not converged
     c_bands:  2 eigenvalues not converged
     c_bands:  2 eigenvalues not converged
     ethr =  1.00E-06,  avg # of iterations = 17.5

     negative rho (up, down):  9.554E-07 0.000E+00


     -----------------------------------------------
     Non-local corr. energy    =       0.19513754 Ry
     -----------------------------------------------


     total cpu time spent up to now is       41.6 secs

     total energy              =     -48.19295241 Ry
     estimated scf accuracy    <       0.38671486 Ry

     iteration #  2     ecut=   120.00 Ry     beta= 0.70
     Davidson diagonalization with overlap

---- Real-time Memory Report at c_bands before calling an iterative solver
             0 MiB given to the printing process from OS
             0 MiB allocation reported by mallinfo(arena+hblkhd)
             0 MiB available memory on the node where the printing process lives
------------------
     ethr =  2.42E-03,  avg # of iterations =  4.5

     negative rho (up, down):  1.382E-07 0.000E+00


     -----------------------------------------------
     Non-local corr. energy    =       0.19414770 Ry
     -----------------------------------------------


     total cpu time spent up to now is       43.0 secs

     total energy              =     -48.25489789 Ry
     estimated scf accuracy    <       0.00588305 Ry

     iteration #  3     ecut=   120.00 Ry     beta= 0.70
     Davidson diagonalization with overlap

---- Real-time Memory Report at c_bands before calling an iterative solver
             0 MiB given to the printing process from OS
             0 MiB allocation reported by mallinfo(arena+hblkhd)
             0 MiB available memory on the node where the printing process lives
------------------
     ethr =  3.68E-05,  avg # of iterations =  8.1

     negative rho (up, down):  2.725E-08 0.000E+00


     -----------------------------------------------
     Non-local corr. energy    =       0.19399085 Ry
     -----------------------------------------------


     total cpu time spent up to now is       44.9 secs

     total energy              =     -48.25540481 Ry
     estimated scf accuracy    <       0.00147073 Ry

     iteration #  4     ecut=   120.00 Ry     beta= 0.70
     Davidson diagonalization with overlap

---- Real-time Memory Report at c_bands before calling an iterative solver
             0 MiB given to the printing process from OS
             0 MiB allocation reported by mallinfo(arena+hblkhd)
             0 MiB available memory on the node where the printing process lives
------------------
     ethr =  9.19E-06,  avg # of iterations =  6.1


     -----------------------------------------------
     Non-local corr. energy    =       0.19404831 Ry
     -----------------------------------------------


     total cpu time spent up to now is       46.6 secs

     total energy              =     -48.25575287 Ry
     estimated scf accuracy    <       0.00083035 Ry

     iteration #  5     ecut=   120.00 Ry     beta= 0.70
     Davidson diagonalization with overlap

---- Real-time Memory Report at c_bands before calling an iterative solver
             0 MiB given to the printing process from OS
             0 MiB allocation reported by mallinfo(arena+hblkhd)
             0 MiB available memory on the node where the printing process lives
------------------
     ethr =  5.19E-06,  avg # of iterations =  5.5


     -----------------------------------------------
     Non-local corr. energy    =       0.19406259 Ry
     -----------------------------------------------


     total cpu time spent up to now is       48.1 secs

     total energy              =     -48.25585292 Ry
     estimated scf accuracy    <       0.00092433 Ry

     iteration #  6     ecut=   120.00 Ry     beta= 0.70
     Davidson diagonalization with overlap

---- Real-time Memory Report at c_bands before calling an iterative solver
             0 MiB given to the printing process from OS
             0 MiB allocation reported by mallinfo(arena+hblkhd)
             0 MiB available memory on the node where the printing process lives
------------------
     ethr =  5.19E-06,  avg # of iterations =  1.4


     -----------------------------------------------
     Non-local corr. energy    =       0.19414264 Ry
     -----------------------------------------------


     total cpu time spent up to now is       49.1 secs

     total energy              =     -48.25592287 Ry
     estimated scf accuracy    <       0.00000311 Ry

     iteration #  7     ecut=   120.00 Ry     beta= 0.70
     Davidson diagonalization with overlap

---- Real-time Memory Report at c_bands before calling an iterative solver
             0 MiB given to the printing process from OS
             0 MiB allocation reported by mallinfo(arena+hblkhd)
             0 MiB available memory on the node where the printing process lives
------------------
     ethr =  1.94E-08,  avg # of iterations =  3.1


     -----------------------------------------------
     Non-local corr. energy    =       0.19414332 Ry
     -----------------------------------------------


     total cpu time spent up to now is       50.5 secs

     End of self-consistent calculation

          k = 0.0000 0.0000 0.0000 ( 15581 PWs)   bands (ev):

   -20.1421 -19.9691  -8.7227  -7.6466  -3.6441  -3.6441  -3.6332  -3.6331
     2.5683   2.9934   4.1593   5.2745

     occupation numbers 
     1.0000   1.0000   1.0000   1.0000   1.0000   1.0000   1.0000   1.0000
     0.0000   0.0000   0.0000   0.0000

          k = 0.0000 0.0962 0.0000 ( 15552 PWs)   bands (ev):

   -19.9778 -19.8065  -8.5237  -7.4543  -4.2957  -4.2759  -3.9833  -3.9666
     2.7882   3.2150   4.3855   5.8930

     occupation numbers 
     1.0000   1.0000   1.0000   1.0000   1.0000   1.0000   1.0000   1.0000
     0.0000   0.0000   0.0000   0.0000

          k = 0.0000 0.1924 0.0000 ( 15550 PWs)   bands (ev):

   -19.4869 -19.3208  -7.9313  -6.8833  -5.9349  -5.8973  -4.7757  -4.7520
     3.4478   3.8785   5.0638   6.1704

     occupation numbers 
     1.0000   1.0000   1.0000   1.0000   1.0000   1.0000   1.0000   1.0000
     0.0000   0.0000   0.0000   0.0000

          k = 0.0000 0.2886 0.0000 ( 15600 PWs)   bands (ev):

   -18.6751 -18.5174  -8.0356  -7.9779  -6.9624  -5.9552  -5.6556  -5.6273
     4.5435   4.9682   6.1909   6.4710

     occupation numbers 
     1.0000   1.0000   1.0000   1.0000   1.0000   1.0000   1.0000   1.0000
     0.0000   0.0000   0.0000   0.0000

          k = 0.0000 0.3849 0.0000 ( 15652 PWs)   bands (ev):

   -17.5546 -17.4085 -10.2413 -10.1638  -6.3893  -6.3586  -5.6606  -4.7286
     4.0640   4.5755   6.0681   6.5419

     occupation numbers 
     1.0000   1.0000   1.0000   1.0000   1.0000   1.0000   1.0000   1.0000
     0.0000   0.0000   0.0000   0.0000

          k = 0.0000 0.4811 0.0000 ( 15630 PWs)   bands (ev):

   -16.1563 -16.0261 -12.3423 -12.2482  -6.8627  -6.8306  -4.1616  -3.4029
     1.9204   2.4791   6.8446   7.0608

     occupation numbers 
     1.0000   1.0000   1.0000   1.0000   1.0000   1.0000   1.0000   1.0000
     0.0000   0.0000   0.0000   0.0000

          k =-0.0000-0.5773 0.0000 ( 15610 PWs)   bands (ev):

   -14.8721 -14.8068 -13.8136 -13.7644  -7.0252  -6.9927  -3.1613  -2.7630
     0.9370   1.3188   6.7585   6.9867

     occupation numbers 
     1.0000   1.0000   1.0000   1.0000   1.0000   1.0000   1.0000   1.0000
     0.0000   0.0000   0.0000   0.0000

          k = 0.0833 0.1443 0.0000 ( 15550 PWs)   bands (ev):

   -19.6503 -19.4824  -8.1279  -7.0725  -5.3255  -5.3064  -4.6546  -4.6406
     3.2282   3.6578   4.8378   6.3110

     occupation numbers 
     1.0000   1.0000   1.0000   1.0000   1.0000   1.0000   1.0000   1.0000
     0.0000   0.0000   0.0000   0.0000

          k = 0.0833 0.2405 0.0000 ( 15565 PWs)   bands (ev):

   -18.9989 -18.8378  -7.3465  -7.0392  -6.9996  -6.3214  -5.6542  -5.6283
     4.1069   4.5394   5.7419   6.8395

     occupation numbers 
     1.0000   1.0000   1.0000   1.0000   1.0000   1.0000   1.0000   1.0000
     0.0000   0.0000   0.0000   0.0000

          k = 0.0833 0.3367 0.0000 ( 15614 PWs)   bands (ev):

   -18.0326 -17.8815  -9.1167  -9.0527  -6.5432  -6.5087  -6.2057  -5.2361
     5.1145   5.4153   5.5372   5.8982

     occupation numbers 
     1.0000   1.0000   1.0000   1.0000   1.0000   1.0000   1.0000   1.0000
     0.0000   0.0000   0.0000   0.0000

          k = 0.0833 0.4330 0.0000 ( 15647 PWs)   bands (ev):

   -16.7702 -16.6325 -11.2420 -11.1576  -7.1796  -7.1411  -4.7780  -3.9162
     2.8796   3.3951   7.1450   7.5610

     occupation numbers 
     1.0000   1.0000   1.0000   1.0000   1.0000   1.0000   1.0000   1.0000
     0.0000   0.0000   0.0000   0.0000

          k = 0.0833 0.5292 0.0000 ( 15644 PWs)   bands (ev):

   -15.2861 -15.1721 -13.1789 -13.0862  -7.5087  -7.4686  -3.3427  -2.7726
     1.1696   1.6132   7.4841   7.7216

     occupation numbers 
     1.0000   1.0000   1.0000   1.0000   1.0000   1.0000   1.0000   1.0000
     0.0000   0.0000   0.0000   0.0000

          k = 0.1666 0.2886 0.0000 ( 15608 PWs)   bands (ev):

   -18.1930 -18.0403  -8.3646  -8.3327  -7.0056  -6.9824  -6.3897  -5.4083
     5.2017   5.6321   5.6430   5.9171

     occupation numbers 
     1.0000   1.0000   1.0000   1.0000   1.0000   1.0000   1.0000   1.0000
     0.0000   0.0000   0.0000   0.0000

          k = 0.1666 0.3849 0.0000 ( 15631 PWs)   bands (ev):

   -17.0834 -16.9423 -10.0994 -10.0391  -8.0684  -8.0267  -5.1027  -4.1969
     3.6612   4.0170   6.7239   7.1455

     occupation numbers 
     1.0000   1.0000   1.0000   1.0000   1.0000   1.0000   1.0000   1.0000
     0.0000   0.0000   0.0000   0.0000

          k = 0.1666 0.4811 0.0000 ( 15636 PWs)   bands (ev):

   -15.7051 -15.5800 -12.0136 -11.9286  -8.6501  -8.5975  -3.6055  -2.8588
     1.7269   2.1511   8.6413   8.9833

     occupation numbers 
     1.0000   1.0000   1.0000   1.0000   1.0000   1.0000   1.0000   1.0000
     0.0000   0.0000   0.0000   0.0000

          k = 0.1666 0.5773 0.0000 ( 15640 PWs)   bands (ev):

   -14.4508 -14.3883 -13.4151 -13.3720  -8.8364  -8.7812  -2.5626  -2.1708
     0.8074   0.9911   9.2192   9.5301

     occupation numbers 
     1.0000   1.0000   1.0000   1.0000   1.0000   1.0000   1.0000   1.0000
     0.0000   0.0000   0.0000   0.0000

          k = 0.2500 0.4330 0.0000 ( 15638 PWs)   bands (ev):

   -15.8532 -15.7257 -11.1276 -11.0832  -9.5365  -9.5039  -3.7127  -2.9114
     2.0594   2.3989   8.4310   8.7356

     occupation numbers 
     1.0000   1.0000   1.0000   1.0000   1.0000   1.0000   1.0000   1.0000
     0.0000   0.0000   0.0000   0.0000

          k = 0.2500 0.5292 0.0000 ( 15613 PWs)   bands (ev):

   -14.4266 -14.3224 -12.5533 -12.4831 -10.2541 -10.1992  -2.2305  -1.6563
     0.5720   0.8797   9.9534  10.2521

     occupation numbers 
     1.0000   1.0000   1.0000   1.0000   1.0000   1.0000   1.0000   1.0000
     0.0000   0.0000   0.0000   0.0000

          k = 0.3333 0.5773 0.0000 ( 15606 PWs)   bands (ev):

   -13.2208 -13.1631 -13.1622 -13.1107 -11.1116 -11.1104  -0.9527  -0.5873
    -0.5867  -0.1962   9.8651   9.8662

     occupation numbers 
     1.0000   1.0000   1.0000   1.0000   1.0000   1.0000   1.0000   0.5036
     0.4964   0.0000   0.0000   0.0000

     the Fermi energy is    -0.5775 ev

!    total energy              =     -48.25592396 Ry
     estimated scf accuracy    <       0.00000013 Ry
     smearing contrib. (-TS)   =      -0.00004558 Ry
     internal energy E=F+TS    =     -48.25587839 Ry

     The total energy is F=E-TS. E is the sum of the following terms:
     one-electron contribution =    -528.94079007 Ry
     hartree contribution      =     268.14390322 Ry
     xc contribution           =     -17.21296110 Ry
     ewald contribution        =     229.75396957 Ry

     convergence has been achieved in   7 iterations


     -----------------------------------------------
     Non-local corr. energy    =       0.19414332 Ry
     -----------------------------------------------


     Forces acting on atoms (cartesian axes, Ry/au):

     atom    1 type  1   force =    -0.00000000   -0.00000000    0.00043929
     atom    2 type  1   force =     0.00000000    0.00000000   -0.00006251
     atom    3 type  1   force =    -0.00000000   -0.00000000   -0.00073616
     atom    4 type  1   force =     0.00000000    0.00000000    0.00035938
     The non-local contrib.  to forces
     atom    1 type  1   force =     0.00000000    0.00000000    0.00060318
     atom    2 type  1   force =    -0.00000000   -0.00000000    0.00016280
     atom    3 type  1   force =     0.00000000    0.00000000   -0.00101541
     atom    4 type  1   force =    -0.00000000   -0.00000000    0.00025989
     The ionic contribution  to forces
     atom    1 type  1   force =     0.00000851   -0.00000491  -14.18955407
     atom    2 type  1   force =    -0.00000851    0.00000491   14.18223858
     atom    3 type  1   force =    -0.00000852    0.00000492  -14.18379272
     atom    4 type  1   force =     0.00000852   -0.00000492   14.19110821
     The local contribution  to forces
     atom    1 type  1   force =    -0.00000000    0.00000000   14.18958962
     atom    2 type  1   force =     0.00000000   -0.00000000  -14.18283366
     atom    3 type  1   force =    -0.00000679    0.00000392   14.18419113
     atom    4 type  1   force =     0.00000679   -0.00000392  -14.19131353
     The core correction contribution to forces
     atom    1 type  1   force =    -0.00000000    0.00000000   -0.00009482
     atom    2 type  1   force =     0.00000000   -0.00000000    0.00009280
     atom    3 type  1   force =     0.00000053   -0.00000031   -0.00001990
     atom    4 type  1   force =    -0.00000053    0.00000031    0.00003245
     The Hubbard contrib.    to forces
     atom    1 type  1   force =     0.00000000    0.00000000    0.00000000
     atom    2 type  1   force =     0.00000000    0.00000000    0.00000000
     atom    3 type  1   force =     0.00000000    0.00000000    0.00000000
     atom    4 type  1   force =     0.00000000    0.00000000    0.00000000
     The SCF correction term to forces
     atom    1 type  1   force =    -0.00000000    0.00000000   -0.00000000
     atom    2 type  1   force =     0.00000000   -0.00000000    0.00029896
     atom    3 type  1   force =    -0.00000000    0.00000000   -0.00000000
     atom    4 type  1   force =    -0.00000000    0.00000000    0.00029436

     Total force =     0.000365     Total SCF correction =     0.000420
     SCF correction compared to forces is large: reduce conv_thr to get better values


     Computing stress (Cartesian axis) and pressure



     -----------------------------------------------
     Non-local corr. energy    =       0.19414332 Ry
     -----------------------------------------------

          total   stress  (Ry/bohr**3)                   (kbar)     P=        0.25
   0.00000140   0.00000000   0.00000000            0.21        0.00        0.00
   0.00000000   0.00000140   0.00000000            0.00        0.21        0.00
   0.00000000   0.00000000   0.00000236            0.00        0.00        0.35

     kinetic stress (kbar)   4525.51      0.00     -0.00
                                0.00   4525.51     -0.00
                               -0.00     -0.00   4981.65

     local   stress (kbar)-115077.16      0.00     -0.00
                                0.00-115077.16      0.00
                               -0.00      0.00 116426.63

     nonloc. stress (kbar)   -460.31      0.00      0.00
                                0.00   -460.31      0.00
                                0.00      0.00   -384.71

     hartree stress (kbar)  55739.15      0.00      0.00
                                0.00  55739.15     -0.00
                                0.00     -0.00 -55391.53

     exc-cor stress (kbar)   -360.09     -0.00      0.00
                               -0.00   -360.09     -0.00
                                0.00     -0.00   -419.64

     corecor stress (kbar)   -686.34      0.00     -0.00
                                0.00   -686.34      0.00
                               -0.00      0.00   -667.55

     ewald   stress (kbar)  56316.36     -0.01      0.00
                               -0.01  56316.35     -0.00
                                0.00     -0.00 -64575.83

     hubbard stress (kbar)      0.00      0.00      0.00
                                0.00      0.00      0.00
                                0.00      0.00      0.00

     DFT-D   stress (kbar)      0.00      0.00      0.00
                                0.00      0.00      0.00
                                0.00      0.00      0.00

     XDM     stress (kbar)      0.00      0.00      0.00
                                0.00      0.00      0.00
                                0.00      0.00      0.00

     dft-nl  stress (kbar)      3.10      0.00      0.00
                                0.00      3.10     -0.00
                                0.00     -0.00     31.33

     TS-vdW  stress (kbar)      0.00      0.00      0.00
                                0.00      0.00      0.00
                                0.00      0.00      0.00


                                0.00      0.00      0.00
                                0.00      0.00      0.00


                                0.00      0.00      0.00


     Writing all to output data dir ./tmp/C2L_AB_PBE_vdW.save/

     init_run     :     11.07s CPU     11.16s WALL (       2 calls)
     electrons    :     34.14s CPU     33.93s WALL (       3 calls)
     update_pot   :      0.86s CPU      0.90s WALL (       1 calls)
     forces       :      1.85s CPU      1.93s WALL (       3 calls)
     stress       :      4.69s CPU      4.85s WALL (       3 calls)

     Called by init_run:
     wfcinit      :      0.91s CPU      0.92s WALL (       2 calls)
     wfcinit:atom :      0.01s CPU      0.01s WALL (      38 calls)
     wfcinit:wfcr :      0.82s CPU      0.82s WALL (      38 calls)
     potinit      :      8.88s CPU      8.96s WALL (       2 calls)
     hinit0       :      0.93s CPU      0.94s WALL (       2 calls)

     Called by electrons:
     c_bands      :     27.82s CPU     27.05s WALL (      21 calls)
     sum_band     :      2.81s CPU      2.86s WALL (      21 calls)
     v_of_rho     :     12.05s CPU     12.55s WALL (      24 calls)
     v_h          :      0.03s CPU      0.03s WALL (      24 calls)
     v_xc         :     12.95s CPU     13.57s WALL (      30 calls)
     mix_rho      :      0.10s CPU      0.17s WALL (      21 calls)
     vdW_kernel   :      8.26s CPU      8.29s WALL (       1 calls)

     Called by c_bands:
     init_us_2    :      0.53s CPU      0.54s WALL (     950 calls)
     init_us_2:cp :      0.53s CPU      0.54s WALL (     950 calls)
     cegterg      :     26.98s CPU     26.19s WALL (     399 calls)

     Called by sum_band:
     sum_band:wei :      0.00s CPU      0.00s WALL (      21 calls)
     sum_band:loo :      2.74s CPU      2.78s WALL (      21 calls)
     sum_band:buf :      0.10s CPU      0.10s WALL (     399 calls)
     sum_band:ini :      0.23s CPU      0.24s WALL (     399 calls)

     Called by *egterg:
     cdiaghg      :      1.19s CPU      1.23s WALL (    2228 calls)
     cegterg:over :      1.60s CPU      1.63s WALL (    1848 calls)
     cegterg:upda :      1.90s CPU      2.06s WALL (    1848 calls)
     cegterg:last :      1.91s CPU      1.56s WALL (    1032 calls)
     cdiaghg:chol :      0.13s CPU      0.14s WALL (    2228 calls)
     cdiaghg:inve :      0.04s CPU      0.04s WALL (    2228 calls)
     cdiaghg:para :      0.15s CPU      0.17s WALL (    4456 calls)
     h_psi        :     20.45s CPU     19.71s WALL (    2285 calls)
     g_psi        :      0.11s CPU      0.12s WALL (    1848 calls)

     Called by h_psi:
     h_psi:calbec :      1.77s CPU      1.58s WALL (    2285 calls)
     vloc_psi     :     16.29s CPU     16.58s WALL (    2285 calls)
     add_vuspsi   :      2.19s CPU      1.34s WALL (    2285 calls)

     General routines
     calbec       :      2.00s CPU      1.81s WALL (    2570 calls)
     fft          :      2.14s CPU      2.19s WALL (    1945 calls)
     ffts         :      0.01s CPU      0.01s WALL (      21 calls)
     fftw         :     15.86s CPU     16.12s WALL (   35884 calls)

     Parallel routines

     PWSCF        :     52.70s CPU     52.91s WALL


   This run was terminated on:  14:38:35  14Apr2025            

=------------------------------------------------------------------------------=
   JOB DONE.
=------------------------------------------------------------------------------=
