
     Program PWSCF v.7.0 starts on 14Apr2025 at 14:41:12 

     This program is part of the open-source Quantum ESPRESSO suite
     for quantum simulation of materials; please cite
         "P. Giannozzi et al., J. Phys.:Condens. Matter 21 395502 (2009);
         "P. Giannozzi et al., J. Phys.:Condens. Matter 29 465901 (2017);
         "P. Giannozzi et al., J. Chem. Phys. 152 154105 (2020);
          URL http://www.quantum-espresso.org", 
     in publications or presentations arising from this work. More details at
     http://www.quantum-espresso.org/quote

     Parallel version (MPI & OpenMP), running on       8 processor cores
     Number of MPI processes:                 8
     Threads/MPI process:                     1

     MPI processes distributed on     1 nodes
     R & G space division:  proc/nbgrp/npool/nimage =       8
     0 MiB available memory on the printing compute node when the environment starts

     Waiting for input...
     Reading input from standard input
Warning: card &CELL ignored
Warning: card CELL_DOFREE = 'ALL' ignored
Warning: card / ignored

     Current dimensions of program PWSCF are:
     Max number of different atomic species (ntypx) = 10
     Max number of k-points (npk) =  40000
     Max angular momentum in pseudopotentials (lmaxx) =  4

     IMPORTANT: XC functional enforced from input :
     Exchange-correlation= VDW-DF2-B86R
                           (   1   4  26   0   2   0   0)
     Any further DFT definition will be discarded
     Please, verify this is what you really want


     Subspace diagonalization in iterative solution of the eigenvalue problem:
     one sub-group per band group will be used
     scalapack distributed-memory algorithm (size of sub-group:  2*  2 procs)


     Parallelization info
     --------------------
     sticks:   dense  smooth     PW     G-vecs:    dense   smooth      PW
     Min          90      90     26                15600    15600    2466
     Max          91      91     28                15623    15623    2484
     Sum         721     721    211               124857   124857   19791

     Using Slab Decomposition



     bravais-lattice index     =            4
     lattice parameter (alat)  =       4.6651  a.u.
     unit-cell volume          =     703.4109 (a.u.)^3
     number of atoms/cell      =            4
     number of atomic types    =            1
     number of electrons       =        16.00
     number of Kohn-Sham states=           12
     kinetic-energy cutoff     =     120.0000  Ry
     charge density cutoff     =     480.0000  Ry
     scf convergence threshold =      1.0E-06
     mixing beta               =       0.7000
     number of iterations used =            8  plain     mixing
     energy convergence thresh.=      1.0E-04
     force convergence thresh. =      1.0E-03
     Exchange-correlation= VDW-DF2-B86R
                           (   1   4  26   0   2   0   0)
     nstep                     =           50


     celldm(1)=   4.665120  celldm(2)=   0.000000  celldm(3)=   8.000000
     celldm(4)=   0.000000  celldm(5)=   0.000000  celldm(6)=   0.000000

     crystal axes: (cart. coord. in units of alat)
               a(1) = (   1.000000   0.000000   0.000000 )  
               a(2) = (  -0.500000   0.866025   0.000000 )  
               a(3) = (   0.000000   0.000000   8.000000 )  

     reciprocal axes: (cart. coord. in units 2 pi/alat)
               b(1) = (  1.000000  0.577350 -0.000000 )  
               b(2) = (  0.000000  1.154701  0.000000 )  
               b(3) = (  0.000000 -0.000000  0.125000 )  


     PseudoPot. # 1 for C  read from file:
     ../../../../Pseudo/PBE/C.upf
     MD5 check sum: 34a24e64c0a39f27c6c36b90a16ac686
     Pseudo is Norm-conserving + core correction, Zval =  4.0
     Generated using ONCVPSP code by D. R. Hamann
     Using radial grid of 1248 points,  4 beta functions with: 
                l(1) =   0
                l(2) =   0
                l(3) =   1
                l(4) =   1

     atomic species   valence    mass     pseudopotential
        C              4.00    12.01100     C ( 1.00)

      6 Sym. Ops. (no inversion) found


                                    s                        frac. trans.

      isym =  1     identity                                     

 cryst.   s( 1) = (     1          0          0      )
                  (     0          1          0      )
                  (     0          0          1      )

 cart.    s( 1) = (  1.0000000  0.0000000  0.0000000 )
                  (  0.0000000  1.0000000  0.0000000 )
                  (  0.0000000  0.0000000  1.0000000 )


      isym =  2     120 deg rotation - cryst. axis [0,0,1]       

 cryst.   s( 2) = (     0          1          0      )
                  (    -1         -1          0      )
                  (     0          0          1      )

 cart.    s( 2) = ( -0.5000000 -0.8660254  0.0000000 )
                  (  0.8660254 -0.5000000  0.0000000 )
                  (  0.0000000  0.0000000  1.0000000 )


      isym =  3     120 deg rotation - cryst. axis [0,0,-1]      

 cryst.   s( 3) = (    -1         -1          0      )
                  (     1          0          0      )
                  (     0          0          1      )

 cart.    s( 3) = ( -0.5000000  0.8660254  0.0000000 )
                  ( -0.8660254 -0.5000000  0.0000000 )
                  (  0.0000000  0.0000000  1.0000000 )


      isym =  4     inv. 180 deg rotation - cart. axis [1,0,0]   

 cryst.   s( 4) = (    -1          0          0      )
                  (     1          1          0      )
                  (     0          0          1      )

 cart.    s( 4) = ( -1.0000000  0.0000000  0.0000000 )
                  (  0.0000000  1.0000000  0.0000000 )
                  (  0.0000000  0.0000000  1.0000000 )


      isym =  5     inv. 180 deg rotation - cryst. axis [0,1,0]  

 cryst.   s( 5) = (     1          1          0      )
                  (     0         -1          0      )
                  (     0          0          1      )

 cart.    s( 5) = (  0.5000000  0.8660254  0.0000000 )
                  (  0.8660254 -0.5000000  0.0000000 )
                  (  0.0000000  0.0000000  1.0000000 )


      isym =  6     inv. 180 deg rotation - cryst. axis [1,1,0]  

 cryst.   s( 6) = (     0         -1          0      )
                  (    -1          0          0      )
                  (     0          0          1      )

 cart.    s( 6) = (  0.5000000 -0.8660254  0.0000000 )
                  ( -0.8660254 -0.5000000  0.0000000 )
                  (  0.0000000  0.0000000  1.0000000 )


     point group C_3v (3m)  
     there are  3 classes
     the character table:

       E     2C3   3s_v 
A_1    1.00  1.00  1.00
A_2    1.00  1.00 -1.00
E      2.00 -1.00  0.00

     the symmetry operations in each class and the name of the first element:

     E        1
          identity                                               
     2C3      2    3
          120 deg rotation - cryst. axis [0,0,1]                 
     3s_v     4    5    6
          inv. 180 deg rotation - cart. axis [1,0,0]             

   Cartesian axes

     site n.     atom                  positions (alat units)
         1           C   tau(   1) = (   0.0000000   0.0000000   0.0000000  )
         2           C   tau(   2) = (   0.0000000   0.0000000   1.3400504  )
         3           C   tau(   3) = (   0.5000005   0.2886748   0.0000000  )
         4           C   tau(   4) = (  -0.0000005   0.5773506   1.3403051  )

   Crystallographic axes

     site n.     atom                  positions (cryst. coord.)
         1           C   tau(   1) = (  0.0000000  0.0000000  0.0000000  )
         2           C   tau(   2) = (  0.0000000  0.0000000  0.1675063  )
         3           C   tau(   3) = (  0.6666670  0.3333330  0.0000000  )
         4           C   tau(   4) = (  0.3333330  0.6666670  0.1675381  )

     number of k points=    19  Marzari-Vanderbilt smearing, width (Ry)=  0.0050
                       cart. coord. in units 2pi/alat
        k(    1) = (   0.0000000   0.0000000   0.0000000), wk =   0.0138889
        k(    2) = (   0.0000000   0.0962250   0.0000000), wk =   0.0833333
        k(    3) = (   0.0000000   0.1924501   0.0000000), wk =   0.0833333
        k(    4) = (   0.0000000   0.2886751   0.0000000), wk =   0.0833333
        k(    5) = (   0.0000000   0.3849002   0.0000000), wk =   0.0833333
        k(    6) = (   0.0000000   0.4811252   0.0000000), wk =   0.0833333
        k(    7) = (   0.0000000  -0.5773503   0.0000000), wk =   0.0416667
        k(    8) = (   0.0833333   0.1443376   0.0000000), wk =   0.0833333
        k(    9) = (   0.0833333   0.2405626   0.0000000), wk =   0.1666667
        k(   10) = (   0.0833333   0.3367877   0.0000000), wk =   0.1666667
        k(   11) = (   0.0833333   0.4330127   0.0000000), wk =   0.1666667
        k(   12) = (   0.0833333   0.5292377   0.0000000), wk =   0.1666667
        k(   13) = (   0.1666667   0.2886751   0.0000000), wk =   0.0833333
        k(   14) = (   0.1666667   0.3849002   0.0000000), wk =   0.1666667
        k(   15) = (   0.1666667   0.4811252   0.0000000), wk =   0.1666667
        k(   16) = (   0.1666667   0.5773503   0.0000000), wk =   0.0833333
        k(   17) = (   0.2500000   0.4330127   0.0000000), wk =   0.0833333
        k(   18) = (   0.2500000   0.5292377   0.0000000), wk =   0.1666667
        k(   19) = (   0.3333333   0.5773503   0.0000000), wk =   0.0277778

                       cryst. coord.
        k(    1) = (   0.0000000   0.0000000   0.0000000), wk =   0.0138889
        k(    2) = (   0.0000000   0.0833333   0.0000000), wk =   0.0833333
        k(    3) = (   0.0000000   0.1666667   0.0000000), wk =   0.0833333
        k(    4) = (   0.0000000   0.2500000   0.0000000), wk =   0.0833333
        k(    5) = (   0.0000000   0.3333333   0.0000000), wk =   0.0833333
        k(    6) = (   0.0000000   0.4166667   0.0000000), wk =   0.0833333
        k(    7) = (   0.0000000  -0.5000000   0.0000000), wk =   0.0416667
        k(    8) = (   0.0833333   0.0833333   0.0000000), wk =   0.0833333
        k(    9) = (   0.0833333   0.1666667   0.0000000), wk =   0.1666667
        k(   10) = (   0.0833333   0.2500000   0.0000000), wk =   0.1666667
        k(   11) = (   0.0833333   0.3333333   0.0000000), wk =   0.1666667
        k(   12) = (   0.0833333   0.4166667   0.0000000), wk =   0.1666667
        k(   13) = (   0.1666667   0.1666667   0.0000000), wk =   0.0833333
        k(   14) = (   0.1666667   0.2500000   0.0000000), wk =   0.1666667
        k(   15) = (   0.1666667   0.3333333   0.0000000), wk =   0.1666667
        k(   16) = (   0.1666667   0.4166667   0.0000000), wk =   0.0833333
        k(   17) = (   0.2500000   0.2500000   0.0000000), wk =   0.0833333
        k(   18) = (   0.2500000   0.3333333   0.0000000), wk =   0.1666667
        k(   19) = (   0.3333333   0.3333333   0.0000000), wk =   0.0277778

     Dense  grid:   124857 G-vectors     FFT dimensions: (  36,  36, 270)

     Dynamical RAM for                 wfc:       0.36 MB

     Dynamical RAM for     wfc (w. buffer):       7.14 MB

     Dynamical RAM for           str. fact:       0.24 MB

     Dynamical RAM for           local pot:       0.00 MB

     Dynamical RAM for          nlocal pot:       0.95 MB

     Dynamical RAM for                qrad:       0.50 MB

     Dynamical RAM for          rho,v,vnew:       1.72 MB

     Dynamical RAM for               rhoin:       0.57 MB

     Dynamical RAM for            rho*nmix:       3.81 MB

     Dynamical RAM for           G-vectors:       1.01 MB

     Dynamical RAM for          h,s,v(r/c):       0.01 MB

     Dynamical RAM for          <psi|beta>:       0.01 MB

     Dynamical RAM for                 psi:       0.71 MB

     Dynamical RAM for                hpsi:       0.71 MB

     Dynamical RAM for      wfcinit/wfcrot:       0.96 MB

     Estimated static dynamical RAM per process >      14.30 MB

     Estimated max dynamical RAM per process >      19.56 MB

     Estimated total dynamical RAM >     156.45 MB

     Initial potential from superposition of free atoms

     starting charge      15.9998, renormalised to      16.0000

     negative rho (up, down):  3.252E-06 0.000E+00


     %%%%%%%%%%%%%%%%%%%%%%%%%%%%%%%%%%%%%%%%%%%%%%%%%%%%%%%%%%%%%%%%%%%%%%%%
     %                                                                      %
     % You are using vdW-DF, which was implemented by the Thonhauser group. %
     % Please cite the following two papers that made this development      %
     % possible and the two reviews that describe the various versions:     %
     %                                                                      %
     %   T. Thonhauser et al., PRL 115, 136402 (2015).                      %
     %   T. Thonhauser et al., PRB 76, 125112 (2007).                       %
     %   K. Berland et al., Rep. Prog. Phys. 78, 066501 (2015).             %
     %   D.C. Langreth et al., J. Phys.: Condens. Matter 21, 084203 (2009). %
     %                                                                      %
     %                                                                      %
     % If you are calculating the stress with vdW-DF, please also cite:     %
     %                                                                      %
     %   R. Sabatini et al., J. Phys.: Condens. Matter 24, 424209 (2012).   %
     %                                                                      %
     %%%%%%%%%%%%%%%%%%%%%%%%%%%%%%%%%%%%%%%%%%%%%%%%%%%%%%%%%%%%%%%%%%%%%%%%


     Carrying out vdW-DF run using the following parameters:
     Nqs    =  20  Npoints =  1024  r_max =  100.000
     q_mesh =  0.00001000  0.04494208  0.09755937  0.15916263
               0.23128650  0.31572767  0.41458969  0.53033537
               0.66584808  0.82450364  1.01025438  1.22772762
               1.48234092  1.78043706  2.12944203  2.53805004
               3.01644009  3.57652955  4.23227104  5.00000000


     -----------------------------------------------
     Non-local corr. energy    =       0.17030388 Ry
     -----------------------------------------------

     Starting wfcs are   16 randomized atomic wfcs

     total cpu time spent up to now is        9.3 secs

     Self-consistent Calculation

     iteration #  1     ecut=   120.00 Ry     beta= 0.70
     Davidson diagonalization with overlap

---- Real-time Memory Report at c_bands before calling an iterative solver
             0 MiB given to the printing process from OS
             0 MiB allocation reported by mallinfo(arena+hblkhd)
             0 MiB available memory on the node where the printing process lives
------------------
     ethr =  1.00E-02,  avg # of iterations =  3.5


     -----------------------------------------------
     Non-local corr. energy    =       0.19373075 Ry
     -----------------------------------------------


     total cpu time spent up to now is       10.8 secs

     total energy              =     -48.21185621 Ry
     estimated scf accuracy    <       0.34568182 Ry

     iteration #  2     ecut=   120.00 Ry     beta= 0.70
     Davidson diagonalization with overlap

---- Real-time Memory Report at c_bands before calling an iterative solver
             0 MiB given to the printing process from OS
             0 MiB allocation reported by mallinfo(arena+hblkhd)
             0 MiB available memory on the node where the printing process lives
------------------
     ethr =  2.16E-03,  avg # of iterations =  4.0


     -----------------------------------------------
     Non-local corr. energy    =       0.19446637 Ry
     -----------------------------------------------


     total cpu time spent up to now is       12.1 secs

     total energy              =     -48.25405541 Ry
     estimated scf accuracy    <       0.00538104 Ry

     iteration #  3     ecut=   120.00 Ry     beta= 0.70
     Davidson diagonalization with overlap

---- Real-time Memory Report at c_bands before calling an iterative solver
             0 MiB given to the printing process from OS
             0 MiB allocation reported by mallinfo(arena+hblkhd)
             0 MiB available memory on the node where the printing process lives
------------------
     c_bands:  1 eigenvalues not converged
     ethr =  3.36E-05,  avg # of iterations = 11.2


     -----------------------------------------------
     Non-local corr. energy    =       0.19409354 Ry
     -----------------------------------------------


     total cpu time spent up to now is       14.5 secs

     total energy              =     -48.25534251 Ry
     estimated scf accuracy    <       0.00150236 Ry

     iteration #  4     ecut=   120.00 Ry     beta= 0.70
     Davidson diagonalization with overlap

---- Real-time Memory Report at c_bands before calling an iterative solver
             0 MiB given to the printing process from OS
             0 MiB allocation reported by mallinfo(arena+hblkhd)
             0 MiB available memory on the node where the printing process lives
------------------
     c_bands:  1 eigenvalues not converged
     ethr =  9.39E-06,  avg # of iterations =  6.1


     -----------------------------------------------
     Non-local corr. energy    =       0.19401748 Ry
     -----------------------------------------------


     total cpu time spent up to now is       16.2 secs

     WARNING: integrated charge=    16.00016649, expected=    16.00000000

     total energy              =     -48.25543405 Ry
     estimated scf accuracy    <       0.00236601 Ry

     iteration #  5     ecut=   120.00 Ry     beta= 0.70
     Davidson diagonalization with overlap

---- Real-time Memory Report at c_bands before calling an iterative solver
             0 MiB given to the printing process from OS
             0 MiB allocation reported by mallinfo(arena+hblkhd)
             0 MiB available memory on the node where the printing process lives
------------------
     ethr =  9.39E-06,  avg # of iterations =  4.6


     -----------------------------------------------
     Non-local corr. energy    =       0.19403252 Ry
     -----------------------------------------------


     total cpu time spent up to now is       17.5 secs

     WARNING: integrated charge=    16.00033689, expected=    16.00000000

     total energy              =     -48.25575688 Ry
     estimated scf accuracy    <       0.00200296 Ry

     iteration #  6     ecut=   120.00 Ry     beta= 0.70
     Davidson diagonalization with overlap

---- Real-time Memory Report at c_bands before calling an iterative solver
             0 MiB given to the printing process from OS
             0 MiB allocation reported by mallinfo(arena+hblkhd)
             0 MiB available memory on the node where the printing process lives
------------------
     ethr =  9.39E-06,  avg # of iterations =  2.9


     -----------------------------------------------
     Non-local corr. energy    =       0.19414959 Ry
     -----------------------------------------------


     total cpu time spent up to now is       18.7 secs

     WARNING: integrated charge=    16.00011473, expected=    16.00000000

     total energy              =     -48.25591812 Ry
     estimated scf accuracy    <       0.00002718 Ry

     iteration #  7     ecut=   120.00 Ry     beta= 0.70
     Davidson diagonalization with overlap

---- Real-time Memory Report at c_bands before calling an iterative solver
             0 MiB given to the printing process from OS
             0 MiB allocation reported by mallinfo(arena+hblkhd)
             0 MiB available memory on the node where the printing process lives
------------------
     ethr =  1.70E-07,  avg # of iterations =  3.8


     -----------------------------------------------
     Non-local corr. energy    =       0.19415053 Ry
     -----------------------------------------------


     total cpu time spent up to now is       20.0 secs

     WARNING: integrated charge=    16.00007531, expected=    16.00000000

     total energy              =     -48.25592333 Ry
     estimated scf accuracy    <       0.00001766 Ry

     iteration #  8     ecut=   120.00 Ry     beta= 0.70
     Davidson diagonalization with overlap

---- Real-time Memory Report at c_bands before calling an iterative solver
             0 MiB given to the printing process from OS
             0 MiB allocation reported by mallinfo(arena+hblkhd)
             0 MiB available memory on the node where the printing process lives
------------------
     ethr =  1.10E-07,  avg # of iterations =  1.3


     -----------------------------------------------
     Non-local corr. energy    =       0.19415084 Ry
     -----------------------------------------------


     total cpu time spent up to now is       21.0 secs

     End of self-consistent calculation

          k = 0.0000 0.0000 0.0000 ( 15581 PWs)   bands (ev):

   -20.1415 -19.9686  -8.7219  -7.6464  -3.6441  -3.6441  -3.6331  -3.6330
     2.5679   2.9928   4.1431   5.2646

     occupation numbers 
     1.0000   1.0000   1.0000   1.0000   1.0000   1.0000   1.0000   1.0000
     0.0000   0.0000   0.0000   0.0000

          k = 0.0000 0.0962 0.0000 ( 15560 PWs)   bands (ev):

   -19.9773 -19.8061  -8.5229  -7.4541  -4.2956  -4.2758  -3.9832  -3.9665
     2.7879   3.2145   4.3693   5.4891

     occupation numbers 
     1.0000   1.0000   1.0000   1.0000   1.0000   1.0000   1.0000   1.0000
     0.0000   0.0000   0.0000   0.0000

          k = 0.0000 0.1925 0.0000 ( 15554 PWs)   bands (ev):

   -19.4863 -19.3203  -7.9305  -6.8832  -5.9348  -5.8972  -4.7757  -4.7518
     3.4474   3.8780   5.0476   6.1611

     occupation numbers 
     1.0000   1.0000   1.0000   1.0000   1.0000   1.0000   1.0000   1.0000
     0.0000   0.0000   0.0000   0.0000

          k = 0.0000 0.2887 0.0000 ( 15612 PWs)   bands (ev):

   -18.6746 -18.5170  -8.0354  -7.9777  -6.9617  -5.9551  -5.6554  -5.6271
     4.5432   4.9676   6.1750   6.4707

     occupation numbers 
     1.0000   1.0000   1.0000   1.0000   1.0000   1.0000   1.0000   1.0000
     0.0000   0.0000   0.0000   0.0000

          k = 0.0000 0.3849 0.0000 ( 15654 PWs)   bands (ev):

   -17.5541 -17.4081 -10.2410 -10.1636  -6.3892  -6.3584  -5.6599  -4.7285
     4.0641   4.5752   6.0678   6.5408

     occupation numbers 
     1.0000   1.0000   1.0000   1.0000   1.0000   1.0000   1.0000   1.0000
     0.0000   0.0000   0.0000   0.0000

          k = 0.0000 0.4811 0.0000 ( 15634 PWs)   bands (ev):

   -16.1558 -16.0258 -12.3419 -12.2480  -6.8625  -6.8304  -4.1611  -3.4028
     1.9207   2.4789   6.8443   7.0602

     occupation numbers 
     1.0000   1.0000   1.0000   1.0000   1.0000   1.0000   1.0000   1.0000
     0.0000   0.0000   0.0000   0.0000

          k = 0.0000-0.5774 0.0000 ( 15610 PWs)   bands (ev):

   -14.8718 -14.8066 -13.8132 -13.7640  -7.0250  -6.9925  -3.1608  -2.7629
     0.9373   1.3187   6.7583   6.9863

     occupation numbers 
     1.0000   1.0000   1.0000   1.0000   1.0000   1.0000   1.0000   1.0000
     0.0000   0.0000   0.0000   0.0000

          k = 0.0833 0.1443 0.0000 ( 15550 PWs)   bands (ev):

   -19.6497 -19.4820  -8.1271  -7.0724  -5.3255  -5.3063  -4.6546  -4.6404
     3.2278   3.6573   4.8217   5.9378

     occupation numbers 
     1.0000   1.0000   1.0000   1.0000   1.0000   1.0000   1.0000   1.0000
     0.0000   0.0000   0.0000   0.0000

          k = 0.0833 0.2406 0.0000 ( 15567 PWs)   bands (ev):

   -18.9983 -18.8374  -7.3458  -7.0390  -6.9995  -6.3213  -5.6541  -5.6282
     4.1066   4.5389   5.7259   6.8301

     occupation numbers 
     1.0000   1.0000   1.0000   1.0000   1.0000   1.0000   1.0000   1.0000
     0.0000   0.0000   0.0000   0.0000

          k = 0.0833 0.3368 0.0000 ( 15618 PWs)   bands (ev):

   -18.0321 -17.8811  -9.1164  -9.0525  -6.5430  -6.5085  -6.2050  -5.2360
     5.1145   5.4149   5.5368   5.8976

     occupation numbers 
     1.0000   1.0000   1.0000   1.0000   1.0000   1.0000   1.0000   1.0000
     0.0000   0.0000   0.0000   0.0000

          k = 0.0833 0.4330 0.0000 ( 15647 PWs)   bands (ev):

   -16.7697 -16.6321 -11.2417 -11.1574  -7.1794  -7.1409  -4.7774  -3.9161
     2.8798   3.3949   7.1437   7.5578

     occupation numbers 
     1.0000   1.0000   1.0000   1.0000   1.0000   1.0000   1.0000   1.0000
     0.0000   0.0000   0.0000   0.0000

          k = 0.0833 0.5292 0.0000 ( 15644 PWs)   bands (ev):

   -15.2857 -15.1719 -13.1785 -13.0858  -7.5085  -7.4684  -3.3422  -2.7726
     1.1699   1.6131   7.4838   7.7212

     occupation numbers 
     1.0000   1.0000   1.0000   1.0000   1.0000   1.0000   1.0000   1.0000
     0.0000   0.0000   0.0000   0.0000

          k = 0.1667 0.2887 0.0000 ( 15608 PWs)   bands (ev):

   -18.1925 -18.0399  -8.3645  -8.3325  -7.0054  -6.9822  -6.3890  -5.4082
     5.2016   5.6318   5.6430   5.9169

     occupation numbers 
     1.0000   1.0000   1.0000   1.0000   1.0000   1.0000   1.0000   1.0000
     0.0000   0.0000   0.0000   0.0000

          k = 0.1667 0.3849 0.0000 ( 15631 PWs)   bands (ev):

   -17.0829 -16.9419 -10.0991 -10.0389  -8.0682  -8.0264  -5.1020  -4.1969
     3.6613   4.0168   6.7238   7.1453

     occupation numbers 
     1.0000   1.0000   1.0000   1.0000   1.0000   1.0000   1.0000   1.0000
     0.0000   0.0000   0.0000   0.0000

          k = 0.1667 0.4811 0.0000 ( 15638 PWs)   bands (ev):

   -15.7047 -15.5797 -12.0133 -11.9284  -8.6498  -8.5972  -3.6050  -2.8587
     1.7271   2.1510   8.6411   8.9829

     occupation numbers 
     1.0000   1.0000   1.0000   1.0000   1.0000   1.0000   1.0000   1.0000
     0.0000   0.0000   0.0000   0.0000

          k = 0.1667 0.5774 0.0000 ( 15640 PWs)   bands (ev):

   -14.4505 -14.3880 -13.4147 -13.3716  -8.8361  -8.7809  -2.5622  -2.1707
     0.8076   0.9911   9.2190   9.5296

     occupation numbers 
     1.0000   1.0000   1.0000   1.0000   1.0000   1.0000   1.0000   1.0000
     0.0000   0.0000   0.0000   0.0000

          k = 0.2500 0.4330 0.0000 ( 15658 PWs)   bands (ev):

   -15.8528 -15.7254 -11.1273 -11.0830  -9.5362  -9.5035  -3.7121  -2.9114
     2.0596   2.3988   8.4307   8.7354

     occupation numbers 
     1.0000   1.0000   1.0000   1.0000   1.0000   1.0000   1.0000   1.0000
     0.0000   0.0000   0.0000   0.0000

          k = 0.2500 0.5292 0.0000 ( 15617 PWs)   bands (ev):

   -14.4262 -14.3221 -12.5530 -12.4828 -10.2537 -10.1988  -2.2300  -1.6562
     0.5722   0.8797   9.9529  10.2518

     occupation numbers 
     1.0000   1.0000   1.0000   1.0000   1.0000   1.0000   1.0000   1.0000
     0.0000   0.0000   0.0000   0.0000

          k = 0.3333 0.5774 0.0000 ( 15606 PWs)   bands (ev):

   -13.2204 -13.1636 -13.1614 -13.1104 -11.1117 -11.1094  -0.9521  -0.5882
    -0.5860  -0.1961   9.8649   9.8668

     occupation numbers 
     1.0000   1.0000   1.0000   1.0000   1.0000   1.0000   1.0000   0.5119
     0.4881   0.0000   0.0000   0.0000

     the Fermi energy is    -0.5776 ev

!    total energy              =     -48.25592384 Ry
     estimated scf accuracy    <       0.00000055 Ry
     smearing contrib. (-TS)   =      -0.00004555 Ry
     internal energy E=F+TS    =     -48.25587828 Ry

     The total energy is F=E-TS. E is the sum of the following terms:
     one-electron contribution =    -529.01046027 Ry
     hartree contribution      =     268.17875692 Ry
     xc contribution           =     -17.21281409 Ry
     ewald contribution        =     229.78863915 Ry

     convergence has been achieved in   8 iterations


     -----------------------------------------------
     Non-local corr. energy    =       0.19415084 Ry
     -----------------------------------------------


     Forces acting on atoms (cartesian axes, Ry/au):

     atom    1 type  1   force =     0.00000000    0.00000000    0.00044114
     atom    2 type  1   force =     0.00000000    0.00000000   -0.00002779
     atom    3 type  1   force =     0.00000000    0.00000000   -0.00081343
     atom    4 type  1   force =     0.00000000    0.00000000    0.00040008
     The non-local contrib.  to forces
     atom    1 type  1   force =     0.00000000   -0.00000000    0.00061353
     atom    2 type  1   force =     0.00000000    0.00000000    0.00008360
     atom    3 type  1   force =     0.00000000    0.00000000   -0.00111355
     atom    4 type  1   force =     0.00000000    0.00000000    0.00018392
     The ionic contribution  to forces
     atom    1 type  1   force =     0.00000851   -0.00000491  -14.18911164
     atom    2 type  1   force =    -0.00000851    0.00000491   14.18179529
     atom    3 type  1   force =    -0.00000852    0.00000492  -14.18335740
     atom    4 type  1   force =     0.00000852   -0.00000492   14.19067374
     The local contribution  to forces
     atom    1 type  1   force =     0.00000000    0.00000000   14.18868766
     atom    2 type  1   force =     0.00000000   -0.00000000  -14.18323390
     atom    3 type  1   force =    -0.00000680    0.00000392   14.18332467
     atom    4 type  1   force =     0.00000679   -0.00000392  -14.19172243
     The core correction contribution to forces
     atom    1 type  1   force =    -0.00000000    0.00000000   -0.00009548
     atom    2 type  1   force =     0.00000000   -0.00000000    0.00009281
     atom    3 type  1   force =     0.00000053   -0.00000031   -0.00001781
     atom    4 type  1   force =    -0.00000053    0.00000031    0.00003141
     The Hubbard contrib.    to forces
     atom    1 type  1   force =     0.00000000    0.00000000    0.00000000
     atom    2 type  1   force =     0.00000000    0.00000000    0.00000000
     atom    3 type  1   force =     0.00000000    0.00000000    0.00000000
     atom    4 type  1   force =     0.00000000    0.00000000    0.00000000
     The SCF correction term to forces
     atom    1 type  1   force =     0.00000000   -0.00000000    0.00000000
     atom    2 type  1   force =     0.00000000   -0.00000000    0.00120753
     atom    3 type  1   force =     0.00000000   -0.00000000    0.00000000
     atom    4 type  1   force =     0.00000000   -0.00000000    0.00120655

     Total force =     0.000401     Total SCF correction =     0.001707
     SCF correction compared to forces is large: reduce conv_thr to get better values


     Computing stress (Cartesian axis) and pressure



     -----------------------------------------------
     Non-local corr. energy    =       0.19415084 Ry
     -----------------------------------------------

          total   stress  (Ry/bohr**3)                   (kbar)     P=        0.23
   0.00000107   0.00000000   0.00000000            0.16        0.00        0.00
   0.00000000   0.00000107  -0.00000000            0.00        0.16       -0.00
   0.00000000  -0.00000000   0.00000247            0.00       -0.00        0.36

     kinetic stress (kbar)   4524.61      0.00      0.00
                                0.00   4524.61     -0.00
                                0.00     -0.00   4980.74

     local   stress (kbar)-115071.97      0.00     -0.00
                                0.00-115071.96      0.00
                               -0.00      0.00 116421.07

     nonloc. stress (kbar)   -460.16      0.00      0.00
                                0.00   -460.16      0.00
                                0.00      0.00   -384.60

     hartree stress (kbar)  55736.93      0.00     -0.00
                                0.00  55736.93     -0.00
                               -0.00     -0.00 -55389.35

     exc-cor stress (kbar)   -360.03     -0.00      0.00
                               -0.00   -360.03     -0.00
                                0.00     -0.00   -419.56

     corecor stress (kbar)   -686.22      0.00     -0.00
                                0.00   -686.22      0.00
                               -0.00      0.00   -667.44

     ewald   stress (kbar)  56313.89     -0.01      0.00
                               -0.01  56313.88     -0.00
                                0.00     -0.00 -64571.82

     hubbard stress (kbar)      0.00      0.00      0.00
                                0.00      0.00      0.00
                                0.00      0.00      0.00

     DFT-D   stress (kbar)      0.00      0.00      0.00
                                0.00      0.00      0.00
                                0.00      0.00      0.00

     XDM     stress (kbar)      0.00      0.00      0.00
                                0.00      0.00      0.00
                                0.00      0.00      0.00

     dft-nl  stress (kbar)      3.10      0.00      0.00
                                0.00      3.10     -0.00
                                0.00     -0.00     31.33

     TS-vdW  stress (kbar)      0.00      0.00      0.00
                                0.00      0.00      0.00
                                0.00      0.00      0.00


                                0.00      0.00      0.00
                                0.00      0.00      0.00


                                0.00      0.00      0.00


     BFGS Geometry Optimization
     Energy error            =      0.0E+00 Ry
     Gradient error          =      4.0E-04 Ry/Bohr

     bfgs converged in   1 scf cycles and   0 bfgs steps
     (criteria: energy <  1.0E-04 Ry, force <  1.0E-03 Ry/Bohr)

     End of BFGS Geometry Optimization

     Final energy             =     -48.2559238381 Ry
Begin final coordinates

ATOMIC_POSITIONS (crystal)
C             0.0000000000        0.0000000000        0.0000000000    0   0   0
C             0.0000000000        0.0000000000        0.1675062966
C             0.6666670000        0.3333330000        0.0000000000    0   0   0
C             0.3333330000        0.6666670000        0.1675381404
End final coordinates



     Writing all to output data dir ./tmp/C2L_AB_PBE_vdW.save/

     init_run     :      9.19s CPU      9.24s WALL (       1 calls)
     electrons    :     11.80s CPU     11.70s WALL (       1 calls)
     forces       :      0.33s CPU      0.35s WALL (       1 calls)
     stress       :      0.79s CPU      0.83s WALL (       1 calls)

     Called by init_run:
     wfcinit      :      0.43s CPU      0.44s WALL (       1 calls)
     wfcinit:atom :      0.01s CPU      0.01s WALL (      19 calls)
     wfcinit:wfcr :      0.39s CPU      0.40s WALL (      19 calls)
     potinit      :      8.25s CPU      8.28s WALL (       1 calls)
     hinit0       :      0.34s CPU      0.35s WALL (       1 calls)

     Called by electrons:
     c_bands      :      9.53s CPU      9.22s WALL (       8 calls)
     sum_band     :      1.02s CPU      1.04s WALL (       8 calls)
     v_of_rho     :      9.40s CPU      9.59s WALL (       9 calls)
     v_h          :      0.01s CPU      0.01s WALL (       9 calls)
     v_xc         :      9.69s CPU      9.90s WALL (      11 calls)
     mix_rho      :      0.04s CPU      0.07s WALL (       8 calls)
     vdW_kernel   :      8.07s CPU      8.09s WALL (       1 calls)

     Called by c_bands:
     init_us_2    :      0.20s CPU      0.20s WALL (     361 calls)
     init_us_2:cp :      0.20s CPU      0.20s WALL (     361 calls)
     cegterg      :      9.23s CPU      8.91s WALL (     152 calls)

     Called by sum_band:
     sum_band:wei :      0.00s CPU      0.00s WALL (       8 calls)
     sum_band:loo :      0.99s CPU      1.01s WALL (       8 calls)
     sum_band:buf :      0.04s CPU      0.04s WALL (     152 calls)
     sum_band:ini :      0.09s CPU      0.09s WALL (     152 calls)

     Called by *egterg:
     cdiaghg      :      0.44s CPU      0.45s WALL (     863 calls)
     cegterg:over :      0.55s CPU      0.56s WALL (     711 calls)
     cegterg:upda :      0.64s CPU      0.70s WALL (     711 calls)
     cegterg:last :      0.64s CPU      0.52s WALL (     366 calls)
     cdiaghg:chol :      0.05s CPU      0.05s WALL (     863 calls)
     cdiaghg:inve :      0.01s CPU      0.01s WALL (     863 calls)
     cdiaghg:para :      0.06s CPU      0.06s WALL (    1726 calls)
     h_psi        :      7.07s CPU      6.76s WALL (     882 calls)
     g_psi        :      0.04s CPU      0.04s WALL (     711 calls)

     Called by h_psi:
     h_psi:calbec :      0.66s CPU      0.58s WALL (     882 calls)
     vloc_psi     :      5.53s CPU      5.62s WALL (     882 calls)
     add_vuspsi   :      0.81s CPU      0.49s WALL (     882 calls)

     General routines
     calbec       :      0.74s CPU      0.65s WALL (     977 calls)
     fft          :      0.92s CPU      0.94s WALL (     708 calls)
     ffts         :      0.01s CPU      0.01s WALL (       8 calls)
     fftw         :      5.41s CPU      5.49s WALL (   12910 calls)

     Parallel routines

     PWSCF        :     22.19s CPU     22.25s WALL


   This run was terminated on:  14:41:34  14Apr2025            

=------------------------------------------------------------------------------=
   JOB DONE.
=------------------------------------------------------------------------------=
