
     Program PWSCF v.7.2 starts on  8Apr2024 at 15:23: 2 

     This program is part of the open-source Quantum ESPRESSO suite
     for quantum simulation of materials; please cite
         "P. Giannozzi et al., J. Phys.:Condens. Matter 21 395502 (2009);
         "P. Giannozzi et al., J. Phys.:Condens. Matter 29 465901 (2017);
         "P. Giannozzi et al., J. Chem. Phys. 152 154105 (2020);
          URL http://www.quantum-espresso.org", 
     in publications or presentations arising from this work. More details at
     http://www.quantum-espresso.org/quote

     Parallel version (MPI & OpenMP), running on       8 processor cores
     Number of MPI processes:                 8
     Threads/MPI process:                     1

     MPI processes distributed on     1 nodes
     0 MiB available memory on the printing compute node when the environment starts

     Waiting for input...
     Reading input from standard input

     Current dimensions of program PWSCF are:
     Max number of different atomic species (ntypx) = 10
     Max number of k-points (npk) =  40000
     Max angular momentum in pseudopotentials (lmaxx) =  4

     IMPORTANT: XC functional enforced from input :
     Exchange-correlation= VDW-DF2-B86R
                           (   1   4  26   0   2   0   0)
     Any further DFT definition will be discarded
     Please, verify this is what you really want


     R & G space division:  proc/nbgrp/npool/nimage =       8
     Subspace diagonalization in iterative solution of the eigenvalue problem:
     a serial algorithm will be used


     Parallelization info
     --------------------
     sticks:   dense  smooth     PW     G-vecs:    dense   smooth      PW
     Min          87      87     24                11417    11417    1762
     Max          88      88     25                11438    11438    1793
     Sum         703     703    199                91471    91471   14295

     Using Slab Decomposition



     bravais-lattice index     =            4
     lattice parameter (alat)  =       4.6350  a.u.
     unit-cell volume          =     517.4056 (a.u.)^3
     number of atoms/cell      =            2
     number of atomic types    =            1
     number of electrons       =         8.00
     number of Kohn-Sham states=            8
     kinetic-energy cutoff     =     120.0000  Ry
     charge density cutoff     =     480.0000  Ry
     scf convergence threshold =      1.0E-06
     mixing beta               =       0.7000
     number of iterations used =            8  plain     mixing
     energy convergence thresh.=      1.0E-04
     force convergence thresh. =      1.0E-03
     press convergence thresh. =      5.0E-01
     Exchange-correlation= VDW-DF2-B86R
                           (   1   4  26   0   2   0   0)
     nstep                     =           50


     celldm(1)=   4.635000  celldm(2)=   0.000000  celldm(3)=   6.000000
     celldm(4)=   0.000000  celldm(5)=   0.000000  celldm(6)=   0.000000

     crystal axes: (cart. coord. in units of alat)
               a(1) = (   1.000000   0.000000   0.000000 )  
               a(2) = (  -0.500000   0.866025   0.000000 )  
               a(3) = (   0.000000   0.000000   6.000000 )  

     reciprocal axes: (cart. coord. in units 2 pi/alat)
               b(1) = (  1.000000  0.577350 -0.000000 )  
               b(2) = (  0.000000  1.154701  0.000000 )  
               b(3) = (  0.000000 -0.000000  0.166667 )  


     PseudoPot. # 1 for C  read from file:
     ../../../Pseudo/PBE/C.upf
     MD5 check sum: 34a24e64c0a39f27c6c36b90a16ac686
     Pseudo is Norm-conserving + core correction, Zval =  4.0
     Generated using ONCVPSP code by D. R. Hamann
     Using radial grid of 1248 points,  4 beta functions with: 
                l(1) =   0
                l(2) =   0
                l(3) =   1
                l(4) =   1

     atomic species   valence    mass     pseudopotential
        C              4.00    12.01100     C ( 1.00)

     24 Sym. Ops., with inversion, found (12 have fractional translation)


                                    s                        frac. trans.

      isym =  1     identity                                     

 cryst.   s( 1) = (     1          0          0      )
                  (     0          1          0      )
                  (     0          0          1      )

 cart.    s( 1) = (  1.0000000  0.0000000  0.0000000 )
                  (  0.0000000  1.0000000  0.0000000 )
                  (  0.0000000  0.0000000  1.0000000 )


      isym =  2     180 deg rotation - cart. axis [0,0,1]        

 cryst.   s( 2) = (    -1          0          0      )    f =( -0.3333333 )
                  (     0         -1          0      )       (  0.3333333 )
                  (     0          0          1      )       (  0.0000000 )

 cart.    s( 2) = ( -1.0000000  0.0000000  0.0000000 )    f =( -0.5000000 )
                  (  0.0000000 -1.0000000  0.0000000 )       (  0.2886751 )
                  (  0.0000000  0.0000000  1.0000000 )       (  0.0000000 )


      isym =  3     180 deg rotation - cart. axis [0,1,0]        

 cryst.   s( 3) = (    -1          0          0      )
                  (     1          1          0      )
                  (     0          0         -1      )

 cart.    s( 3) = ( -1.0000000  0.0000000  0.0000000 )
                  (  0.0000000  1.0000000  0.0000000 )
                  (  0.0000000  0.0000000 -1.0000000 )


      isym =  4     180 deg rotation - cart. axis [1,0,0]        

 cryst.   s( 4) = (     1          0          0      )    f =( -0.3333333 )
                  (    -1         -1          0      )       (  0.3333333 )
                  (     0          0         -1      )       (  0.0000000 )

 cart.    s( 4) = (  1.0000000  0.0000000  0.0000000 )    f =( -0.5000000 )
                  (  0.0000000 -1.0000000  0.0000000 )       (  0.2886751 )
                  (  0.0000000  0.0000000 -1.0000000 )       (  0.0000000 )


      isym =  5      60 deg rotation - cryst. axis [0,0,1]       

 cryst.   s( 5) = (     1          1          0      )    f =( -0.3333333 )
                  (    -1          0          0      )       (  0.3333333 )
                  (     0          0          1      )       (  0.0000000 )

 cart.    s( 5) = (  0.5000000 -0.8660254  0.0000000 )    f =( -0.5000000 )
                  (  0.8660254  0.5000000  0.0000000 )       (  0.2886751 )
                  (  0.0000000  0.0000000  1.0000000 )       (  0.0000000 )


      isym =  6      60 deg rotation - cryst. axis [0,0,-1]      

 cryst.   s( 6) = (     0         -1          0      )    f =( -0.3333333 )
                  (     1          1          0      )       (  0.3333333 )
                  (     0          0          1      )       (  0.0000000 )

 cart.    s( 6) = (  0.5000000  0.8660254  0.0000000 )    f =( -0.5000000 )
                  ( -0.8660254  0.5000000  0.0000000 )       (  0.2886751 )
                  (  0.0000000  0.0000000  1.0000000 )       (  0.0000000 )


      isym =  7     120 deg rotation - cryst. axis [0,0,1]       

 cryst.   s( 7) = (     0          1          0      )
                  (    -1         -1          0      )
                  (     0          0          1      )

 cart.    s( 7) = ( -0.5000000 -0.8660254  0.0000000 )
                  (  0.8660254 -0.5000000  0.0000000 )
                  (  0.0000000  0.0000000  1.0000000 )


      isym =  8     120 deg rotation - cryst. axis [0,0,-1]      

 cryst.   s( 8) = (    -1         -1          0      )
                  (     1          0          0      )
                  (     0          0          1      )

 cart.    s( 8) = ( -0.5000000  0.8660254  0.0000000 )
                  ( -0.8660254 -0.5000000  0.0000000 )
                  (  0.0000000  0.0000000  1.0000000 )


      isym =  9     180 deg rotation - cryst. axis [1,-1,0]      

 cryst.   s( 9) = (     0         -1          0      )
                  (    -1          0          0      )
                  (     0          0         -1      )

 cart.    s( 9) = (  0.5000000 -0.8660254  0.0000000 )
                  ( -0.8660254 -0.5000000  0.0000000 )
                  (  0.0000000  0.0000000 -1.0000000 )


      isym = 10     180 deg rotation - cryst. axis [2,1,0]       

 cryst.   s(10) = (     1          1          0      )
                  (     0         -1          0      )
                  (     0          0         -1      )

 cart.    s(10) = (  0.5000000  0.8660254  0.0000000 )
                  (  0.8660254 -0.5000000  0.0000000 )
                  (  0.0000000  0.0000000 -1.0000000 )


      isym = 11     180 deg rotation - cryst. axis [0,1,0]       

 cryst.   s(11) = (    -1         -1          0      )    f =( -0.3333333 )
                  (     0          1          0      )       (  0.3333333 )
                  (     0          0         -1      )       (  0.0000000 )

 cart.    s(11) = ( -0.5000000 -0.8660254  0.0000000 )    f =( -0.5000000 )
                  ( -0.8660254  0.5000000  0.0000000 )       (  0.2886751 )
                  (  0.0000000  0.0000000 -1.0000000 )       (  0.0000000 )


      isym = 12     180 deg rotation - cryst. axis [1,1,0]       

 cryst.   s(12) = (     0          1          0      )    f =( -0.3333333 )
                  (     1          0          0      )       (  0.3333333 )
                  (     0          0         -1      )       (  0.0000000 )

 cart.    s(12) = ( -0.5000000  0.8660254  0.0000000 )    f =( -0.5000000 )
                  (  0.8660254  0.5000000  0.0000000 )       (  0.2886751 )
                  (  0.0000000  0.0000000 -1.0000000 )       (  0.0000000 )


      isym = 13     inversion                                    

 cryst.   s(13) = (    -1          0          0      )    f =( -0.3333333 )
                  (     0         -1          0      )       (  0.3333333 )
                  (     0          0         -1      )       (  0.0000000 )

 cart.    s(13) = ( -1.0000000  0.0000000  0.0000000 )    f =( -0.5000000 )
                  (  0.0000000 -1.0000000  0.0000000 )       (  0.2886751 )
                  (  0.0000000  0.0000000 -1.0000000 )       (  0.0000000 )


      isym = 14     inv. 180 deg rotation - cart. axis [0,0,1]   

 cryst.   s(14) = (     1          0          0      )
                  (     0          1          0      )
                  (     0          0         -1      )

 cart.    s(14) = (  1.0000000  0.0000000  0.0000000 )
                  (  0.0000000  1.0000000  0.0000000 )
                  (  0.0000000  0.0000000 -1.0000000 )


      isym = 15     inv. 180 deg rotation - cart. axis [0,1,0]   

 cryst.   s(15) = (     1          0          0      )    f =( -0.3333333 )
                  (    -1         -1          0      )       (  0.3333333 )
                  (     0          0          1      )       (  0.0000000 )

 cart.    s(15) = (  1.0000000  0.0000000  0.0000000 )    f =( -0.5000000 )
                  (  0.0000000 -1.0000000  0.0000000 )       (  0.2886751 )
                  (  0.0000000  0.0000000  1.0000000 )       (  0.0000000 )


      isym = 16     inv. 180 deg rotation - cart. axis [1,0,0]   

 cryst.   s(16) = (    -1          0          0      )
                  (     1          1          0      )
                  (     0          0          1      )

 cart.    s(16) = ( -1.0000000  0.0000000  0.0000000 )
                  (  0.0000000  1.0000000  0.0000000 )
                  (  0.0000000  0.0000000  1.0000000 )


      isym = 17     inv.  60 deg rotation - cryst. axis [0,0,1]  

 cryst.   s(17) = (    -1         -1          0      )
                  (     1          0          0      )
                  (     0          0         -1      )

 cart.    s(17) = ( -0.5000000  0.8660254  0.0000000 )
                  ( -0.8660254 -0.5000000  0.0000000 )
                  (  0.0000000  0.0000000 -1.0000000 )


      isym = 18     inv.  60 deg rotation - cryst. axis [0,0,-1] 

 cryst.   s(18) = (     0          1          0      )
                  (    -1         -1          0      )
                  (     0          0         -1      )

 cart.    s(18) = ( -0.5000000 -0.8660254  0.0000000 )
                  (  0.8660254 -0.5000000  0.0000000 )
                  (  0.0000000  0.0000000 -1.0000000 )


      isym = 19     inv. 120 deg rotation - cryst. axis [0,0,1]  

 cryst.   s(19) = (     0         -1          0      )    f =( -0.3333333 )
                  (     1          1          0      )       (  0.3333333 )
                  (     0          0         -1      )       (  0.0000000 )

 cart.    s(19) = (  0.5000000  0.8660254  0.0000000 )    f =( -0.5000000 )
                  ( -0.8660254  0.5000000  0.0000000 )       (  0.2886751 )
                  (  0.0000000  0.0000000 -1.0000000 )       (  0.0000000 )


      isym = 20     inv. 120 deg rotation - cryst. axis [0,0,-1] 

 cryst.   s(20) = (     1          1          0      )    f =( -0.3333333 )
                  (    -1          0          0      )       (  0.3333333 )
                  (     0          0         -1      )       (  0.0000000 )

 cart.    s(20) = (  0.5000000 -0.8660254  0.0000000 )    f =( -0.5000000 )
                  (  0.8660254  0.5000000  0.0000000 )       (  0.2886751 )
                  (  0.0000000  0.0000000 -1.0000000 )       (  0.0000000 )


      isym = 21     inv. 180 deg rotation - cryst. axis [1,-1,0] 

 cryst.   s(21) = (     0          1          0      )    f =( -0.3333333 )
                  (     1          0          0      )       (  0.3333333 )
                  (     0          0          1      )       (  0.0000000 )

 cart.    s(21) = ( -0.5000000  0.8660254  0.0000000 )    f =( -0.5000000 )
                  (  0.8660254  0.5000000  0.0000000 )       (  0.2886751 )
                  (  0.0000000  0.0000000  1.0000000 )       (  0.0000000 )


      isym = 22     inv. 180 deg rotation - cryst. axis [2,1,0]  

 cryst.   s(22) = (    -1         -1          0      )    f =( -0.3333333 )
                  (     0          1          0      )       (  0.3333333 )
                  (     0          0          1      )       (  0.0000000 )

 cart.    s(22) = ( -0.5000000 -0.8660254  0.0000000 )    f =( -0.5000000 )
                  ( -0.8660254  0.5000000  0.0000000 )       (  0.2886751 )
                  (  0.0000000  0.0000000  1.0000000 )       (  0.0000000 )


      isym = 23     inv. 180 deg rotation - cryst. axis [0,1,0]  

 cryst.   s(23) = (     1          1          0      )
                  (     0         -1          0      )
                  (     0          0          1      )

 cart.    s(23) = (  0.5000000  0.8660254  0.0000000 )
                  (  0.8660254 -0.5000000  0.0000000 )
                  (  0.0000000  0.0000000  1.0000000 )


      isym = 24     inv. 180 deg rotation - cryst. axis [1,1,0]  

 cryst.   s(24) = (     0         -1          0      )
                  (    -1          0          0      )
                  (     0          0          1      )

 cart.    s(24) = (  0.5000000 -0.8660254  0.0000000 )
                  ( -0.8660254 -0.5000000  0.0000000 )
                  (  0.0000000  0.0000000  1.0000000 )


     point group D_6h(6/mmm)
     there are 12 classes
     the character table:

       E     2C6   2C3   C2    3C2'  3C2'' i     2S3   2S6   s_h   3s_d  3s_v 
A_1g   1.00  1.00  1.00  1.00  1.00  1.00  1.00  1.00  1.00  1.00  1.00  1.00
A_2g   1.00  1.00  1.00  1.00 -1.00 -1.00  1.00  1.00  1.00  1.00 -1.00 -1.00
B_1g   1.00 -1.00  1.00 -1.00  1.00 -1.00  1.00 -1.00  1.00 -1.00  1.00 -1.00
B_2g   1.00 -1.00  1.00 -1.00 -1.00  1.00  1.00 -1.00  1.00 -1.00 -1.00  1.00
E_1g   2.00  1.00 -1.00 -2.00  0.00  0.00  2.00  1.00 -1.00 -2.00  0.00  0.00
E_2g   2.00 -1.00 -1.00  2.00  0.00  0.00  2.00 -1.00 -1.00  2.00  0.00  0.00
A_1u   1.00  1.00  1.00  1.00  1.00  1.00 -1.00 -1.00 -1.00 -1.00 -1.00 -1.00
A_2u   1.00  1.00  1.00  1.00 -1.00 -1.00 -1.00 -1.00 -1.00 -1.00  1.00  1.00
B_1u   1.00 -1.00  1.00 -1.00  1.00 -1.00 -1.00  1.00 -1.00  1.00 -1.00  1.00
B_2u   1.00 -1.00  1.00 -1.00 -1.00  1.00 -1.00  1.00 -1.00  1.00  1.00 -1.00
E_1u   2.00  1.00 -1.00 -2.00  0.00  0.00 -2.00 -1.00  1.00  2.00  0.00  0.00
E_2u   2.00 -1.00 -1.00  2.00  0.00  0.00 -2.00  1.00  1.00 -2.00  0.00  0.00

     the symmetry operations in each class and the name of the first element:

     E        1
          identity                                               
     2C6      5    6
           60 deg rotation - cryst. axis [0,0,1]                 
     2C3      7    8
          120 deg rotation - cryst. axis [0,0,1]                 
     C2       2
          180 deg rotation - cart. axis [0,0,1]                  
     3C2'     4   12   11
          180 deg rotation - cart. axis [1,0,0]                  
     3C2''    3    9   10
          180 deg rotation - cart. axis [0,1,0]                  
     i       13
          inversion                                              
     2S3     17   18
          inv.  60 deg rotation - cryst. axis [0,0,1]            
     2S6     19   20
          inv. 120 deg rotation - cryst. axis [0,0,1]            
     s_h     14
          inv. 180 deg rotation - cart. axis [0,0,1]             
     3s_d    16   24   23
          inv. 180 deg rotation - cart. axis [1,0,0]             
     3s_v    15   21   22
          inv. 180 deg rotation - cart. axis [0,1,0]             

   Cartesian axes

     site n.     atom                  positions (alat units)
         1           C   tau(   1) = (   0.0000000   0.0000000   0.0000000  )
         2           C   tau(   2) = (  -0.0000000   0.5773503   0.0000000  )

   Crystallographic axes

     site n.     atom                  positions (cryst. coord.)
         1           C   tau(   1) = (  0.0000000  0.0000000  0.0000000  )
         2           C   tau(   2) = (  0.3333333  0.6666667  0.0000000  )

     number of k points=    30  Marzari-Vanderbilt smearing, width (Ry)=  0.0050
                       cart. coord. in units 2pi/alat
        k(    1) = (   0.0000000   0.0000000   0.0000000), wk =   0.0078125
        k(    2) = (   0.0000000   0.0721688   0.0000000), wk =   0.0468750
        k(    3) = (   0.0000000   0.1443376   0.0000000), wk =   0.0468750
        k(    4) = (   0.0000000   0.2165064   0.0000000), wk =   0.0468750
        k(    5) = (   0.0000000   0.2886751   0.0000000), wk =   0.0468750
        k(    6) = (   0.0000000   0.3608439   0.0000000), wk =   0.0468750
        k(    7) = (   0.0000000   0.4330127   0.0000000), wk =   0.0468750
        k(    8) = (   0.0000000   0.5051815   0.0000000), wk =   0.0468750
        k(    9) = (   0.0000000  -0.5773503   0.0000000), wk =   0.0234375
        k(   10) = (   0.0625000   0.1082532   0.0000000), wk =   0.0468750
        k(   11) = (   0.0625000   0.1804220   0.0000000), wk =   0.0937500
        k(   12) = (   0.0625000   0.2525907   0.0000000), wk =   0.0937500
        k(   13) = (   0.0625000   0.3247595   0.0000000), wk =   0.0937500
        k(   14) = (   0.0625000   0.3969283   0.0000000), wk =   0.0937500
        k(   15) = (   0.0625000   0.4690971   0.0000000), wk =   0.0937500
        k(   16) = (   0.0625000   0.5412659   0.0000000), wk =   0.0937500
        k(   17) = (   0.1250000   0.2165064   0.0000000), wk =   0.0468750
        k(   18) = (   0.1250000   0.2886751   0.0000000), wk =   0.0937500
        k(   19) = (   0.1250000   0.3608439   0.0000000), wk =   0.0937500
        k(   20) = (   0.1250000   0.4330127   0.0000000), wk =   0.0937500
        k(   21) = (   0.1250000   0.5051815   0.0000000), wk =   0.0937500
        k(   22) = (   0.1250000   0.5773503   0.0000000), wk =   0.0468750
        k(   23) = (   0.1875000   0.3247595   0.0000000), wk =   0.0468750
        k(   24) = (   0.1875000   0.3969283   0.0000000), wk =   0.0937500
        k(   25) = (   0.1875000   0.4690971   0.0000000), wk =   0.0937500
        k(   26) = (   0.1875000   0.5412659   0.0000000), wk =   0.0937500
        k(   27) = (   0.2500000   0.4330127   0.0000000), wk =   0.0468750
        k(   28) = (   0.2500000   0.5051815   0.0000000), wk =   0.0937500
        k(   29) = (   0.2500000   0.5773503   0.0000000), wk =   0.0468750
        k(   30) = (   0.3125000   0.5412659   0.0000000), wk =   0.0468750

                       cryst. coord.
        k(    1) = (   0.0000000   0.0000000   0.0000000), wk =   0.0078125
        k(    2) = (   0.0000000   0.0625000   0.0000000), wk =   0.0468750
        k(    3) = (   0.0000000   0.1250000   0.0000000), wk =   0.0468750
        k(    4) = (   0.0000000   0.1875000   0.0000000), wk =   0.0468750
        k(    5) = (   0.0000000   0.2500000   0.0000000), wk =   0.0468750
        k(    6) = (   0.0000000   0.3125000   0.0000000), wk =   0.0468750
        k(    7) = (   0.0000000   0.3750000   0.0000000), wk =   0.0468750
        k(    8) = (   0.0000000   0.4375000   0.0000000), wk =   0.0468750
        k(    9) = (   0.0000000  -0.5000000   0.0000000), wk =   0.0234375
        k(   10) = (   0.0625000   0.0625000   0.0000000), wk =   0.0468750
        k(   11) = (   0.0625000   0.1250000   0.0000000), wk =   0.0937500
        k(   12) = (   0.0625000   0.1875000   0.0000000), wk =   0.0937500
        k(   13) = (   0.0625000   0.2500000   0.0000000), wk =   0.0937500
        k(   14) = (   0.0625000   0.3125000   0.0000000), wk =   0.0937500
        k(   15) = (   0.0625000   0.3750000   0.0000000), wk =   0.0937500
        k(   16) = (   0.0625000   0.4375000   0.0000000), wk =   0.0937500
        k(   17) = (   0.1250000   0.1250000   0.0000000), wk =   0.0468750
        k(   18) = (   0.1250000   0.1875000   0.0000000), wk =   0.0937500
        k(   19) = (   0.1250000   0.2500000   0.0000000), wk =   0.0937500
        k(   20) = (   0.1250000   0.3125000   0.0000000), wk =   0.0937500
        k(   21) = (   0.1250000   0.3750000   0.0000000), wk =   0.0937500
        k(   22) = (   0.1250000   0.4375000   0.0000000), wk =   0.0468750
        k(   23) = (   0.1875000   0.1875000   0.0000000), wk =   0.0468750
        k(   24) = (   0.1875000   0.2500000   0.0000000), wk =   0.0937500
        k(   25) = (   0.1875000   0.3125000   0.0000000), wk =   0.0937500
        k(   26) = (   0.1875000   0.3750000   0.0000000), wk =   0.0937500
        k(   27) = (   0.2500000   0.2500000   0.0000000), wk =   0.0468750
        k(   28) = (   0.2500000   0.3125000   0.0000000), wk =   0.0937500
        k(   29) = (   0.2500000   0.3750000   0.0000000), wk =   0.0468750
        k(   30) = (   0.3125000   0.3125000   0.0000000), wk =   0.0468750

     Dense  grid:    91471 G-vectors     FFT dimensions: (  36,  36, 200)

     Dynamical RAM for                 wfc:       0.18 MB

     Dynamical RAM for     wfc (w. buffer):       5.43 MB

     Dynamical RAM for           str. fact:       0.17 MB

     Dynamical RAM for           local pot:       0.00 MB

     Dynamical RAM for          nlocal pot:       0.35 MB

     Dynamical RAM for                qrad:       1.00 MB

     Dynamical RAM for          rho,v,vnew:       1.26 MB

     Dynamical RAM for               rhoin:       0.42 MB

     Dynamical RAM for            rho*nmix:       2.79 MB

     Dynamical RAM for           G-vectors:       0.74 MB

     Dynamical RAM for          h,s,v(r/c):       0.01 MB

     Dynamical RAM for          <psi|beta>:       0.00 MB

     Dynamical RAM for                 psi:       0.35 MB

     Dynamical RAM for                hpsi:       0.35 MB

     Dynamical RAM for      wfcinit/wfcrot:       0.35 MB

     Estimated static dynamical RAM per process >      10.97 MB

     Estimated max dynamical RAM per process >      14.47 MB

     Estimated total dynamical RAM >     115.77 MB

     Initial potential from superposition of free atoms

     starting charge       7.9999, renormalised to       8.0000

     negative rho (up, down):  1.965E-06 0.000E+00


     %%%%%%%%%%%%%%%%%%%%%%%%%%%%%%%%%%%%%%%%%%%%%%%%%%%%%%%%%%%%%%%%%%%%%%%%
     %                                                                      %
     % You are using vdW-DF, which was implemented by the Thonhauser group. %
     % Please cite the following two papers that made this development      %
     % possible and the two reviews that describe the various versions:     %
     %                                                                      %
     %   T. Thonhauser et al., PRL 115, 136402 (2015).                      %
     %   T. Thonhauser et al., PRB 76, 125112 (2007).                       %
     %   K. Berland et al., Rep. Prog. Phys. 78, 066501 (2015).             %
     %   D.C. Langreth et al., J. Phys.: Condens. Matter 21, 084203 (2009). %
     %                                                                      %
     % If you are calculating stress with vdW-DF, please also cite:         %
     %                                                                      %
     %   R. Sabatini et al., J. Phys.: Condens. Matter 24, 424209 (2012).   %
     %                                                                      %
     %%%%%%%%%%%%%%%%%%%%%%%%%%%%%%%%%%%%%%%%%%%%%%%%%%%%%%%%%%%%%%%%%%%%%%%%

     %%%%%%%%%%%%%%%%%%%%%%%%%%%%%%%%%%%%%%%%%%%%%%%%%%%%%%%%%%%%%%%%%%%%%%%%
     %                                                                      %
     %  vdW-DF NEWS:                                                        %
     %                                                                      %
     %  * vdW-DF3 is now available. DOI: 10.1021/acs.jctc.0c00471           %
     %    use with input_dft = 'vdW-DF3-opt1' or 'vdW-DF3-opt2'             %
     %                                                                      %
     %  * Unscreened and range-separated hybrid vdW-DF-cx functionals       %
     %    DOI: 10.1063/1.4986522 and 10.1088/1361-648X/ac2ad2               %
     %    use with input_dft = 'vdW-DF-cx0'    and 'vdW-DF-ahcx'            %
     %  * Unscreened and range-separated hybrid vdW-DF2-b86r functionals    %
     %    DOI: 10.1063/1.4986522 and DOI: 10.1103/PhysRevX.12.041003        %
     %    use with input_dft = 'vdW-DF2-br0' and 'vdW-DF2-ahbr'             %
     %                                                                      %
     %%%%%%%%%%%%%%%%%%%%%%%%%%%%%%%%%%%%%%%%%%%%%%%%%%%%%%%%%%%%%%%%%%%%%%%%


     Carrying out vdW-DF run using the following parameters:
     Nqs    =  20  Npoints =  1024  r_max =  100.000
     q_mesh =  0.00001000  0.04494208  0.09755937  0.15916263
               0.23128650  0.31572767  0.41458969  0.53033537
               0.66584808  0.82450364  1.01025438  1.22772762
               1.48234092  1.78043706  2.12944203  2.53805004
               3.01644009  3.57652955  4.23227104  5.00000000


     -----------------------------------------------
     Non-local corr. energy    =       0.09347212 Ry
     -----------------------------------------------

     Starting wfcs are    8 randomized atomic wfcs

     total cpu time spent up to now is       10.6 secs

     Self-consistent Calculation

     iteration #  1     ecut=   120.00 Ry     beta= 0.70
     Davidson diagonalization with overlap

---- Real-time Memory Report at c_bands before calling an iterative solver
             0 MiB given to the printing process from OS
             0 MiB allocation reported by mallinfo(arena+hblkhd)
             0 MiB available memory on the node where the printing process lives
------------------
     ethr =  1.00E-02,  avg # of iterations =  5.8


     -----------------------------------------------
     Non-local corr. energy    =       0.10398335 Ry
     -----------------------------------------------


     total cpu time spent up to now is       12.0 secs

     total energy              =     -24.09270082 Ry
     estimated scf accuracy    <       0.20289789 Ry

     iteration #  2     ecut=   120.00 Ry     beta= 0.70
     Davidson diagonalization with overlap

---- Real-time Memory Report at c_bands before calling an iterative solver
             0 MiB given to the printing process from OS
             0 MiB allocation reported by mallinfo(arena+hblkhd)
             0 MiB available memory on the node where the printing process lives
------------------
     ethr =  2.54E-03,  avg # of iterations =  4.1


     -----------------------------------------------
     Non-local corr. energy    =       0.10368350 Ry
     -----------------------------------------------


     total cpu time spent up to now is       13.2 secs

     total energy              =     -24.12339770 Ry
     estimated scf accuracy    <       0.00238374 Ry

     iteration #  3     ecut=   120.00 Ry     beta= 0.70
     Davidson diagonalization with overlap

---- Real-time Memory Report at c_bands before calling an iterative solver
             0 MiB given to the printing process from OS
             0 MiB allocation reported by mallinfo(arena+hblkhd)
             0 MiB available memory on the node where the printing process lives
------------------
     ethr =  2.98E-05,  avg # of iterations = 10.0


     -----------------------------------------------
     Non-local corr. energy    =       0.10367142 Ry
     -----------------------------------------------


     total cpu time spent up to now is       14.9 secs

     total energy              =     -24.12382224 Ry
     estimated scf accuracy    <       0.00017329 Ry

     iteration #  4     ecut=   120.00 Ry     beta= 0.70
     Davidson diagonalization with overlap

---- Real-time Memory Report at c_bands before calling an iterative solver
             0 MiB given to the printing process from OS
             0 MiB allocation reported by mallinfo(arena+hblkhd)
             0 MiB available memory on the node where the printing process lives
------------------
     ethr =  2.17E-06,  avg # of iterations =  5.6


     -----------------------------------------------
     Non-local corr. energy    =       0.10373008 Ry
     -----------------------------------------------


     total cpu time spent up to now is       16.2 secs

     total energy              =     -24.12383440 Ry
     estimated scf accuracy    <       0.00000264 Ry

     iteration #  5     ecut=   120.00 Ry     beta= 0.70
     Davidson diagonalization with overlap

---- Real-time Memory Report at c_bands before calling an iterative solver
             0 MiB given to the printing process from OS
             0 MiB allocation reported by mallinfo(arena+hblkhd)
             0 MiB available memory on the node where the printing process lives
------------------
     ethr =  3.30E-08,  avg # of iterations =  3.1


     -----------------------------------------------
     Non-local corr. energy    =       0.10372411 Ry
     -----------------------------------------------


     total cpu time spent up to now is       17.3 secs

     End of self-consistent calculation

          k = 0.0000 0.0000 0.0000 ( 11233 PWs)   bands (ev):

   -21.3745  -9.4831  -4.8039  -4.8039   1.1557   2.1794   3.0537   4.8566

     occupation numbers 
     1.0000   1.0000   1.0000   1.0000   0.0000   0.0000   0.0000   0.0000

          k = 0.0000 0.0722 0.0000 ( 11404 PWs)   bands (ev):

   -21.2815  -9.3710  -5.1785  -5.0028   1.2822   2.3066   3.1830   4.9838

     occupation numbers 
     1.0000   1.0000   1.0000   1.0000   0.0000   0.0000   0.0000   0.0000

          k = 0.0000 0.1443 0.0000 ( 11440 PWs)   bands (ev):

   -21.0033  -9.0362  -6.1883  -5.5166   1.6616   2.6877   3.5708   5.3648

     occupation numbers 
     1.0000   1.0000   1.0000   1.0000   0.0000   0.0000   0.0000   0.0000

          k = 0.0000 0.2165 0.0000 ( 11430 PWs)   bands (ev):

   -20.5415  -8.4840  -7.6003  -6.1780   2.2936   3.3202   4.2172   5.9943

     occupation numbers 
     1.0000   1.0000   1.0000   1.0000   0.0000   0.0000   0.0000   0.0000

          k = 0.0000 0.2887 0.0000 ( 11476 PWs)   bands (ev):

   -19.8992  -9.2093  -7.7257  -6.8444   3.1770   4.1882   5.1210   5.6443

     occupation numbers 
     1.0000   1.0000   1.0000   1.0000   0.0000   0.0000   0.0000   0.0000

          k = 0.0000 0.3608 0.0000 ( 11494 PWs)   bands (ev):

   -19.0817 -10.8761  -7.4250  -6.7837   3.8204   4.3088   5.3897   6.2331

     occupation numbers 
     1.0000   1.0000   1.0000   1.0000   0.0000   0.0000   0.0000   0.0000

          k = 0.0000 0.4330 0.0000 ( 11534 PWs)   bands (ev):

   -18.0988 -12.5101  -7.8672  -5.7104   2.1055   5.6658   6.1290   6.7509

     occupation numbers 
     1.0000   1.0000   1.0000   1.0000   0.0000   0.0000   0.0000   0.0000

          k = 0.0000 0.5052 0.0000 ( 11512 PWs)   bands (ev):

   -16.9785 -14.0368  -8.1421  -4.6591   0.6319   5.9538   7.3258   8.3592

     occupation numbers 
     1.0000   1.0000   1.0000   1.0000   0.0000   0.0000   0.0000   0.0000

          k = 0.0000-0.5774 0.0000 ( 11502 PWs)   bands (ev):

   -16.0724 -15.0809  -8.2352  -4.1251  -0.0479   5.9109   9.0949   9.2346

     occupation numbers 
     1.0000   1.0000   1.0000   1.0000   0.0000   0.0000   0.0000   0.0000

          k = 0.0625 0.1083 0.0000 ( 11424 PWs)   bands (ev):

   -21.0960  -9.1475  -5.8296  -5.4007   1.5351   2.5608   3.4415   5.2380

     occupation numbers 
     1.0000   1.0000   1.0000   1.0000   0.0000   0.0000   0.0000   0.0000

          k = 0.0625 0.1804 0.0000 ( 11438 PWs)   bands (ev):

   -20.7260  -8.7038  -6.9658  -6.0643   2.0410   3.0679   3.9588   5.7449

     occupation numbers 
     1.0000   1.0000   1.0000   1.0000   0.0000   0.0000   0.0000   0.0000

          k = 0.0625 0.2526 0.0000 ( 11461 PWs)   bands (ev):

   -20.1739  -8.4235  -8.0478  -6.7821   2.7992   3.8233   4.7345   6.3078

     occupation numbers 
     1.0000   1.0000   1.0000   1.0000   0.0000   0.0000   0.0000   0.0000

          k = 0.0625 0.3248 0.0000 ( 11475 PWs)   bands (ev):

   -19.4440 -10.0319  -7.4353  -7.1951   3.8076   4.5401   4.9604   5.7666

     occupation numbers 
     1.0000   1.0000   1.0000   1.0000   0.0000   0.0000   0.0000   0.0000

          k = 0.0625 0.3969 0.0000 ( 11494 PWs)   bands (ev):

   -18.5434 -11.6671  -7.9618  -6.1787   2.9063   5.0616   6.1166   6.6052

     occupation numbers 
     1.0000   1.0000   1.0000   1.0000   0.0000   0.0000   0.0000   0.0000

          k = 0.0625 0.4691 0.0000 ( 11497 PWs)   bands (ev):

   -17.4874 -13.2440  -8.3276  -5.0840   1.2892   6.3728   6.6291   7.6022

     occupation numbers 
     1.0000   1.0000   1.0000   1.0000   0.0000   0.0000   0.0000   0.0000

          k = 0.0625 0.5413 0.0000 ( 11485 PWs)   bands (ev):

   -16.3507 -14.6496  -8.5144  -4.1910   0.1194   6.3329   8.3054   9.2935

     occupation numbers 
     1.0000   1.0000   1.0000   1.0000   0.0000   0.0000   0.0000   0.0000

          k = 0.1250 0.2165 0.0000 ( 11436 PWs)   bands (ev):

   -20.2657  -8.1558  -7.9974  -6.9360   2.6734   3.6997   4.6053   6.6111

     occupation numbers 
     1.0000   1.0000   1.0000   1.0000   0.0000   0.0000   0.0000   0.0000

          k = 0.1250 0.2887 0.0000 ( 11490 PWs)   bands (ev):

   -19.6261  -9.3035  -7.7928  -7.4030   3.5570   4.5703   5.1634   5.5103

     occupation numbers 
     1.0000   1.0000   1.0000   1.0000   0.0000   0.0000   0.0000   0.0000

          k = 0.1250 0.3608 0.0000 ( 11500 PWs)   bands (ev):

   -18.8127 -10.8032  -8.4697  -6.4671   3.5471   4.6891   5.7136   6.6717

     occupation numbers 
     1.0000   1.0000   1.0000   1.0000   0.0000   0.0000   0.0000   0.0000

          k = 0.1250 0.4330 0.0000 ( 11510 PWs)   bands (ev):

   -17.8364 -12.3495  -8.9537  -5.3971   1.9398   6.0635   7.0659   7.6274

     occupation numbers 
     1.0000   1.0000   1.0000   1.0000   0.0000   0.0000   0.0000   0.0000

          k = 0.1250 0.5052 0.0000 ( 11517 PWs)   bands (ev):

   -16.7268 -13.8279  -9.2455  -4.3362   0.5273   7.4554   7.7183   8.6073

     occupation numbers 
     1.0000   1.0000   1.0000   1.0000   0.0000   0.0000   0.0000   0.0000

          k = 0.1250 0.5774 0.0000 ( 11508 PWs)   bands (ev):

   -15.8350 -14.8465  -9.3431  -3.7830  -0.1480   7.4400   9.4243   9.5843

     occupation numbers 
     1.0000   1.0000   1.0000   1.0000   0.0000   0.0000   0.0000   0.0000

          k = 0.1875 0.3248 0.0000 ( 11480 PWs)   bands (ev):

   -18.9029 -10.2914  -8.8834  -6.5644   3.8075   4.5643   5.5683   6.5442

     occupation numbers 
     1.0000   1.0000   1.0000   1.0000   0.0000   0.0000   0.0000   0.0000

          k = 0.1875 0.3969 0.0000 ( 11513 PWs)   bands (ev):

   -18.0131 -11.5224  -9.6988  -5.5615   2.3696   5.8162   6.7779   7.8343

     occupation numbers 
     1.0000   1.0000   1.0000   1.0000   0.0000   0.0000   0.0000   0.0000

          k = 0.1875 0.4691 0.0000 ( 11533 PWs)   bands (ev):

   -16.9745 -12.9074 -10.1808  -4.4656   0.9509   7.3023   8.1416   9.1130

     occupation numbers 
     1.0000   1.0000   1.0000   1.0000   0.0000   0.0000   0.0000   0.0000

          k = 0.1875 0.5413 0.0000 ( 11513 PWs)   bands (ev):

   -15.8649 -14.2211 -10.4061  -3.5276  -0.1604   8.9308   9.0907   9.3365

     occupation numbers 
     1.0000   1.0000   1.0000   1.0000   0.0000   0.0000   0.0000   0.0000

          k = 0.2500 0.4330 0.0000 ( 11496 PWs)   bands (ev):

   -17.0591 -12.3192 -10.7874  -4.5156   1.1344   7.1789   7.9685   9.2503

     occupation numbers 
     1.0000   1.0000   1.0000   1.0000   0.0000   0.0000   0.0000   0.0000

          k = 0.2500 0.5052 0.0000 ( 11505 PWs)   bands (ev):

   -15.9852 -13.3775 -11.4006  -3.4259  -0.0685   8.7506   8.8712  10.6951

     occupation numbers 
     1.0000   1.0000   1.0000   1.0000   0.0000   0.0000   0.0000   0.0000

          k = 0.2500 0.5774 0.0000 ( 11488 PWs)   bands (ev):

   -15.1243 -14.2694 -11.5747  -2.7657  -0.7669   9.0602  10.3358  10.4536

     occupation numbers 
     1.0000   1.0000   1.0000   1.0000   0.0000   0.0000   0.0000   0.0000

          k = 0.3125 0.5413 0.0000 ( 11482 PWs)   bands (ev):

   -14.9481 -13.9464 -12.2422  -2.3579  -1.1040   8.8261  10.3009  11.2841

     occupation numbers 
     1.0000   1.0000   1.0000   1.0000   0.0000   0.0000   0.0000   0.0000

     the Fermi energy is    -1.8559 ev

!    total energy              =     -24.12383571 Ry
     estimated scf accuracy    <       0.00000005 Ry
     smearing contrib. (-TS)   =       0.00000000 Ry
     internal energy E=F+TS    =     -24.12383571 Ry

     The total energy is F=E-TS. E is the sum of the following terms:
     one-electron contribution =    -154.84994536 Ry
     hartree contribution      =      78.91117972 Ry
     xc contribution           =      -8.62780615 Ry
     ewald contribution        =      60.44273608 Ry

     convergence has been achieved in   5 iterations


     -----------------------------------------------
     Non-local corr. energy    =       0.10372411 Ry
     -----------------------------------------------


     Forces acting on atoms (cartesian axes, Ry/au):

     atom    1 type  1   force =     0.00000000    0.00000000    0.00000000
     atom    2 type  1   force =     0.00000000   -0.00000000    0.00000000
     The non-local contrib.  to forces
     atom    1 type  1   force =     0.00000000    0.00000000    0.00000000
     atom    2 type  1   force =     0.00000000   -0.00000000   -0.00000000
     The ionic contribution  to forces
     atom    1 type  1   force =    -0.00000001    0.00000000   -0.00000000
     atom    2 type  1   force =     0.00000001   -0.00000000   -0.00000000
     The local contribution  to forces
     atom    1 type  1   force =    -0.00000000   -0.00000000   -0.00000000
     atom    2 type  1   force =     0.00000001   -0.00000000   -0.00000000
     The core correction contribution to forces
     atom    1 type  1   force =     0.00000000    0.00000000   -0.00000000
     atom    2 type  1   force =    -0.00000000    0.00000000   -0.00000000
     The Hubbard contrib.    to forces
     atom    1 type  1   force =     0.00000000    0.00000000    0.00000000
     atom    2 type  1   force =     0.00000000    0.00000000    0.00000000
     The SCF correction term to forces
     atom    1 type  1   force =    -0.00000000    0.00000000   -0.00000000
     atom    2 type  1   force =     0.00000000    0.00000000   -0.00000000

     Total force =     0.000000     Total SCF correction =     0.000000


     Computing stress (Cartesian axis) and pressure



     -----------------------------------------------
     Non-local corr. energy    =       0.10372411 Ry
     -----------------------------------------------

          total   stress  (Ry/bohr**3)                   (kbar)     P=       12.25
   0.00012562  -0.00000000   0.00000000           18.48       -0.00        0.00
  -0.00000000   0.00012562   0.00000000           -0.00       18.48        0.00
   0.00000000   0.00000000  -0.00000136            0.00        0.00       -0.20

     kinetic stress (kbar)   3100.16     -0.00      0.00
                               -0.00   3100.16      0.00
                                0.00      0.00   3398.53

     local   stress (kbar) -47084.35      0.00      0.00
                                0.00 -47084.35      0.00
                                0.00      0.00  48035.38

     nonloc. stress (kbar)   -319.92     -0.00      0.00
                               -0.00   -319.92      0.00
                                0.00     -0.00   -265.41

     hartree stress (kbar)  22201.24     -0.00     -0.00
                               -0.00  22201.24      0.00
                               -0.00      0.00 -21967.01

     exc-cor stress (kbar)   -246.71     -0.00     -0.00
                               -0.00   -246.71     -0.00
                               -0.00     -0.00   -289.01

     corecor stress (kbar)   -467.33      0.00      0.00
                                0.00   -467.33      0.00
                                0.00      0.00   -454.13

     ewald   stress (kbar)  22833.51     -0.00     -0.00
                               -0.00  22833.51     -0.00
                               -0.00     -0.00 -28482.36

     hubbard stress (kbar)      0.00      0.00      0.00
                                0.00      0.00      0.00
                                0.00      0.00      0.00

     DFT-D   stress (kbar)      0.00      0.00      0.00
                                0.00      0.00      0.00
                                0.00      0.00      0.00

     XDM     stress (kbar)      0.00      0.00      0.00
                                0.00      0.00      0.00
                                0.00      0.00      0.00

     dft-nl  stress (kbar)      1.88      0.00     -0.00
                                0.00      1.88      0.00
                               -0.00      0.00     23.80

     TS-vdW  stress (kbar)      0.00      0.00      0.00
                                0.00      0.00      0.00
                                0.00      0.00      0.00

     MDB     stress (kbar)      0.00      0.00      0.00
                                0.00      0.00      0.00
                                0.00      0.00      0.00

     3D-RISM stress (kbar)      0.00      0.00      0.00
                                0.00      0.00      0.00
                                0.00      0.00      0.00


     BFGS Geometry Optimization
     Energy error            =      0.0E+00 Ry
     Gradient error          =      8.0E-26 Ry/Bohr
     Cell gradient error     =      1.8E+01 kbar

     number of scf cycles    =   1
     number of bfgs steps    =   0

     enthalpy           new  =     -24.1238357117 Ry

     new trust radius        =       0.0142875427 bohr
     new conv_thr            =       0.0000010000 Ry

     new unit-cell volume =    520.66059 a.u.^3 (    77.15394 Ang^3 )
     density =      0.51701 g/cm^3

CELL_PARAMETERS (alat=  4.63500000)
   1.003140595  -0.000000000   0.000000000
  -0.501570298   0.868745239   0.000000000
   0.000000000   0.000000000   6.000000000

ATOMIC_POSITIONS (crystal)
C             0.0000000000        0.0000000000        0.0000000000
C             0.3333333330        0.6666666670        0.0000000000



     Writing config-only to output data dir ./tmp/graphene_PBE-vdW.save/
     NEW-OLD atomic charge density approx. for the potential


     -----------------------------------------------
     Non-local corr. energy    =       0.10432657 Ry
     -----------------------------------------------

     extrapolated charge    8.05001, renormalised to    8.00000

     total cpu time spent up to now is       19.9 secs

     Self-consistent Calculation

     iteration #  1     ecut=   120.00 Ry     beta= 0.70
     Davidson diagonalization with overlap

---- Real-time Memory Report at c_bands before calling an iterative solver
             0 MiB given to the printing process from OS
             0 MiB allocation reported by mallinfo(arena+hblkhd)
             0 MiB available memory on the node where the printing process lives
------------------
     c_bands:  1 eigenvalues not converged
     c_bands:  1 eigenvalues not converged
     c_bands:  1 eigenvalues not converged
     c_bands:  1 eigenvalues not converged
     c_bands:  1 eigenvalues not converged
     ethr =  1.00E-06,  avg # of iterations = 11.7


     -----------------------------------------------
     Non-local corr. energy    =       0.10317639 Ry
     -----------------------------------------------


     total cpu time spent up to now is       22.1 secs

     total energy              =     -24.12284761 Ry
     estimated scf accuracy    <       0.00067396 Ry

     iteration #  2     ecut=   120.00 Ry     beta= 0.70
     Davidson diagonalization with overlap

---- Real-time Memory Report at c_bands before calling an iterative solver
             0 MiB given to the printing process from OS
             0 MiB allocation reported by mallinfo(arena+hblkhd)
             0 MiB available memory on the node where the printing process lives
------------------
     c_bands:  1 eigenvalues not converged
     ethr =  8.42E-06,  avg # of iterations =  8.2


     -----------------------------------------------
     Non-local corr. energy    =       0.10354369 Ry
     -----------------------------------------------


     total cpu time spent up to now is       23.9 secs

     total energy              =     -24.12418201 Ry
     estimated scf accuracy    <       0.00068454 Ry

     iteration #  3     ecut=   120.00 Ry     beta= 0.70
     Davidson diagonalization with overlap

---- Real-time Memory Report at c_bands before calling an iterative solver
             0 MiB given to the printing process from OS
             0 MiB allocation reported by mallinfo(arena+hblkhd)
             0 MiB available memory on the node where the printing process lives
------------------
     ethr =  8.42E-06,  avg # of iterations =  1.1


     -----------------------------------------------
     Non-local corr. energy    =       0.10373101 Ry
     -----------------------------------------------


     total cpu time spent up to now is       24.8 secs

     total energy              =     -24.12414444 Ry
     estimated scf accuracy    <       0.00015160 Ry

     iteration #  4     ecut=   120.00 Ry     beta= 0.70
     Davidson diagonalization with overlap

---- Real-time Memory Report at c_bands before calling an iterative solver
             0 MiB given to the printing process from OS
             0 MiB allocation reported by mallinfo(arena+hblkhd)
             0 MiB available memory on the node where the printing process lives
------------------
     ethr =  1.89E-06,  avg # of iterations =  2.5


     -----------------------------------------------
     Non-local corr. energy    =       0.10372160 Ry
     -----------------------------------------------


     total cpu time spent up to now is       25.7 secs

     total energy              =     -24.12415750 Ry
     estimated scf accuracy    <       0.00002591 Ry

     iteration #  5     ecut=   120.00 Ry     beta= 0.70
     Davidson diagonalization with overlap

---- Real-time Memory Report at c_bands before calling an iterative solver
             0 MiB given to the printing process from OS
             0 MiB allocation reported by mallinfo(arena+hblkhd)
             0 MiB available memory on the node where the printing process lives
------------------
     ethr =  3.24E-07,  avg # of iterations =  1.0


     -----------------------------------------------
     Non-local corr. energy    =       0.10385167 Ry
     -----------------------------------------------


     total cpu time spent up to now is       26.6 secs

     total energy              =     -24.12413872 Ry
     estimated scf accuracy    <       0.00003035 Ry

     iteration #  6     ecut=   120.00 Ry     beta= 0.70
     Davidson diagonalization with overlap

---- Real-time Memory Report at c_bands before calling an iterative solver
             0 MiB given to the printing process from OS
             0 MiB allocation reported by mallinfo(arena+hblkhd)
             0 MiB available memory on the node where the printing process lives
------------------
     ethr =  3.24E-07,  avg # of iterations =  2.0


     -----------------------------------------------
     Non-local corr. energy    =       0.10388469 Ry
     -----------------------------------------------


     total cpu time spent up to now is       27.5 secs

     End of self-consistent calculation

          k = 0.0000 0.0000 0.0000 ( 11233 PWs)   bands (ev):

   -21.3461  -9.4645  -4.8567  -4.8567   1.1448   2.1660   3.0630   4.8525

     occupation numbers 
     1.0000   1.0000   1.0000   1.0000   0.0000   0.0000   0.0000   0.0000

          k = 0.0000 0.0719 0.0000 ( 11404 PWs)   bands (ev):

   -21.2537  -9.3533  -5.2300  -5.0536   1.2705   2.2924   3.1914   4.9788

     occupation numbers 
     1.0000   1.0000   1.0000   1.0000   0.0000   0.0000   0.0000   0.0000

          k = 0.0000 0.1439 0.0000 ( 11440 PWs)   bands (ev):

   -20.9770  -9.0211  -6.2356  -5.5624   1.6475   2.6710   3.5768   5.3572

     occupation numbers 
     1.0000   1.0000   1.0000   1.0000   0.0000   0.0000   0.0000   0.0000

          k = 0.0000 0.2158 0.0000 ( 11430 PWs)   bands (ev):

   -20.5178  -8.4732  -7.6411  -6.2177   2.2757   3.2994   4.2191   5.9826

     occupation numbers 
     1.0000   1.0000   1.0000   1.0000   0.0000   0.0000   0.0000   0.0000

          k = 0.0000 0.2878 0.0000 ( 11476 PWs)   bands (ev):

   -19.8792  -9.2420  -7.7209  -6.8783   3.1536   4.1606   5.1175   5.5359

     occupation numbers 
     1.0000   1.0000   1.0000   1.0000   0.0000   0.0000   0.0000   0.0000

          k = 0.0000 0.3597 0.0000 ( 11494 PWs)   bands (ev):

   -19.0665 -10.8999  -7.4539  -6.7866   3.7314   4.2781   5.3529   6.1447

     occupation numbers 
     1.0000   1.0000   1.0000   1.0000   0.0000   0.0000   0.0000   0.0000

          k = 0.0000 0.4317 0.0000 ( 11534 PWs)   bands (ev):

   -18.0897 -12.5244  -7.8925  -5.7225   2.0327   5.6198   5.9954   6.7064

     occupation numbers 
     1.0000   1.0000   1.0000   1.0000   0.0000   0.0000   0.0000   0.0000

          k = 0.0000 0.5036 0.0000 ( 11512 PWs)   bands (ev):

   -16.9780 -14.0405  -8.1651  -4.6811   0.5742   5.8126   7.2750   8.3035

     occupation numbers 
     1.0000   1.0000   1.0000   1.0000   0.0000   0.0000   0.0000   0.0000

          k =-0.0000-0.5755 0.0000 ( 11502 PWs)   bands (ev):

   -16.0876 -15.0682  -8.2575  -4.1527  -0.0981   5.7685   9.0320   9.1730

     occupation numbers 
     1.0000   1.0000   1.0000   1.0000   0.0000   0.0000   0.0000   0.0000

          k = 0.0623 0.1079 0.0000 ( 11424 PWs)   bands (ev):

   -21.0692  -9.1315  -5.8787  -5.4476   1.5219   2.5449   3.4484   5.2312

     occupation numbers 
     1.0000   1.0000   1.0000   1.0000   0.0000   0.0000   0.0000   0.0000

          k = 0.0623 0.1799 0.0000 ( 11438 PWs)   bands (ev):

   -20.7012  -8.6913  -7.0103  -6.1050   2.0247   3.0487   3.9623   5.7345

     occupation numbers 
     1.0000   1.0000   1.0000   1.0000   0.0000   0.0000   0.0000   0.0000

          k = 0.0623 0.2518 0.0000 ( 11461 PWs)   bands (ev):

   -20.1523  -8.4609  -8.0405  -6.8167   2.7781   3.7989   4.7330   6.2025

     occupation numbers 
     1.0000   1.0000   1.0000   1.0000   0.0000   0.0000   0.0000   0.0000

          k = 0.0623 0.3237 0.0000 ( 11475 PWs)   bands (ev):

   -19.4266 -10.0608  -7.4647  -7.1946   3.7802   4.4593   4.9096   5.7582

     occupation numbers 
     1.0000   1.0000   1.0000   1.0000   0.0000   0.0000   0.0000   0.0000

          k = 0.0623 0.3957 0.0000 ( 11494 PWs)   bands (ev):

   -18.5314 -11.6868  -7.9872  -6.1867   2.8247   5.0260   6.0762   6.4675

     occupation numbers 
     1.0000   1.0000   1.0000   1.0000   0.0000   0.0000   0.0000   0.0000

          k = 0.0623 0.4676 0.0000 ( 11497 PWs)   bands (ev):

   -17.4825 -13.2539  -8.3501  -5.1017   1.2239   6.2486   6.5652   7.5517

     occupation numbers 
     1.0000   1.0000   1.0000   1.0000   0.0000   0.0000   0.0000   0.0000

          k = 0.0623 0.5396 0.0000 ( 11485 PWs)   bands (ev):

   -16.3576 -14.6463  -8.5355  -4.2176   0.0665   6.1892   8.2486   9.2302

     occupation numbers 
     1.0000   1.0000   1.0000   1.0000   0.0000   0.0000   0.0000   0.0000

          k = 0.1246 0.2158 0.0000 ( 11436 PWs)   bands (ev):

   -20.2436  -8.1476  -8.0388  -6.9686   2.6531   3.6762   4.6049   6.3612

     occupation numbers 
     1.0000   1.0000   1.0000   1.0000   0.0000   0.0000   0.0000   0.0000

          k = 0.1246 0.2878 0.0000 ( 11490 PWs)   bands (ev):

   -19.6076  -9.3388  -7.8188  -7.4008   3.5312   4.5398   5.0571   5.5041

     occupation numbers 
     1.0000   1.0000   1.0000   1.0000   0.0000   0.0000   0.0000   0.0000

          k = 0.1246 0.3597 0.0000 ( 11500 PWs)   bands (ev):

   -18.7991 -10.8297  -8.4916  -6.4726   3.4569   4.6560   5.6761   6.6578

     occupation numbers 
     1.0000   1.0000   1.0000   1.0000   0.0000   0.0000   0.0000   0.0000

          k = 0.1246 0.4317 0.0000 ( 11510 PWs)   bands (ev):

   -17.8289 -12.3664  -8.9728  -5.4117   1.8658   6.0215   7.0190   7.4830

     occupation numbers 
     1.0000   1.0000   1.0000   1.0000   0.0000   0.0000   0.0000   0.0000

          k = 0.1246 0.5036 0.0000 ( 11517 PWs)   bands (ev):

   -16.7277 -13.8340  -9.2629  -4.3606   0.4677   7.3181   7.6548   8.5486

     occupation numbers 
     1.0000   1.0000   1.0000   1.0000   0.0000   0.0000   0.0000   0.0000

          k = 0.1246 0.5755 0.0000 ( 11508 PWs)   bands (ev):

   -15.8509 -14.8370  -9.3599  -3.8133  -0.2002   7.2912   9.3585   9.5199

     occupation numbers 
     1.0000   1.0000   1.0000   1.0000   0.0000   0.0000   0.0000   0.0000

          k = 0.1869 0.3237 0.0000 ( 11480 PWs)   bands (ev):

   -18.8887 -10.3247  -8.8995  -6.5691   3.7129   4.5320   5.5322   6.5314

     occupation numbers 
     1.0000   1.0000   1.0000   1.0000   0.0000   0.0000   0.0000   0.0000

          k = 0.1869 0.3957 0.0000 ( 11513 PWs)   bands (ev):

   -18.0043 -11.5488  -9.7100  -5.5745   2.2888   5.7760   6.7331   7.8132

     occupation numbers 
     1.0000   1.0000   1.0000   1.0000   0.0000   0.0000   0.0000   0.0000

          k = 0.1869 0.4676 0.0000 ( 11533 PWs)   bands (ev):

   -16.9727 -12.9233 -10.1907  -4.4883   0.8840   7.2522   8.0862   8.9630

     occupation numbers 
     1.0000   1.0000   1.0000   1.0000   0.0000   0.0000   0.0000   0.0000

          k = 0.1869 0.5396 0.0000 ( 11513 PWs)   bands (ev):

   -15.8742 -14.2241 -10.4155  -3.5593  -0.2160   8.8137   8.9910   9.2696

     occupation numbers 
     1.0000   1.0000   1.0000   1.0000   0.0000   0.0000   0.0000   0.0000

          k = 0.2492 0.4317 0.0000 ( 11496 PWs)   bands (ev):

   -17.0565 -12.3457 -10.7874  -4.5376   1.0641   7.1298   7.9145   9.2201

     occupation numbers 
     1.0000   1.0000   1.0000   1.0000   0.0000   0.0000   0.0000   0.0000

          k = 0.2492 0.5036 0.0000 ( 11505 PWs)   bands (ev):

   -15.9908 -13.3958 -11.3974  -3.4576  -0.1280   8.6902   8.8099  10.5449

     occupation numbers 
     1.0000   1.0000   1.0000   1.0000   0.0000   0.0000   0.0000   0.0000

          k = 0.2492 0.5755 0.0000 ( 11488 PWs)   bands (ev):

   -15.1422 -14.2741 -11.5719  -2.8039  -0.8196   8.9986  10.2580  10.3394

     occupation numbers 
     1.0000   1.0000   1.0000   1.0000   0.0000   0.0000   0.0000   0.0000

          k = 0.3115 0.5396 0.0000 ( 11482 PWs)   bands (ev):

   -14.9631 -13.9678 -12.2248  -2.3990  -1.1556   8.7682  10.2239  11.5301

     occupation numbers 
     1.0000   1.0000   1.0000   1.0000   0.0000   0.0000   0.0000   0.0000

     the Fermi energy is    -1.6983 ev

!    total energy              =     -24.12414220 Ry
     estimated scf accuracy    <       0.00000061 Ry
     smearing contrib. (-TS)   =      -0.00000000 Ry
     internal energy E=F+TS    =     -24.12414220 Ry

     The total energy is F=E-TS. E is the sum of the following terms:
     one-electron contribution =    -153.85973534 Ry
     hartree contribution      =      78.40871398 Ry
     xc contribution           =      -8.61396826 Ry
     ewald contribution        =      59.94084742 Ry

     convergence has been achieved in   6 iterations


     -----------------------------------------------
     Non-local corr. energy    =       0.10388469 Ry
     -----------------------------------------------


     Forces acting on atoms (cartesian axes, Ry/au):

     atom    1 type  1   force =     0.00000000    0.00000000    0.00000000
     atom    2 type  1   force =     0.00000000    0.00000000    0.00000000
     The non-local contrib.  to forces
     atom    1 type  1   force =     0.00000000    0.00000000    0.00000000
     atom    2 type  1   force =     0.00000000   -0.00000000    0.00000000
     The ionic contribution  to forces
     atom    1 type  1   force =    -0.00000001    0.00000000   -0.00000000
     atom    2 type  1   force =     0.00000001   -0.00000000   -0.00000000
     The local contribution  to forces
     atom    1 type  1   force =    -0.00000000   -0.00000000    0.00000000
     atom    2 type  1   force =     0.00000001   -0.00000000    0.00000000
     The core correction contribution to forces
     atom    1 type  1   force =    -0.00000000   -0.00000000    0.00000000
     atom    2 type  1   force =    -0.00000000    0.00000000    0.00000000
     The Hubbard contrib.    to forces
     atom    1 type  1   force =     0.00000000    0.00000000    0.00000000
     atom    2 type  1   force =     0.00000000    0.00000000    0.00000000
     The SCF correction term to forces
     atom    1 type  1   force =    -0.00000000   -0.00000000    0.00000000
     atom    2 type  1   force =    -0.00000000   -0.00000000   -0.00000000

     Total force =     0.000000     Total SCF correction =     0.000000


     Computing stress (Cartesian axis) and pressure



     -----------------------------------------------
     Non-local corr. energy    =       0.10388469 Ry
     -----------------------------------------------

          total   stress  (Ry/bohr**3)                   (kbar)     P=        6.46
   0.00006332   0.00000000   0.00000000            9.31        0.00        0.00
   0.00000000   0.00006332   0.00000000            0.00        9.31        0.00
   0.00000000   0.00000000   0.00000511            0.00        0.00        0.75

     kinetic stress (kbar)   3069.36      0.00     -0.00
                                0.00   3069.36     -0.00
                               -0.00     -0.00   3371.38

     local   stress (kbar) -46489.25      0.00     -0.00
                                0.00 -46489.25      0.00
                               -0.00      0.00  47417.27

     nonloc. stress (kbar)   -314.88      0.00      0.00
                                0.00   -314.88     -0.00
                               -0.00     -0.00   -262.22

     hartree stress (kbar)  21919.01     -0.00      0.00
                               -0.00  21919.01     -0.00
                                0.00     -0.00 -21684.78

     exc-cor stress (kbar)   -244.15     -0.00     -0.00
                               -0.00   -244.15     -0.00
                               -0.00     -0.00   -286.04

     corecor stress (kbar)   -464.04      0.00     -0.00
                                0.00   -464.04     -0.00
                               -0.00     -0.00   -451.13

     ewald   stress (kbar)  22531.38     -0.00     -0.00
                               -0.00  22531.38     -0.00
                               -0.00     -0.00 -28127.35

     hubbard stress (kbar)      0.00      0.00      0.00
                                0.00      0.00      0.00
                                0.00      0.00      0.00

     DFT-D   stress (kbar)      0.00      0.00      0.00
                                0.00      0.00      0.00
                                0.00      0.00      0.00

     XDM     stress (kbar)      0.00      0.00      0.00
                                0.00      0.00      0.00
                                0.00      0.00      0.00

     dft-nl  stress (kbar)      1.88      0.00     -0.00
                                0.00      1.88      0.00
                               -0.00      0.00     23.61

     TS-vdW  stress (kbar)      0.00      0.00      0.00
                                0.00      0.00      0.00
                                0.00      0.00      0.00

     MDB     stress (kbar)      0.00      0.00      0.00
                                0.00      0.00      0.00
                                0.00      0.00      0.00

     3D-RISM stress (kbar)      0.00      0.00      0.00
                                0.00      0.00      0.00
                                0.00      0.00      0.00

     Energy error            =      3.1E-04 Ry
     Gradient error          =      0.0E+00 Ry/Bohr
     Cell gradient error     =      9.3E+00 kbar

     number of scf cycles    =   2
     number of bfgs steps    =   1

     enthalpy           old  =     -24.1238357117 Ry
     enthalpy           new  =     -24.1241422007 Ry

     CASE: enthalpy          _new < enthalpy          _old

     new trust radius        =       0.0146109522 bohr
     new conv_thr            =       0.0000000100 Ry

     new unit-cell volume =    523.99986 a.u.^3 (    77.64877 Ang^3 )
     density =      0.51372 g/cm^3

CELL_PARAMETERS (alat=  4.63500000)
   1.006352281  -0.000000000   0.000000000
  -0.503176140   0.871526640   0.000000000
   0.000000000   0.000000000   6.000000000

ATOMIC_POSITIONS (crystal)
C             0.0000000000        0.0000000000        0.0000000000
C             0.3333333330        0.6666666670        0.0000000000



     Writing config-only to output data dir ./tmp/graphene_PBE-vdW.save/
     NEW-OLD atomic charge density approx. for the potential


     -----------------------------------------------
     Non-local corr. energy    =       0.10450087 Ry
     -----------------------------------------------

     extrapolated charge    8.05098, renormalised to    8.00000

     total cpu time spent up to now is       30.2 secs

     Self-consistent Calculation

     iteration #  1     ecut=   120.00 Ry     beta= 0.70
     Davidson diagonalization with overlap

---- Real-time Memory Report at c_bands before calling an iterative solver
             0 MiB given to the printing process from OS
             0 MiB allocation reported by mallinfo(arena+hblkhd)
             0 MiB available memory on the node where the printing process lives
------------------
     c_bands:  1 eigenvalues not converged
     c_bands:  1 eigenvalues not converged
     c_bands:  1 eigenvalues not converged
     c_bands:  1 eigenvalues not converged
     ethr =  1.00E-06,  avg # of iterations = 11.5


     -----------------------------------------------
     Non-local corr. energy    =       0.10330950 Ry
     -----------------------------------------------


     total cpu time spent up to now is       32.4 secs

     total energy              =     -24.12288782 Ry
     estimated scf accuracy    <       0.00073133 Ry

     iteration #  2     ecut=   120.00 Ry     beta= 0.70
     Davidson diagonalization with overlap

---- Real-time Memory Report at c_bands before calling an iterative solver
             0 MiB given to the printing process from OS
             0 MiB allocation reported by mallinfo(arena+hblkhd)
             0 MiB available memory on the node where the printing process lives
------------------
     c_bands:  1 eigenvalues not converged
     ethr =  9.14E-06,  avg # of iterations =  8.3


     -----------------------------------------------
     Non-local corr. energy    =       0.10368871 Ry
     -----------------------------------------------


     total cpu time spent up to now is       34.1 secs

     total energy              =     -24.12428883 Ry
     estimated scf accuracy    <       0.00071082 Ry

     iteration #  3     ecut=   120.00 Ry     beta= 0.70
     Davidson diagonalization with overlap

---- Real-time Memory Report at c_bands before calling an iterative solver
             0 MiB given to the printing process from OS
             0 MiB allocation reported by mallinfo(arena+hblkhd)
             0 MiB available memory on the node where the printing process lives
------------------
     ethr =  8.89E-06,  avg # of iterations =  1.5


     -----------------------------------------------
     Non-local corr. energy    =       0.10386902 Ry
     -----------------------------------------------


     total cpu time spent up to now is       35.0 secs

     total energy              =     -24.12425463 Ry
     estimated scf accuracy    <       0.00015418 Ry

     iteration #  4     ecut=   120.00 Ry     beta= 0.70
     Davidson diagonalization with overlap

---- Real-time Memory Report at c_bands before calling an iterative solver
             0 MiB given to the printing process from OS
             0 MiB allocation reported by mallinfo(arena+hblkhd)
             0 MiB available memory on the node where the printing process lives
------------------
     ethr =  1.93E-06,  avg # of iterations =  2.6


     -----------------------------------------------
     Non-local corr. energy    =       0.10386398 Ry
     -----------------------------------------------


     total cpu time spent up to now is       36.1 secs

     total energy              =     -24.12426620 Ry
     estimated scf accuracy    <       0.00002982 Ry

     iteration #  5     ecut=   120.00 Ry     beta= 0.70
     Davidson diagonalization with overlap

---- Real-time Memory Report at c_bands before calling an iterative solver
             0 MiB given to the printing process from OS
             0 MiB allocation reported by mallinfo(arena+hblkhd)
             0 MiB available memory on the node where the printing process lives
------------------
     ethr =  3.73E-07,  avg # of iterations =  1.0


     -----------------------------------------------
     Non-local corr. energy    =       0.10400582 Ry
     -----------------------------------------------


     total cpu time spent up to now is       37.0 secs

     total energy              =     -24.12424542 Ry
     estimated scf accuracy    <       0.00003281 Ry

     iteration #  6     ecut=   120.00 Ry     beta= 0.70
     Davidson diagonalization with overlap

---- Real-time Memory Report at c_bands before calling an iterative solver
             0 MiB given to the printing process from OS
             0 MiB allocation reported by mallinfo(arena+hblkhd)
             0 MiB available memory on the node where the printing process lives
------------------
     ethr =  3.73E-07,  avg # of iterations =  2.2


     -----------------------------------------------
     Non-local corr. energy    =       0.10402430 Ry
     -----------------------------------------------


     total cpu time spent up to now is       38.0 secs

     total energy              =     -24.12424999 Ry
     estimated scf accuracy    <       0.00000036 Ry

     iteration #  7     ecut=   120.00 Ry     beta= 0.70
     Davidson diagonalization with overlap

---- Real-time Memory Report at c_bands before calling an iterative solver
             0 MiB given to the printing process from OS
             0 MiB allocation reported by mallinfo(arena+hblkhd)
             0 MiB available memory on the node where the printing process lives
------------------
     ethr =  4.44E-09,  avg # of iterations =  2.5


     -----------------------------------------------
     Non-local corr. energy    =       0.10401550 Ry
     -----------------------------------------------


     total cpu time spent up to now is       39.1 secs

     total energy              =     -24.12425013 Ry
     estimated scf accuracy    <       0.00000003 Ry

     iteration #  8     ecut=   120.00 Ry     beta= 0.70
     Davidson diagonalization with overlap

---- Real-time Memory Report at c_bands before calling an iterative solver
             0 MiB given to the printing process from OS
             0 MiB allocation reported by mallinfo(arena+hblkhd)
             0 MiB available memory on the node where the printing process lives
------------------
     ethr =  3.90E-10,  avg # of iterations =  2.0


     -----------------------------------------------
     Non-local corr. energy    =       0.10402293 Ry
     -----------------------------------------------


     total cpu time spent up to now is       40.2 secs

     total energy              =     -24.12425009 Ry
     estimated scf accuracy    <       0.00000005 Ry

     iteration #  9     ecut=   120.00 Ry     beta= 0.70
     Davidson diagonalization with overlap

---- Real-time Memory Report at c_bands before calling an iterative solver
             0 MiB given to the printing process from OS
             0 MiB allocation reported by mallinfo(arena+hblkhd)
             0 MiB available memory on the node where the printing process lives
------------------
     ethr =  3.90E-10,  avg # of iterations =  2.0


     -----------------------------------------------
     Non-local corr. energy    =       0.10401957 Ry
     -----------------------------------------------


     total cpu time spent up to now is       41.2 secs

     End of self-consistent calculation

          k = 0.0000 0.0000 0.0000 ( 11233 PWs)   bands (ev):

   -21.2964  -9.4295  -4.8862  -4.8862   1.1406   2.1604   3.0509   4.8420

     occupation numbers 
     1.0000   1.0000   1.0000   1.0000   0.0000   0.0000   0.0000   0.0000

          k = 0.0000 0.0717 0.0000 ( 11404 PWs)   bands (ev):

   -21.2045  -9.3191  -5.2582  -5.0812   1.2654   2.2859   3.1785   4.9675

     occupation numbers 
     1.0000   1.0000   1.0000   1.0000   0.0000   0.0000   0.0000   0.0000

          k = 0.0000 0.1434 0.0000 ( 11440 PWs)   bands (ev):

   -20.9294  -8.9894  -6.2601  -5.5850   1.6401   2.6620   3.5614   5.3434

     occupation numbers 
     1.0000   1.0000   1.0000   1.0000   0.0000   0.0000   0.0000   0.0000

          k = 0.0000 0.2151 0.0000 ( 11430 PWs)   bands (ev):

   -20.4727  -8.4459  -7.6593  -6.2343   2.2643   3.2861   4.1996   5.9642

     occupation numbers 
     1.0000   1.0000   1.0000   1.0000   0.0000   0.0000   0.0000   0.0000

          k = 0.0000 0.2869 0.0000 ( 11476 PWs)   bands (ev):

   -19.8377  -9.2524  -7.6995  -6.8890   3.1367   4.1406   5.0921   5.4445

     occupation numbers 
     1.0000   1.0000   1.0000   1.0000   0.0000   0.0000   0.0000   0.0000

          k = 0.0000 0.3586 0.0000 ( 11494 PWs)   bands (ev):

   -19.0298 -10.9015  -7.4598  -6.7728   3.6591   4.2540   5.3241   6.0381

     occupation numbers 
     1.0000   1.0000   1.0000   1.0000   0.0000   0.0000   0.0000   0.0000

          k = 0.0000 0.4303 0.0000 ( 11534 PWs)   bands (ev):

   -18.0592 -12.5168  -7.8947  -5.7177   1.9766   5.5782   5.8820   6.6694

     occupation numbers 
     1.0000   1.0000   1.0000   1.0000   0.0000   0.0000   0.0000   0.0000

          k = 0.0000 0.5020 0.0000 ( 11512 PWs)   bands (ev):

   -16.9561 -14.0223  -8.1651  -4.6859   0.5329   5.6895   7.2307   8.2552

     occupation numbers 
     1.0000   1.0000   1.0000   1.0000   0.0000   0.0000   0.0000   0.0000

          k =-0.0000-0.5737 0.0000 ( 11502 PWs)   bands (ev):

   -16.0811 -15.0338  -8.2567  -4.1630  -0.1322   5.6443   8.9759   9.1173

     occupation numbers 
     1.0000   1.0000   1.0000   1.0000   0.0000   0.0000   0.0000   0.0000

          k = 0.0621 0.1076 0.0000 ( 11424 PWs)   bands (ev):

   -21.0210  -9.0990  -5.9049  -5.4712   1.5153   2.5367   3.4338   5.2183

     occupation numbers 
     1.0000   1.0000   1.0000   1.0000   0.0000   0.0000   0.0000   0.0000

          k = 0.0621 0.1793 0.0000 ( 11438 PWs)   bands (ev):

   -20.6551  -8.6622  -7.0321  -6.1226   2.0149   3.0372   3.9444   5.7181

     occupation numbers 
     1.0000   1.0000   1.0000   1.0000   0.0000   0.0000   0.0000   0.0000

          k = 0.0621 0.2510 0.0000 ( 11461 PWs)   bands (ev):

   -20.1093  -8.4759  -8.0165  -6.8283   2.7635   3.7822   4.7101   6.1070

     occupation numbers 
     1.0000   1.0000   1.0000   1.0000   0.0000   0.0000   0.0000   0.0000

          k = 0.0621 0.3227 0.0000 ( 11475 PWs)   bands (ev):

   -19.3878 -10.0674  -7.4712  -7.1774   3.7592   4.3900   4.8723   5.7285

     occupation numbers 
     1.0000   1.0000   1.0000   1.0000   0.0000   0.0000   0.0000   0.0000

          k = 0.0621 0.3944 0.0000 ( 11494 PWs)   bands (ev):

   -18.4980 -11.6845  -7.9895  -6.1778   2.7600   4.9969   6.0435   6.3462

     occupation numbers 
     1.0000   1.0000   1.0000   1.0000   0.0000   0.0000   0.0000   0.0000

          k = 0.0621 0.4661 0.0000 ( 11497 PWs)   bands (ev):

   -17.4562 -13.2418  -8.3497  -5.1024   1.1752   6.1342   6.5161   7.5087

     occupation numbers 
     1.0000   1.0000   1.0000   1.0000   0.0000   0.0000   0.0000   0.0000

          k = 0.0621 0.5378 0.0000 ( 11485 PWs)   bands (ev):

   -16.3430 -14.6211  -8.5337  -4.2269   0.0299   6.0636   8.1983   9.1742

     occupation numbers 
     1.0000   1.0000   1.0000   1.0000   0.0000   0.0000   0.0000   0.0000

          k = 0.1242 0.2151 0.0000 ( 11436 PWs)   bands (ev):

   -20.2001  -8.1228  -8.0575  -6.9783   2.6393   3.6605   4.5829   6.3405

     occupation numbers 
     1.0000   1.0000   1.0000   1.0000   0.0000   0.0000   0.0000   0.0000

          k = 0.1242 0.2869 0.0000 ( 11490 PWs)   bands (ev):

   -19.5677  -9.3517  -7.8220  -7.3820   3.5118   4.5168   4.9688   5.4763

     occupation numbers 
     1.0000   1.0000   1.0000   1.0000   0.0000   0.0000   0.0000   0.0000

          k = 0.1242 0.3586 0.0000 ( 11500 PWs)   bands (ev):

   -18.7640 -10.8340  -8.4906  -6.4613   3.3840   4.6295   5.6462   6.6224

     occupation numbers 
     1.0000   1.0000   1.0000   1.0000   0.0000   0.0000   0.0000   0.0000

          k = 0.1242 0.4303 0.0000 ( 11510 PWs)   bands (ev):

   -17.7999 -12.3613  -8.9690  -5.4094   1.8087   5.9860   6.9796   7.3560

     occupation numbers 
     1.0000   1.0000   1.0000   1.0000   0.0000   0.0000   0.0000   0.0000

          k = 0.1242 0.5020 0.0000 ( 11517 PWs)   bands (ev):

   -16.7072 -13.8183  -9.2574  -4.3679   0.4248   7.1941   7.6027   8.4974

     occupation numbers 
     1.0000   1.0000   1.0000   1.0000   0.0000   0.0000   0.0000   0.0000

          k = 0.1242 0.5737 0.0000 ( 11508 PWs)   bands (ev):

   -15.8450 -14.8058  -9.3539  -3.8262  -0.2359   7.1607   9.2996   9.4616

     occupation numbers 
     1.0000   1.0000   1.0000   1.0000   0.0000   0.0000   0.0000   0.0000

          k = 0.1863 0.3227 0.0000 ( 11480 PWs)   bands (ev):

   -18.8530 -10.3357  -8.8930  -6.5570   3.6360   4.5062   5.5036   6.4970

     occupation numbers 
     1.0000   1.0000   1.0000   1.0000   0.0000   0.0000   0.0000   0.0000

          k = 0.1863 0.3944 0.0000 ( 11513 PWs)   bands (ev):

   -17.9741 -11.5530  -9.6986  -5.5707   2.2255   5.7422   6.6958   7.7704

     occupation numbers 
     1.0000   1.0000   1.0000   1.0000   0.0000   0.0000   0.0000   0.0000

          k = 0.1863 0.4661 0.0000 ( 11533 PWs)   bands (ev):

   -16.9494 -12.9174 -10.1780  -4.4940   0.8343   7.2086   8.0382   8.8291

     occupation numbers 
     1.0000   1.0000   1.0000   1.0000   0.0000   0.0000   0.0000   0.0000

          k = 0.1863 0.5378 0.0000 ( 11513 PWs)   bands (ev):

   -15.8620 -14.2052 -10.4023  -3.5738  -0.2547   8.6938   8.9186   9.2104

     occupation numbers 
     1.0000   1.0000   1.0000   1.0000   0.0000   0.0000   0.0000   0.0000

          k = 0.2484 0.4303 0.0000 ( 11496 PWs)   bands (ev):

   -17.0324 -12.3502 -10.7649  -4.5426   1.0112   7.0870   7.8679   9.1676

     occupation numbers 
     1.0000   1.0000   1.0000   1.0000   0.0000   0.0000   0.0000   0.0000

          k = 0.2484 0.5020 0.0000 ( 11505 PWs)   bands (ev):

   -15.9749 -13.3924 -11.3718  -3.4723  -0.1703   8.6363   8.7563  10.4074

     occupation numbers 
     1.0000   1.0000   1.0000   1.0000   0.0000   0.0000   0.0000   0.0000

          k = 0.2484 0.5737 0.0000 ( 11488 PWs)   bands (ev):

   -15.1383 -14.2573 -11.5465  -2.8248  -0.8553   8.9452  10.1878  10.2261

     occupation numbers 
     1.0000   1.0000   1.0000   1.0000   0.0000   0.0000   0.0000   0.0000

          k = 0.3105 0.5378 0.0000 ( 11482 PWs)   bands (ev):

   -14.9564 -13.9673 -12.1852  -2.4228  -1.1897   8.7186  10.1543  11.0476

     occupation numbers 
     1.0000   1.0000   1.0000   1.0000   0.0000   0.0000   0.0000   0.0000

     the Fermi energy is    -1.9646 ev

!    total energy              =     -24.12425012 Ry
     estimated scf accuracy    <          7.4E-09 Ry
     smearing contrib. (-TS)   =       0.00000000 Ry
     internal energy E=F+TS    =     -24.12425012 Ry

     The total energy is F=E-TS. E is the sum of the following terms:
     one-electron contribution =    -152.85106694 Ry
     hartree contribution      =      77.89288920 Ry
     xc contribution           =      -8.59892200 Ry
     ewald contribution        =      59.43284962 Ry

     convergence has been achieved in   9 iterations


     -----------------------------------------------
     Non-local corr. energy    =       0.10401957 Ry
     -----------------------------------------------


     Forces acting on atoms (cartesian axes, Ry/au):

     atom    1 type  1   force =     0.00000000    0.00000000    0.00000000
     atom    2 type  1   force =     0.00000000    0.00000000    0.00000000
     The non-local contrib.  to forces
     atom    1 type  1   force =    -0.00000000   -0.00000000    0.00000000
     atom    2 type  1   force =     0.00000000    0.00000000    0.00000000
     The ionic contribution  to forces
     atom    1 type  1   force =    -0.00000001    0.00000000   -0.00000000
     atom    2 type  1   force =     0.00000001   -0.00000000   -0.00000000
     The local contribution  to forces
     atom    1 type  1   force =    -0.00000000   -0.00000000    0.00000000
     atom    2 type  1   force =     0.00000001   -0.00000000    0.00000000
     The core correction contribution to forces
     atom    1 type  1   force =     0.00000000   -0.00000000    0.00000000
     atom    2 type  1   force =    -0.00000000    0.00000000    0.00000000
     The Hubbard contrib.    to forces
     atom    1 type  1   force =     0.00000000    0.00000000    0.00000000
     atom    2 type  1   force =     0.00000000    0.00000000    0.00000000
     The SCF correction term to forces
     atom    1 type  1   force =     0.00000000    0.00000000    0.00000000
     atom    2 type  1   force =    -0.00000000    0.00000000    0.00000000

     Total force =     0.000000     Total SCF correction =     0.000000


     Computing stress (Cartesian axis) and pressure



     -----------------------------------------------
     Non-local corr. energy    =       0.10401957 Ry
     -----------------------------------------------

          total   stress  (Ry/bohr**3)                   (kbar)     P=        0.12
[...]
     c_bands:  1 eigenvalues not converged
     c_bands:  2 eigenvalues not converged
     c_bands:  1 eigenvalues not converged
     c_bands:  1 eigenvalues not converged
     c_bands:  1 eigenvalues not converged
     ethr =  1.00E-06,  avg # of iterations = 19.4

     negative rho (up, down):  5.911E-07 0.000E+00


     -----------------------------------------------
     Non-local corr. energy    =       0.10450031 Ry
     -----------------------------------------------


     total cpu time spent up to now is       56.1 secs

     total energy              =     -24.09058697 Ry
     estimated scf accuracy    <       0.20008802 Ry

     iteration #  2     ecut=   120.00 Ry     beta= 0.70
     Davidson diagonalization with overlap

---- Real-time Memory Report at c_bands before calling an iterative solver
             0 MiB given to the printing process from OS
             0 MiB allocation reported by mallinfo(arena+hblkhd)
             0 MiB available memory on the node where the printing process lives
------------------
     ethr =  2.50E-03,  avg # of iterations =  2.2

     negative rho (up, down):  1.061E-07 0.000E+00


     -----------------------------------------------
     Non-local corr. energy    =       0.10393711 Ry
     -----------------------------------------------


     total cpu time spent up to now is       57.2 secs

     total energy              =     -24.12376948 Ry
     estimated scf accuracy    <       0.00293571 Ry

     iteration #  3     ecut=   120.00 Ry     beta= 0.70
     Davidson diagonalization with overlap

---- Real-time Memory Report at c_bands before calling an iterative solver
             0 MiB given to the printing process from OS
             0 MiB allocation reported by mallinfo(arena+hblkhd)
             0 MiB available memory on the node where the printing process lives
------------------
     c_bands:  1 eigenvalues not converged
     ethr =  3.67E-05,  avg # of iterations =  8.0


     -----------------------------------------------
     Non-local corr. energy    =       0.10397648 Ry
     -----------------------------------------------


     total cpu time spent up to now is       59.0 secs

     total energy              =     -24.12423504 Ry
     estimated scf accuracy    <       0.00021107 Ry

     iteration #  4     ecut=   120.00 Ry     beta= 0.70
     Davidson diagonalization with overlap

---- Real-time Memory Report at c_bands before calling an iterative solver
             0 MiB given to the printing process from OS
             0 MiB allocation reported by mallinfo(arena+hblkhd)
             0 MiB available memory on the node where the printing process lives
------------------
     ethr =  2.64E-06,  avg # of iterations =  5.5


     -----------------------------------------------
     Non-local corr. energy    =       0.10402384 Ry
     -----------------------------------------------


     total cpu time spent up to now is       60.4 secs

     total energy              =     -24.12424888 Ry
     estimated scf accuracy    <       0.00000177 Ry

     iteration #  5     ecut=   120.00 Ry     beta= 0.70
     Davidson diagonalization with overlap

---- Real-time Memory Report at c_bands before calling an iterative solver
             0 MiB given to the printing process from OS
             0 MiB allocation reported by mallinfo(arena+hblkhd)
             0 MiB available memory on the node where the printing process lives
------------------
     ethr =  2.21E-08,  avg # of iterations =  3.5


     -----------------------------------------------
     Non-local corr. energy    =       0.10402314 Ry
     -----------------------------------------------


     total cpu time spent up to now is       61.6 secs

     total energy              =     -24.12425049 Ry
     estimated scf accuracy    <       0.00000003 Ry

     iteration #  6     ecut=   120.00 Ry     beta= 0.70
     Davidson diagonalization with overlap

---- Real-time Memory Report at c_bands before calling an iterative solver
             0 MiB given to the printing process from OS
             0 MiB allocation reported by mallinfo(arena+hblkhd)
             0 MiB available memory on the node where the printing process lives
------------------
     ethr =  4.34E-10,  avg # of iterations =  2.7


     -----------------------------------------------
     Non-local corr. energy    =       0.10402485 Ry
     -----------------------------------------------


     total cpu time spent up to now is       62.8 secs

     End of self-consistent calculation

          k = 0.0000 0.0000 0.0000 ( 11575 PWs)   bands (ev):

   -21.2967  -9.4298  -4.8888  -4.8888   1.1400   2.1597   3.0496   4.8414

     occupation numbers 
     1.0000   1.0000   1.0000   1.0000   0.0000   0.0000   0.0000   0.0000

          k = 0.0000 0.0717 0.0000 ( 11590 PWs)   bands (ev):

   -21.2048  -9.3194  -5.2607  -5.0836   1.2649   2.2852   3.1772   4.9669

     occupation numbers 
     1.0000   1.0000   1.0000   1.0000   0.0000   0.0000   0.0000   0.0000

          k = 0.0000 0.1434 0.0000 ( 11582 PWs)   bands (ev):

   -20.9297  -8.9898  -6.2624  -5.5874   1.6395   2.6612   3.5601   5.3426

     occupation numbers 
     1.0000   1.0000   1.0000   1.0000   0.0000   0.0000   0.0000   0.0000

          k = 0.0000 0.2151 0.0000 ( 11598 PWs)   bands (ev):

   -20.4732  -8.4463  -7.6615  -6.2364   2.2636   3.2852   4.1980   5.9626

     occupation numbers 
     1.0000   1.0000   1.0000   1.0000   0.0000   0.0000   0.0000   0.0000

          k = 0.0000 0.2868 0.0000 ( 11630 PWs)   bands (ev):

   -19.8383  -9.2543  -7.7001  -6.8910   3.1358   4.1395   5.0900   5.4407

     occupation numbers 
     1.0000   1.0000   1.0000   1.0000   0.0000   0.0000   0.0000   0.0000

          k = 0.0000 0.3585 0.0000 ( 11654 PWs)   bands (ev):

   -19.0305 -10.9032  -7.4617  -6.7736   3.6560   4.2529   5.3228   6.0330

     occupation numbers 
     1.0000   1.0000   1.0000   1.0000   0.0000   0.0000   0.0000   0.0000

          k = 0.0000 0.4302 0.0000 ( 11654 PWs)   bands (ev):

   -18.0600 -12.5183  -7.8965  -5.7188   1.9739   5.5764   5.8779   6.6680

     occupation numbers 
     1.0000   1.0000   1.0000   1.0000   0.0000   0.0000   0.0000   0.0000

          k = 0.0000 0.5020 0.0000 ( 11646 PWs)   bands (ev):

   -16.9571 -14.0234  -8.1668  -4.6872   0.5306   5.6849   7.2291   8.2535

     occupation numbers 
     1.0000   1.0000   1.0000   1.0000   0.0000   0.0000   0.0000   0.0000

          k =-0.0000-0.5737 0.0000 ( 11642 PWs)   bands (ev):

   -16.0826 -15.0346  -8.2584  -4.1645  -0.1343   5.6397   8.9741   9.1155

     occupation numbers 
     1.0000   1.0000   1.0000   1.0000   0.0000   0.0000   0.0000   0.0000

          k = 0.0621 0.1076 0.0000 ( 11573 PWs)   bands (ev):

   -21.0213  -9.0994  -5.9073  -5.4736   1.5147   2.5360   3.4325   5.2176

     occupation numbers 
     1.0000   1.0000   1.0000   1.0000   0.0000   0.0000   0.0000   0.0000

          k = 0.0621 0.1793 0.0000 ( 11577 PWs)   bands (ev):

   -20.6555  -8.6627  -7.0343  -6.1248   2.0142   3.0363   3.9430   5.7173

     occupation numbers 
     1.0000   1.0000   1.0000   1.0000   0.0000   0.0000   0.0000   0.0000

          k = 0.0621 0.2510 0.0000 ( 11624 PWs)   bands (ev):

   -20.1098  -8.4779  -8.0171  -6.8303   2.7627   3.7813   4.7085   6.1030

     occupation numbers 
     1.0000   1.0000   1.0000   1.0000   0.0000   0.0000   0.0000   0.0000

          k = 0.0621 0.3227 0.0000 ( 11640 PWs)   bands (ev):

   -19.3884 -10.0693  -7.4731  -7.1781   3.7583   4.3870   4.8707   5.7268

     occupation numbers 
     1.0000   1.0000   1.0000   1.0000   0.0000   0.0000   0.0000   0.0000

          k = 0.0621 0.3944 0.0000 ( 11661 PWs)   bands (ev):

   -18.4987 -11.6861  -7.9913  -6.1788   2.7571   4.9957   6.0421   6.3417

     occupation numbers 
     1.0000   1.0000   1.0000   1.0000   0.0000   0.0000   0.0000   0.0000

          k = 0.0621 0.4661 0.0000 ( 11657 PWs)   bands (ev):

   -17.4571 -13.2432  -8.3514  -5.1036   1.1727   6.1299   6.5144   7.5071

     occupation numbers 
     1.0000   1.0000   1.0000   1.0000   0.0000   0.0000   0.0000   0.0000

          k = 0.0621 0.5378 0.0000 ( 11650 PWs)   bands (ev):

   -16.3443 -14.6221  -8.5353  -4.2284   0.0278   6.0589   8.1966   9.1723

     occupation numbers 
     1.0000   1.0000   1.0000   1.0000   0.0000   0.0000   0.0000   0.0000

          k = 0.1242 0.2151 0.0000 ( 11596 PWs)   bands (ev):

   -20.2005  -8.1234  -8.0597  -6.9803   2.6385   3.6595   4.5813   6.3792

     occupation numbers 
     1.0000   1.0000   1.0000   1.0000   0.0000   0.0000   0.0000   0.0000

          k = 0.1242 0.2868 0.0000 ( 11615 PWs)   bands (ev):

   -19.5683  -9.3537  -7.8238  -7.3827   3.5108   4.5156   4.9652   5.4745

     occupation numbers 
     1.0000   1.0000   1.0000   1.0000   0.0000   0.0000   0.0000   0.0000

          k = 0.1242 0.3585 0.0000 ( 11637 PWs)   bands (ev):

   -18.7646 -10.8358  -8.4923  -6.4622   3.3808   4.6284   5.6449   6.6206

     occupation numbers 
     1.0000   1.0000   1.0000   1.0000   0.0000   0.0000   0.0000   0.0000

          k = 0.1242 0.4302 0.0000 ( 11646 PWs)   bands (ev):

   -17.8007 -12.3628  -8.9706  -5.4106   1.8060   5.9846   6.9781   7.3514

     occupation numbers 
     1.0000   1.0000   1.0000   1.0000   0.0000   0.0000   0.0000   0.0000

          k = 0.1242 0.5020 0.0000 ( 11662 PWs)   bands (ev):

   -16.7083 -13.8195  -9.2590  -4.3694   0.4225   7.1895   7.6009   8.4956

     occupation numbers 
     1.0000   1.0000   1.0000   1.0000   0.0000   0.0000   0.0000   0.0000

          k = 0.1242 0.5737 0.0000 ( 11644 PWs)   bands (ev):

   -15.8465 -14.8066  -9.3554  -3.8278  -0.2381   7.1559   9.2977   9.4603

     occupation numbers 
     1.0000   1.0000   1.0000   1.0000   0.0000   0.0000   0.0000   0.0000

          k = 0.1863 0.3227 0.0000 ( 11658 PWs)   bands (ev):

   -18.8537 -10.3376  -8.8945  -6.5579   3.6328   4.5051   5.5024   6.4951

     occupation numbers 
     1.0000   1.0000   1.0000   1.0000   0.0000   0.0000   0.0000   0.0000

          k = 0.1863 0.3944 0.0000 ( 11646 PWs)   bands (ev):

   -17.9749 -11.5548  -9.7000  -5.5718   2.2226   5.7409   6.6944   7.7682

     occupation numbers 
     1.0000   1.0000   1.0000   1.0000   0.0000   0.0000   0.0000   0.0000

          k = 0.1863 0.4661 0.0000 ( 11653 PWs)   bands (ev):

   -16.9504 -12.9189 -10.1794  -4.4953   0.8317   7.2070   8.0365   8.8244

     occupation numbers 
     1.0000   1.0000   1.0000   1.0000   0.0000   0.0000   0.0000   0.0000

          k = 0.1863 0.5378 0.0000 ( 11649 PWs)   bands (ev):

   -15.8633 -14.2064 -10.4037  -3.5754  -0.2569   8.6893   8.9164   9.2083

     occupation numbers 
     1.0000   1.0000   1.0000   1.0000   0.0000   0.0000   0.0000   0.0000

          k = 0.2484 0.4302 0.0000 ( 11664 PWs)   bands (ev):

   -17.0334 -12.3519 -10.7660  -4.5440   1.0085   7.0855   7.8662   9.1655

     occupation numbers 
     1.0000   1.0000   1.0000   1.0000   0.0000   0.0000   0.0000   0.0000

          k = 0.2484 0.5020 0.0000 ( 11649 PWs)   bands (ev):

   -15.9761 -13.3939 -11.3728  -3.4739  -0.1726   8.6345   8.7544  10.4026

     occupation numbers 
     1.0000   1.0000   1.0000   1.0000   0.0000   0.0000   0.0000   0.0000

          k = 0.2484 0.5737 0.0000 ( 11632 PWs)   bands (ev):

   -15.1398 -14.2584 -11.5475  -2.8266  -0.8575   8.9432  10.1856  10.2230

     occupation numbers 
     1.0000   1.0000   1.0000   1.0000   0.0000   0.0000   0.0000   0.0000

          k = 0.3105 0.5378 0.0000 ( 11636 PWs)   bands (ev):

   -14.9578 -13.9689 -12.1859  -2.4247  -1.1919   8.7168  10.1519  11.0438

     occupation numbers 
     1.0000   1.0000   1.0000   1.0000   0.0000   0.0000   0.0000   0.0000

     the Fermi energy is    -1.9670 ev

!    total energy              =     -24.12425050 Ry
     estimated scf accuracy    <          1.9E-09 Ry
     smearing contrib. (-TS)   =       0.00000000 Ry
     internal energy E=F+TS    =     -24.12425050 Ry

     The total energy is F=E-TS. E is the sum of the following terms:
     one-electron contribution =    -152.82641923 Ry
     hartree contribution      =      77.88056189 Ry
     xc contribution           =      -8.59861184 Ry
     ewald contribution        =      59.42021868 Ry

     convergence has been achieved in   6 iterations


     -----------------------------------------------
     Non-local corr. energy    =       0.10402485 Ry
     -----------------------------------------------


     Forces acting on atoms (cartesian axes, Ry/au):

     atom    1 type  1   force =     0.00000000    0.00000000    0.00000000
     atom    2 type  1   force =    -0.00000000   -0.00000000    0.00000000
     The non-local contrib.  to forces
     atom    1 type  1   force =     0.00000000    0.00000000    0.00000000
     atom    2 type  1   force =    -0.00000000   -0.00000000    0.00000000
     The ionic contribution  to forces
     atom    1 type  1   force =    -0.00000001    0.00000000   -0.00000000
     atom    2 type  1   force =     0.00000001   -0.00000000   -0.00000000
     The local contribution  to forces
     atom    1 type  1   force =    -0.00000000   -0.00000000   -0.00000000
     atom    2 type  1   force =     0.00000001   -0.00000000   -0.00000000
     The core correction contribution to forces
     atom    1 type  1   force =     0.00000000   -0.00000000   -0.00000000
     atom    2 type  1   force =    -0.00000000    0.00000000   -0.00000000
     The Hubbard contrib.    to forces
     atom    1 type  1   force =     0.00000000    0.00000000    0.00000000
     atom    2 type  1   force =     0.00000000    0.00000000    0.00000000
     The SCF correction term to forces
     atom    1 type  1   force =    -0.00000000   -0.00000000    0.00000000
     atom    2 type  1   force =    -0.00000000   -0.00000000   -0.00000000

     Total force =     0.000000     Total SCF correction =     0.000000


     Computing stress (Cartesian axis) and pressure



     -----------------------------------------------
     Non-local corr. energy    =       0.10402485 Ry
     -----------------------------------------------

          total   stress  (Ry/bohr**3)                   (kbar)     P=        0.00
   0.00000000   0.00000000   0.00000000            0.00        0.00        0.00
   0.00000000   0.00000000   0.00000000            0.00        0.00        0.00
   0.00000000   0.00000000   0.00000005            0.00        0.00        0.01

     kinetic stress (kbar)   3036.66      0.00      0.00
                                0.00   3036.66      0.00
                                0.00      0.00   3341.54

     local   stress (kbar) -45873.45      0.00      0.00
                                0.00 -45873.45     -0.00
                                0.00     -0.00  46777.60

     nonloc. stress (kbar)   -309.20      0.00      0.00
                                0.00   -309.20      0.00
                                0.00      0.00   -258.34

     hartree stress (kbar)  21626.24     -0.00     -0.00
                               -0.00  21626.24      0.00
                               -0.00      0.00 -21392.18

     exc-cor stress (kbar)   -241.45     -0.00      0.00
                               -0.00   -241.45     -0.00
                                0.00     -0.00   -282.90

     corecor stress (kbar)   -460.59      0.00      0.00
                                0.00   -460.59      0.00
                                0.00      0.00   -447.98

     ewald   stress (kbar)  22219.91     -0.00     -0.00
                               -0.00  22219.91     -0.00
                               -0.00     -0.00 -27761.14

     hubbard stress (kbar)      0.00      0.00      0.00
                                0.00      0.00      0.00
                                0.00      0.00      0.00

     DFT-D   stress (kbar)      0.00      0.00      0.00
                                0.00      0.00      0.00
                                0.00      0.00      0.00

     XDM     stress (kbar)      0.00      0.00      0.00
                                0.00      0.00      0.00
                                0.00      0.00      0.00

     dft-nl  stress (kbar)      1.87      0.00     -0.00
                                0.00      1.87      0.00
                               -0.00      0.00     23.41

     TS-vdW  stress (kbar)      0.00      0.00      0.00
                                0.00      0.00      0.00
                                0.00      0.00      0.00

     MDB     stress (kbar)      0.00      0.00      0.00
                                0.00      0.00      0.00
                                0.00      0.00      0.00

     3D-RISM stress (kbar)      0.00      0.00      0.00
                                0.00      0.00      0.00
                                0.00      0.00      0.00


     Writing all to output data dir ./tmp/graphene_PBE-vdW.save/

     init_run     :     11.36s CPU     11.60s WALL (       2 calls)
     electrons    :     39.18s CPU     41.05s WALL (       5 calls)
     update_pot   :      2.14s CPU      2.21s WALL (       3 calls)
     forces       :      2.44s CPU      2.55s WALL (       5 calls)
     stress       :      6.70s CPU      7.30s WALL (       5 calls)

     Called by init_run:
     wfcinit      :      0.59s CPU      0.63s WALL (       2 calls)
     wfcinit:atom :      0.01s CPU      0.01s WALL (      60 calls)
     wfcinit:wfcr :      0.53s CPU      0.57s WALL (      60 calls)
     potinit      :      9.66s CPU      9.81s WALL (       2 calls)
     hinit0       :      0.86s CPU      0.89s WALL (       2 calls)

     Called by electrons:
     c_bands      :     31.34s CPU     32.49s WALL (      31 calls)
     sum_band     :      3.92s CPU      4.06s WALL (      31 calls)
     v_of_rho     :     13.46s CPU     14.10s WALL (      35 calls)
     v_h          :      0.05s CPU      0.05s WALL (      35 calls)
     v_xc         :     14.65s CPU     15.54s WALL (      45 calls)
     mix_rho      :      0.11s CPU      0.21s WALL (      31 calls)
     vdW_kernel   :      9.12s CPU      9.24s WALL (       1 calls)

     Called by c_bands:
     init_us_2    :      0.57s CPU      0.58s WALL (    2220 calls)
     init_us_2:cp :      0.56s CPU      0.58s WALL (    2220 calls)
     cegterg      :     30.47s CPU     31.57s WALL (     930 calls)

     Called by sum_band:
     sum_band:wei :      0.00s CPU      0.00s WALL (      31 calls)
     sum_band:loo :      3.81s CPU      3.95s WALL (      31 calls)
     sum_band:buf :      0.08s CPU      0.08s WALL (     930 calls)
     sum_band:ini :      0.25s CPU      0.26s WALL (     930 calls)

     Called by *egterg:
     cdiaghg      :      0.58s CPU      0.61s WALL (    4972 calls)
     cegterg:over :      1.59s CPU      1.66s WALL (    4162 calls)
     cegterg:upda :      1.25s CPU      1.39s WALL (    4162 calls)
     cegterg:last :      1.45s CPU      1.33s WALL (    2462 calls)
     h_psi        :     25.00s CPU     25.85s WALL (    5152 calls)
     g_psi        :      0.17s CPU      0.21s WALL (    4162 calls)

     Called by h_psi:
     h_psi:calbec :      1.33s CPU      1.39s WALL (    5152 calls)
     vloc_psi     :     22.19s CPU     22.99s WALL (    5152 calls)
     add_vuspsi   :      1.27s CPU      1.23s WALL (    5152 calls)

     General routines
     calbec       :      1.68s CPU      1.73s WALL (    5902 calls)
     fft          :      2.53s CPU      2.63s WALL (    2944 calls)
     ffts         :      0.02s CPU      0.02s WALL (      31 calls)
     fftw         :     22.38s CPU     23.11s WALL (   55832 calls)

     Parallel routines

     PWSCF        :   1m 1.96s CPU   1m 4.97s WALL


   This run was terminated on:  15:24: 7   8Apr2024            

=------------------------------------------------------------------------------=
   JOB DONE.
=------------------------------------------------------------------------------=
