
     Program PWSCF v.7.2 starts on 15Apr2024 at 13:55:58 

     This program is part of the open-source Quantum ESPRESSO suite
     for quantum simulation of materials; please cite
         "P. Giannozzi et al., J. Phys.:Condens. Matter 21 395502 (2009);
         "P. Giannozzi et al., J. Phys.:Condens. Matter 29 465901 (2017);
         "P. Giannozzi et al., J. Chem. Phys. 152 154105 (2020);
          URL http://www.quantum-espresso.org", 
     in publications or presentations arising from this work. More details at
     http://www.quantum-espresso.org/quote

     Parallel version (MPI & OpenMP), running on       1 processor cores
     Number of MPI processes:                 1
     Threads/MPI process:                     1

     MPI processes distributed on     1 nodes
     0 MiB available memory on the printing compute node when the environment starts

     Waiting for input...
     Reading input from standard input
Warning: card &CELL ignored
Warning: card CELL_DOFREE = 'ALL' ignored
Warning: card / ignored

     Current dimensions of program PWSCF are:
     Max number of different atomic species (ntypx) = 10
     Max number of k-points (npk) =  40000
     Max angular momentum in pseudopotentials (lmaxx) =  4

     IMPORTANT: XC functional enforced from input :
     Exchange-correlation= VDW-DF2-B86R
                           (   1   4  26   0   2   0   0)
     Any further DFT definition will be discarded
     Please, verify this is what you really want


     Subspace diagonalization in iterative solution of the eigenvalue problem:
     a serial algorithm will be used


     G-vector sticks info
     --------------------
     sticks:   dense  smooth     PW     G-vecs:    dense   smooth      PW
     Sum         721     721    211               124857   124857   19791

     Using Slab Decomposition



     bravais-lattice index     =            4
     lattice parameter (alat)  =       4.6654  a.u.
     unit-cell volume          =     703.5285 (a.u.)^3
     number of atoms/cell      =            4
     number of atomic types    =            1
     number of electrons       =        16.00
     number of Kohn-Sham states=           12
     kinetic-energy cutoff     =     120.0000  Ry
     charge density cutoff     =     480.0000  Ry
     scf convergence threshold =      1.0E-06
     mixing beta               =       0.7000
     number of iterations used =            8  plain     mixing
     energy convergence thresh.=      1.0E-04
     force convergence thresh. =      1.0E-03
     Exchange-correlation= VDW-DF2-B86R
                           (   1   4  26   0   2   0   0)
     nstep                     =           50


     celldm(1)=   4.665380  celldm(2)=   0.000000  celldm(3)=   8.000000
     celldm(4)=   0.000000  celldm(5)=   0.000000  celldm(6)=   0.000000

     crystal axes: (cart. coord. in units of alat)
               a(1) = (   1.000000   0.000000   0.000000 )  
               a(2) = (  -0.500000   0.866025   0.000000 )  
               a(3) = (   0.000000   0.000000   8.000000 )  

     reciprocal axes: (cart. coord. in units 2 pi/alat)
               b(1) = (  1.000000  0.577350 -0.000000 )  
               b(2) = (  0.000000  1.154701  0.000000 )  
               b(3) = (  0.000000 -0.000000  0.125000 )  


     PseudoPot. # 1 for C  read from file:
     ../../../../Pseudo/PBE/C.upf
     MD5 check sum: 34a24e64c0a39f27c6c36b90a16ac686
     Pseudo is Norm-conserving + core correction, Zval =  4.0
     Generated using ONCVPSP code by D. R. Hamann
     Using radial grid of 1248 points,  4 beta functions with: 
                l(1) =   0
                l(2) =   0
                l(3) =   1
                l(4) =   1

     atomic species   valence    mass     pseudopotential
        C              4.00    12.01100     C ( 1.00)

     12 Sym. Ops. (no inversion) found ( 6 have fractional translation)


                                    s                        frac. trans.

      isym =  1     identity                                     

 cryst.   s( 1) = (     1          0          0      )
                  (     0          1          0      )
                  (     0          0          1      )

 cart.    s( 1) = (  1.0000000  0.0000000  0.0000000 )
                  (  0.0000000  1.0000000  0.0000000 )
                  (  0.0000000  0.0000000  1.0000000 )


      isym =  2     180 deg rotation - cart. axis [0,0,1]        

 cryst.   s( 2) = (    -1          0          0      )    f =(  0.3333330 )
                  (     0         -1          0      )       ( -0.3333330 )
                  (     0          0          1      )       (  0.0000000 )

 cart.    s( 2) = ( -1.0000000  0.0000000  0.0000000 )    f =(  0.4999995 )
                  (  0.0000000 -1.0000000  0.0000000 )       ( -0.2886748 )
                  (  0.0000000  0.0000000  1.0000000 )       (  0.0000000 )


      isym =  3      60 deg rotation - cryst. axis [0,0,1]       

 cryst.   s( 3) = (     1          1          0      )    f =(  0.3333340 )
                  (    -1          0          0      )       ( -0.3333330 )
                  (     0          0          1      )       (  0.0000000 )

 cart.    s( 3) = (  0.5000000 -0.8660254  0.0000000 )    f =(  0.5000005 )
                  (  0.8660254  0.5000000  0.0000000 )       ( -0.2886748 )
                  (  0.0000000  0.0000000  1.0000000 )       (  0.0000000 )


      isym =  4      60 deg rotation - cryst. axis [0,0,-1]      

 cryst.   s( 4) = (     0         -1          0      )    f =(  0.3333330 )
                  (     1          1          0      )       ( -0.3333340 )
                  (     0          0          1      )       (  0.0000000 )

 cart.    s( 4) = (  0.5000000  0.8660254  0.0000000 )    f =(  0.5000000 )
                  ( -0.8660254  0.5000000  0.0000000 )       ( -0.2886757 )
                  (  0.0000000  0.0000000  1.0000000 )       (  0.0000000 )


      isym =  5     120 deg rotation - cryst. axis [0,0,1]       

 cryst.   s( 5) = (     0          1          0      )
                  (    -1         -1          0      )
                  (     0          0          1      )

 cart.    s( 5) = ( -0.5000000 -0.8660254  0.0000000 )
                  (  0.8660254 -0.5000000  0.0000000 )
                  (  0.0000000  0.0000000  1.0000000 )


      isym =  6     120 deg rotation - cryst. axis [0,0,-1]      

 cryst.   s( 6) = (    -1         -1          0      )
                  (     1          0          0      )
                  (     0          0          1      )

 cart.    s( 6) = ( -0.5000000  0.8660254  0.0000000 )
                  ( -0.8660254 -0.5000000  0.0000000 )
                  (  0.0000000  0.0000000  1.0000000 )


      isym =  7     inv. 180 deg rotation - cart. axis [0,1,0]   

 cryst.   s( 7) = (     1          0          0      )    f =(  0.3333340 )
                  (    -1         -1          0      )       ( -0.3333330 )
                  (     0          0          1      )       (  0.0000000 )

 cart.    s( 7) = (  1.0000000  0.0000000  0.0000000 )    f =(  0.5000005 )
                  (  0.0000000 -1.0000000  0.0000000 )       ( -0.2886748 )
                  (  0.0000000  0.0000000  1.0000000 )       (  0.0000000 )


      isym =  8     inv. 180 deg rotation - cart. axis [1,0,0]   

 cryst.   s( 8) = (    -1          0          0      )
                  (     1          1          0      )
                  (     0          0          1      )

 cart.    s( 8) = ( -1.0000000  0.0000000  0.0000000 )
                  (  0.0000000  1.0000000  0.0000000 )
                  (  0.0000000  0.0000000  1.0000000 )


      isym =  9     inv. 180 deg rotation - cryst. axis [1,-1,0] 

 cryst.   s( 9) = (     0          1          0      )    f =(  0.3333330 )
                  (     1          0          0      )       ( -0.3333330 )
                  (     0          0          1      )       (  0.0000000 )

 cart.    s( 9) = ( -0.5000000  0.8660254  0.0000000 )    f =(  0.4999995 )
                  (  0.8660254  0.5000000  0.0000000 )       ( -0.2886748 )
                  (  0.0000000  0.0000000  1.0000000 )       (  0.0000000 )


      isym = 10     inv. 180 deg rotation - cryst. axis [2,1,0]  

 cryst.   s(10) = (    -1         -1          0      )    f =(  0.3333330 )
                  (     0          1          0      )       ( -0.3333340 )
                  (     0          0          1      )       (  0.0000000 )

 cart.    s(10) = ( -0.5000000 -0.8660254  0.0000000 )    f =(  0.5000000 )
                  ( -0.8660254  0.5000000  0.0000000 )       ( -0.2886757 )
                  (  0.0000000  0.0000000  1.0000000 )       (  0.0000000 )


      isym = 11     inv. 180 deg rotation - cryst. axis [0,1,0]  

 cryst.   s(11) = (     1          1          0      )
                  (     0         -1          0      )
                  (     0          0          1      )

 cart.    s(11) = (  0.5000000  0.8660254  0.0000000 )
                  (  0.8660254 -0.5000000  0.0000000 )
                  (  0.0000000  0.0000000  1.0000000 )


      isym = 12     inv. 180 deg rotation - cryst. axis [1,1,0]  

 cryst.   s(12) = (     0         -1          0      )
                  (    -1          0          0      )
                  (     0          0          1      )

 cart.    s(12) = (  0.5000000 -0.8660254  0.0000000 )
                  ( -0.8660254 -0.5000000  0.0000000 )
                  (  0.0000000  0.0000000  1.0000000 )


     point group C_6v (6mm) 
     there are  6 classes
     the character table:

       E     2C6   2C3   C2    3s_v  3s_d 
A_1    1.00  1.00  1.00  1.00  1.00  1.00
A_2    1.00  1.00  1.00  1.00 -1.00 -1.00
B_1    1.00 -1.00  1.00 -1.00  1.00 -1.00
B_2    1.00 -1.00  1.00 -1.00 -1.00  1.00
E_1    2.00  1.00 -1.00 -2.00  0.00  0.00
E_2    2.00 -1.00 -1.00  2.00  0.00  0.00

     the symmetry operations in each class and the name of the first element:

     E        1
          identity                                               
     2C6      3    4
           60 deg rotation - cryst. axis [0,0,1]                 
     2C3      5    6
          120 deg rotation - cryst. axis [0,0,1]                 
     C2       2
          180 deg rotation - cart. axis [0,0,1]                  
     3s_v     8   12   11
          inv. 180 deg rotation - cart. axis [1,0,0]             
     3s_d     7    9   10
          inv. 180 deg rotation - cart. axis [0,1,0]             

   Cartesian axes

     site n.     atom                  positions (alat units)
         1           C   tau(   1) = (   0.0000000   0.0000000   0.0000000  )
         2           C   tau(   2) = (   0.5000005   0.2886748   0.0000000  )
         3           C   tau(   3) = (   0.0000000   0.0000000   1.3404640  )
         4           C   tau(   4) = (   0.5000005   0.2886748   1.3404640  )

   Crystallographic axes

     site n.     atom                  positions (cryst. coord.)
         1           C   tau(   1) = (  0.0000000  0.0000000  0.0000000  )
         2           C   tau(   2) = (  0.6666670  0.3333330  0.0000000  )
         3           C   tau(   3) = (  0.0000000  0.0000000  0.1675580  )
         4           C   tau(   4) = (  0.6666670  0.3333330  0.1675580  )

     number of k points=    19  Marzari-Vanderbilt smearing, width (Ry)=  0.0050
                       cart. coord. in units 2pi/alat
        k(    1) = (   0.0000000   0.0000000   0.0000000), wk =   0.0138889
        k(    2) = (   0.0000000   0.0962250   0.0000000), wk =   0.0833333
        k(    3) = (   0.0000000   0.1924501   0.0000000), wk =   0.0833333
        k(    4) = (   0.0000000   0.2886751   0.0000000), wk =   0.0833333
        k(    5) = (   0.0000000   0.3849002   0.0000000), wk =   0.0833333
        k(    6) = (   0.0000000   0.4811252   0.0000000), wk =   0.0833333
        k(    7) = (   0.0000000  -0.5773503   0.0000000), wk =   0.0416667
        k(    8) = (   0.0833333   0.1443376   0.0000000), wk =   0.0833333
        k(    9) = (   0.0833333   0.2405626   0.0000000), wk =   0.1666667
        k(   10) = (   0.0833333   0.3367877   0.0000000), wk =   0.1666667
        k(   11) = (   0.0833333   0.4330127   0.0000000), wk =   0.1666667
        k(   12) = (   0.0833333   0.5292377   0.0000000), wk =   0.1666667
        k(   13) = (   0.1666667   0.2886751   0.0000000), wk =   0.0833333
        k(   14) = (   0.1666667   0.3849002   0.0000000), wk =   0.1666667
        k(   15) = (   0.1666667   0.4811252   0.0000000), wk =   0.1666667
        k(   16) = (   0.1666667   0.5773503   0.0000000), wk =   0.0833333
        k(   17) = (   0.2500000   0.4330127   0.0000000), wk =   0.0833333
        k(   18) = (   0.2500000   0.5292377   0.0000000), wk =   0.1666667
        k(   19) = (   0.3333333   0.5773503   0.0000000), wk =   0.0277778

                       cryst. coord.
        k(    1) = (   0.0000000   0.0000000   0.0000000), wk =   0.0138889
        k(    2) = (   0.0000000   0.0833333   0.0000000), wk =   0.0833333
        k(    3) = (   0.0000000   0.1666667   0.0000000), wk =   0.0833333
        k(    4) = (   0.0000000   0.2500000   0.0000000), wk =   0.0833333
        k(    5) = (   0.0000000   0.3333333   0.0000000), wk =   0.0833333
        k(    6) = (   0.0000000   0.4166667   0.0000000), wk =   0.0833333
        k(    7) = (   0.0000000  -0.5000000   0.0000000), wk =   0.0416667
        k(    8) = (   0.0833333   0.0833333   0.0000000), wk =   0.0833333
        k(    9) = (   0.0833333   0.1666667   0.0000000), wk =   0.1666667
        k(   10) = (   0.0833333   0.2500000   0.0000000), wk =   0.1666667
        k(   11) = (   0.0833333   0.3333333   0.0000000), wk =   0.1666667
        k(   12) = (   0.0833333   0.4166667   0.0000000), wk =   0.1666667
        k(   13) = (   0.1666667   0.1666667   0.0000000), wk =   0.0833333
        k(   14) = (   0.1666667   0.2500000   0.0000000), wk =   0.1666667
        k(   15) = (   0.1666667   0.3333333   0.0000000), wk =   0.1666667
        k(   16) = (   0.1666667   0.4166667   0.0000000), wk =   0.0833333
        k(   17) = (   0.2500000   0.2500000   0.0000000), wk =   0.0833333
        k(   18) = (   0.2500000   0.3333333   0.0000000), wk =   0.1666667
        k(   19) = (   0.3333333   0.3333333   0.0000000), wk =   0.0277778

     Dense  grid:   124857 G-vectors     FFT dimensions: (  36,  36, 270)

     Dynamical RAM for                 wfc:       2.86 MB

     Dynamical RAM for     wfc (w. buffer):      57.19 MB

     Dynamical RAM for           str. fact:       1.91 MB

     Dynamical RAM for           local pot:       0.00 MB

     Dynamical RAM for          nlocal pot:       7.63 MB

     Dynamical RAM for                qrad:       0.50 MB

     Dynamical RAM for          rho,v,vnew:      13.72 MB

     Dynamical RAM for               rhoin:       4.57 MB

     Dynamical RAM for            rho*nmix:      30.48 MB

     Dynamical RAM for           G-vectors:       8.10 MB

     Dynamical RAM for          h,s,v(r/c):       0.03 MB

     Dynamical RAM for          <psi|beta>:       0.01 MB

     Dynamical RAM for                 psi:       5.72 MB

     Dynamical RAM for                hpsi:       5.72 MB

     Dynamical RAM for      wfcinit/wfcrot:       7.63 MB

     Estimated static dynamical RAM per process >     110.78 MB

     Estimated max dynamical RAM per process >     152.73 MB

     Initial potential from superposition of free atoms

     starting charge      15.9998, renormalised to      16.0000

     negative rho (up, down):  3.218E-06 0.000E+00


     %%%%%%%%%%%%%%%%%%%%%%%%%%%%%%%%%%%%%%%%%%%%%%%%%%%%%%%%%%%%%%%%%%%%%%%%
     %                                                                      %
     % You are using vdW-DF, which was implemented by the Thonhauser group. %
     % Please cite the following two papers that made this development      %
     % possible and the two reviews that describe the various versions:     %
     %                                                                      %
     %   T. Thonhauser et al., PRL 115, 136402 (2015).                      %
     %   T. Thonhauser et al., PRB 76, 125112 (2007).                       %
     %   K. Berland et al., Rep. Prog. Phys. 78, 066501 (2015).             %
     %   D.C. Langreth et al., J. Phys.: Condens. Matter 21, 084203 (2009). %
     %                                                                      %
     % If you are calculating stress with vdW-DF, please also cite:         %
     %                                                                      %
     %   R. Sabatini et al., J. Phys.: Condens. Matter 24, 424209 (2012).   %
     %                                                                      %
     %%%%%%%%%%%%%%%%%%%%%%%%%%%%%%%%%%%%%%%%%%%%%%%%%%%%%%%%%%%%%%%%%%%%%%%%

     %%%%%%%%%%%%%%%%%%%%%%%%%%%%%%%%%%%%%%%%%%%%%%%%%%%%%%%%%%%%%%%%%%%%%%%%
     %                                                                      %
     %  vdW-DF NEWS:                                                        %
     %                                                                      %
     %  * vdW-DF3 is now available. DOI: 10.1021/acs.jctc.0c00471           %
     %    use with input_dft = 'vdW-DF3-opt1' or 'vdW-DF3-opt2'             %
     %                                                                      %
     %  * Unscreened and range-separated hybrid vdW-DF-cx functionals       %
     %    DOI: 10.1063/1.4986522 and 10.1088/1361-648X/ac2ad2               %
     %    use with input_dft = 'vdW-DF-cx0'    and 'vdW-DF-ahcx'            %
     %  * Unscreened and range-separated hybrid vdW-DF2-b86r functionals    %
     %    DOI: 10.1063/1.4986522 and DOI: 10.1103/PhysRevX.12.041003        %
     %    use with input_dft = 'vdW-DF2-br0' and 'vdW-DF2-ahbr'             %
     %                                                                      %
     %%%%%%%%%%%%%%%%%%%%%%%%%%%%%%%%%%%%%%%%%%%%%%%%%%%%%%%%%%%%%%%%%%%%%%%%


     Carrying out vdW-DF run using the following parameters:
     Nqs    =  20  Npoints =  1024  r_max =  100.000
     q_mesh =  0.00001000  0.04494208  0.09755937  0.15916263
               0.23128650  0.31572767  0.41458969  0.53033537
               0.66584808  0.82450364  1.01025438  1.22772762
               1.48234092  1.78043706  2.12944203  2.53805004
               3.01644009  3.57652955  4.23227104  5.00000000


     -----------------------------------------------
     Non-local corr. energy    =       0.17033888 Ry
     -----------------------------------------------

     Starting wfcs are   16 randomized atomic wfcs

     total cpu time spent up to now is       62.7 secs

     Self-consistent Calculation

     iteration #  1     ecut=   120.00 Ry     beta= 0.70
     Davidson diagonalization with overlap

---- Real-time Memory Report at c_bands before calling an iterative solver
             0 MiB given to the printing process from OS
             0 MiB allocation reported by mallinfo(arena+hblkhd)
             0 MiB available memory on the node where the printing process lives
------------------
     ethr =  1.00E-02,  avg # of iterations =  3.3


     -----------------------------------------------
     Non-local corr. energy    =       0.19380194 Ry
     -----------------------------------------------


     total cpu time spent up to now is       68.6 secs

     total energy              =     -48.21071024 Ry
     estimated scf accuracy    <       0.34567411 Ry

     iteration #  2     ecut=   120.00 Ry     beta= 0.70
     Davidson diagonalization with overlap

---- Real-time Memory Report at c_bands before calling an iterative solver
             0 MiB given to the printing process from OS
             0 MiB allocation reported by mallinfo(arena+hblkhd)
             0 MiB available memory on the node where the printing process lives
------------------
     ethr =  2.16E-03,  avg # of iterations =  4.7


     -----------------------------------------------
     Non-local corr. energy    =       0.19468806 Ry
     -----------------------------------------------


     total cpu time spent up to now is       73.9 secs

     total energy              =     -48.25236053 Ry
     estimated scf accuracy    <       0.00537104 Ry

     iteration #  3     ecut=   120.00 Ry     beta= 0.70
     Davidson diagonalization with overlap

---- Real-time Memory Report at c_bands before calling an iterative solver
             0 MiB given to the printing process from OS
             0 MiB allocation reported by mallinfo(arena+hblkhd)
             0 MiB available memory on the node where the printing process lives
------------------
     c_bands:  2 eigenvalues not converged
     ethr =  3.36E-05,  avg # of iterations = 11.6


     -----------------------------------------------
     Non-local corr. energy    =       0.19432910 Ry
     -----------------------------------------------


     total cpu time spent up to now is       82.1 secs

     total energy              =     -48.25378231 Ry
     estimated scf accuracy    <       0.00130118 Ry

     iteration #  4     ecut=   120.00 Ry     beta= 0.70
     Davidson diagonalization with overlap

---- Real-time Memory Report at c_bands before calling an iterative solver
             0 MiB given to the printing process from OS
             0 MiB allocation reported by mallinfo(arena+hblkhd)
             0 MiB available memory on the node where the printing process lives
------------------
     ethr =  8.13E-06,  avg # of iterations =  4.1


     -----------------------------------------------
     Non-local corr. energy    =       0.19425301 Ry
     -----------------------------------------------


     total cpu time spent up to now is       87.3 secs

     total energy              =     -48.25413044 Ry
     estimated scf accuracy    <       0.00059996 Ry

     iteration #  5     ecut=   120.00 Ry     beta= 0.70
     Davidson diagonalization with overlap

---- Real-time Memory Report at c_bands before calling an iterative solver
             0 MiB given to the printing process from OS
             0 MiB allocation reported by mallinfo(arena+hblkhd)
             0 MiB available memory on the node where the printing process lives
------------------
     ethr =  3.75E-06,  avg # of iterations =  3.9


     -----------------------------------------------
     Non-local corr. energy    =       0.19442842 Ry
     -----------------------------------------------


     total cpu time spent up to now is       92.4 secs

     total energy              =     -48.25424318 Ry
     estimated scf accuracy    <       0.00000884 Ry

     iteration #  6     ecut=   120.00 Ry     beta= 0.70
     Davidson diagonalization with overlap

---- Real-time Memory Report at c_bands before calling an iterative solver
             0 MiB given to the printing process from OS
             0 MiB allocation reported by mallinfo(arena+hblkhd)
             0 MiB available memory on the node where the printing process lives
------------------
     ethr =  5.53E-08,  avg # of iterations =  3.1


     -----------------------------------------------
     Non-local corr. energy    =       0.19439587 Ry
     -----------------------------------------------


     total cpu time spent up to now is       98.0 secs

     End of self-consistent calculation

          k = 0.0000 0.0000 0.0000 ( 15581 PWs)   bands (ev):

   -20.1454 -19.9707  -8.7338  -7.6483  -3.6514  -3.6514  -3.6285  -3.6285
     2.5700   2.9987   4.1459   5.2692

     occupation numbers 
     1.0000   1.0000   1.0000   1.0000   1.0000   1.0000   1.0000   1.0000
     0.0000   0.0000   0.0000   0.0000

          k = 0.0000 0.0962 0.0000 ( 15560 PWs)   bands (ev):

   -19.9812 -19.8082  -8.5352  -7.4556  -4.3020  -4.2725  -3.9885  -3.9640
     2.7899   3.2206   4.3721   5.4938

     occupation numbers 
     1.0000   1.0000   1.0000   1.0000   1.0000   1.0000   1.0000   1.0000
     0.0000   0.0000   0.0000   0.0000

          k = 0.0000 0.1925 0.0000 ( 15558 PWs)   bands (ev):

   -19.4904 -19.3223  -7.9444  -6.8830  -5.9404  -5.8954  -4.7790  -4.7514
     3.4488   3.8848   5.0502   6.1667

     occupation numbers 
     1.0000   1.0000   1.0000   1.0000   1.0000   1.0000   1.0000   1.0000
     0.0000   0.0000   0.0000   0.0000

          k = 0.0000 0.2887 0.0000 ( 15612 PWs)   bands (ev):

   -18.6788 -18.5187  -8.0405  -7.9771  -6.9790  -5.9507  -5.6579  -5.6276
     4.5433   4.9799   6.1737   6.3453

     occupation numbers 
     1.0000   1.0000   1.0000   1.0000   1.0000   1.0000   1.0000   1.0000
     0.0000   0.0000   0.0000   0.0000

          k = 0.0000 0.3849 0.0000 ( 15662 PWs)   bands (ev):

   -17.5588 -17.4093 -10.2457 -10.1638  -6.3913  -6.3592  -5.6868  -4.7118
     3.9623   4.6662   6.0628   6.5617

     occupation numbers 
     1.0000   1.0000   1.0000   1.0000   1.0000   1.0000   1.0000   1.0000
     0.0000   0.0000   0.0000   0.0000

          k = 0.0000 0.4811 0.0000 ( 15634 PWs)   bands (ev):

   -16.1623 -16.0252 -12.3470 -12.2480  -6.8645  -6.8313  -4.2244  -3.3342
     1.7501   2.6243   6.8300   7.0629

     occupation numbers 
     1.0000   1.0000   1.0000   1.0000   1.0000   1.0000   1.0000   1.0000
     0.0000   0.0000   0.0000   0.0000

          k = 0.0000-0.5774 0.0000 ( 15610 PWs)   bands (ev):

   -14.9054 -14.7746 -13.8468 -13.7397  -7.0269  -6.9934  -3.3392  -2.5312
     0.5995   1.5827   6.7502   6.9809

     occupation numbers 
     1.0000   1.0000   1.0000   1.0000   1.0000   1.0000   1.0000   1.0000
     0.0000   0.0000   0.0000   0.0000

          k = 0.0833 0.1443 0.0000 ( 15550 PWs)   bands (ev):

   -19.6537 -19.4840  -8.1404  -7.0728  -5.3369  -5.2982  -4.6637  -4.6346
     3.2295   3.6638   4.8243   5.9430

     occupation numbers 
     1.0000   1.0000   1.0000   1.0000   1.0000   1.0000   1.0000   1.0000
     0.0000   0.0000   0.0000   0.0000

          k = 0.0833 0.2406 0.0000 ( 15567 PWs)   bands (ev):

   -19.0025 -18.8393  -7.3614  -7.0481  -6.9944  -6.3191  -5.6602  -5.6252
     4.1075   4.5467   5.7284   6.8381

     occupation numbers 
     1.0000   1.0000   1.0000   1.0000   1.0000   1.0000   1.0000   1.0000
     0.0000   0.0000   0.0000   0.0000

          k = 0.0833 0.3368 0.0000 ( 15618 PWs)   bands (ev):

   -18.0365 -17.8826  -9.1227  -9.0508  -6.5468  -6.5082  -6.2262  -5.2266
     5.0262   5.4224   5.5726   5.9517

     occupation numbers 
     1.0000   1.0000   1.0000   1.0000   1.0000   1.0000   1.0000   1.0000
     0.0000   0.0000   0.0000   0.0000

          k = 0.0833 0.4330 0.0000 ( 15647 PWs)   bands (ev):

   -16.7750 -16.6328 -11.2470 -11.1571  -7.1820  -7.1415  -4.8161  -3.8833
     2.7496   3.5148   7.1312   7.6850

     occupation numbers 
     1.0000   1.0000   1.0000   1.0000   1.0000   1.0000   1.0000   1.0000
     0.0000   0.0000   0.0000   0.0000

          k = 0.0833 0.5292 0.0000 ( 15644 PWs)   bands (ev):

   -15.2968 -15.1663 -13.1873 -13.0825  -7.5108  -7.4693  -3.4593  -2.6252
     0.9104   1.8248   7.4743   7.7185

     occupation numbers 
     1.0000   1.0000   1.0000   1.0000   1.0000   1.0000   1.0000   1.0000
     0.0000   0.0000   0.0000   0.0000

          k = 0.1667 0.2887 0.0000 ( 15608 PWs)   bands (ev):

   -18.1969 -18.0415  -8.3824  -8.3182  -7.0197  -6.9724  -6.4085  -5.4009
     5.2021   5.5072   5.6443   6.0537

     occupation numbers 
     1.0000   1.0000   1.0000   1.0000   1.0000   1.0000   1.0000   1.0000
     0.0000   0.0000   0.0000   0.0000

          k = 0.1667 0.3849 0.0000 ( 15631 PWs)   bands (ev):

   -17.0878 -16.9429 -10.1110 -10.0315  -8.0765  -8.0221  -5.1315  -4.1773
     3.5195   4.1630   6.7210   7.1645

     occupation numbers 
     1.0000   1.0000   1.0000   1.0000   1.0000   1.0000   1.0000   1.0000
     0.0000   0.0000   0.0000   0.0000

          k = 0.1667 0.4811 0.0000 ( 15642 PWs)   bands (ev):

   -15.7114 -15.5788 -12.0213 -11.9254  -8.6541  -8.5966  -3.6673  -2.7932
     1.5508   2.3174   8.6264   9.3368

     occupation numbers 
     1.0000   1.0000   1.0000   1.0000   1.0000   1.0000   1.0000   1.0000
     0.0000   0.0000   0.0000   0.0000

          k = 0.1667 0.5774 0.0000 ( 15640 PWs)   bands (ev):

   -14.4829 -14.3575 -13.4501 -13.3454  -8.8395  -8.7812  -2.7362  -1.9402
     0.4359   1.2985   9.2054   9.5352

     occupation numbers 
     1.0000   1.0000   1.0000   1.0000   1.0000   1.0000   1.0000   1.0000
     0.0000   0.0000   0.0000   0.0000

          k = 0.2500 0.4330 0.0000 ( 15658 PWs)   bands (ev):

   -15.8588 -15.7252 -11.1516 -11.0627  -9.5560  -9.4887  -3.7592  -2.8693
     1.8934   2.5734   8.4211   8.8138

     occupation numbers 
     1.0000   1.0000   1.0000   1.0000   1.0000   1.0000   1.0000   1.0000
     0.0000   0.0000   0.0000   0.0000

          k = 0.2500 0.5292 0.0000 ( 15617 PWs)   bands (ev):

   -14.4377 -14.3161 -12.5712 -12.4699 -10.2649 -10.1921  -2.3343  -1.5268
     0.3429   1.0909   9.3877  10.4430

     occupation numbers 
     1.0000   1.0000   1.0000   1.0000   1.0000   1.0000   1.0000   1.0000
     0.0000   0.0000   0.0000   0.0000

          k = 0.3333 0.5774 0.0000 ( 15606 PWs)   bands (ev):

   -13.2217 -13.2216 -13.1112 -13.1112 -11.1522 -11.0741  -0.9555  -0.9555
    -0.1986  -0.1986   8.9186  10.8400

     occupation numbers 
     1.0000   1.0000   1.0000   1.0000   1.0000   1.0000   1.0000   1.0000
     0.0000   0.0000   0.0000   0.0000

     the Fermi energy is    -0.6094 ev

!    total energy              =     -48.25424633 Ry
     estimated scf accuracy    <       0.00000092 Ry
     smearing contrib. (-TS)   =       0.00000000 Ry
     internal energy E=F+TS    =     -48.25424633 Ry

     The total energy is F=E-TS. E is the sum of the following terms:
     one-electron contribution =    -528.90495801 Ry
     hartree contribution      =     268.12380196 Ry
     xc contribution           =     -17.21472847 Ry
     ewald contribution        =     229.74163819 Ry

     convergence has been achieved in   6 iterations


     -----------------------------------------------
     Non-local corr. energy    =       0.19439587 Ry
     -----------------------------------------------


     Forces acting on atoms (cartesian axes, Ry/au):

     atom    1 type  1   force =     0.00000000   -0.00000000   -0.00198756
     atom    2 type  1   force =    -0.00000000   -0.00000000   -0.00198756
     atom    3 type  1   force =     0.00000000    0.00000000    0.00198756
     atom    4 type  1   force =     0.00000000   -0.00000000    0.00198756
     The non-local contrib.  to forces
     atom    1 type  1   force =     0.00000000    0.00000000   -0.00227185
     atom    2 type  1   force =     0.00000000   -0.00000000   -0.00227185
     atom    3 type  1   force =     0.00000000    0.00000000    0.00223113
     atom    4 type  1   force =     0.00000000   -0.00000000    0.00223113
     The ionic contribution  to forces
     atom    1 type  1   force =     0.00000851   -0.00000491  -14.18599420
     atom    2 type  1   force =    -0.00000851    0.00000491  -14.18599420
     atom    3 type  1   force =     0.00000851   -0.00000491   14.18599420
     atom    4 type  1   force =    -0.00000851    0.00000491   14.18599420
     The local contribution  to forces
     atom    1 type  1   force =     0.00000000    0.00000000   14.18560488
     atom    2 type  1   force =    -0.00000680    0.00000393   14.18560487
     atom    3 type  1   force =     0.00000000   -0.00000000  -14.18769181
     atom    4 type  1   force =    -0.00000680    0.00000392  -14.18769180
     The core correction contribution to forces
     atom    1 type  1   force =    -0.00000000    0.00000000    0.00006615
     atom    2 type  1   force =     0.00000053   -0.00000031    0.00006615
     atom    3 type  1   force =    -0.00000000    0.00000000   -0.00007423
     atom    4 type  1   force =     0.00000053   -0.00000031   -0.00007423
     The Hubbard contrib.    to forces
     atom    1 type  1   force =     0.00000000    0.00000000    0.00000000
     atom    2 type  1   force =     0.00000000    0.00000000    0.00000000
     atom    3 type  1   force =     0.00000000    0.00000000    0.00000000
     atom    4 type  1   force =     0.00000000    0.00000000    0.00000000
     The SCF correction term to forces
     atom    1 type  1   force =     0.00000000   -0.00000000    0.00000000
     atom    2 type  1   force =    -0.00000000    0.00000000    0.00000000
     atom    3 type  1   force =     0.00000000   -0.00000000    0.00152854
     atom    4 type  1   force =    -0.00000000    0.00000000    0.00152854

     Total force =     0.002811     Total SCF correction =     0.002162
     SCF correction compared to forces is large: reduce conv_thr to get better values


     Computing stress (Cartesian axis) and pressure



     -----------------------------------------------
     Non-local corr. energy    =       0.19439587 Ry
     -----------------------------------------------

          total   stress  (Ry/bohr**3)                   (kbar)     P=        0.84
  -0.00000713   0.00000000  -0.00000000           -1.05        0.00       -0.00
   0.00000000  -0.00000713  -0.00000000            0.00       -1.05       -0.00
  -0.00000000  -0.00000000   0.00003145           -0.00       -0.00        4.63

     kinetic stress (kbar)   4522.98      0.00      0.00
                                0.00   4522.98      0.00
                                0.00      0.00   4985.28

     local   stress (kbar)-115024.16      0.00     -0.00
                                0.00-115024.16      0.00
                               -0.00      0.00 116365.33

     nonloc. stress (kbar)   -460.11      0.00     -0.00
                                0.00   -460.11     -0.00
                               -0.00     -0.00   -385.38

     hartree stress (kbar)  55713.30     -0.00      0.00
                               -0.00  55713.30     -0.00
                                0.00     -0.00 -55362.96

     exc-cor stress (kbar)   -360.14     -0.00      0.00
                               -0.00   -360.14     -0.00
                                0.00     -0.00   -419.54

     corecor stress (kbar)   -686.09      0.00     -0.00
                                0.00   -686.09      0.00
                               -0.00      0.00   -667.41

     ewald   stress (kbar)  56290.05     -0.01     -0.00
                               -0.01  56290.04     -0.00
                               -0.00     -0.00 -64542.01

     hubbard stress (kbar)      0.00      0.00      0.00
                                0.00      0.00      0.00
                                0.00      0.00      0.00

     DFT-D   stress (kbar)      0.00      0.00      0.00
                                0.00      0.00      0.00
                                0.00      0.00      0.00

     XDM     stress (kbar)      0.00      0.00      0.00
                                0.00      0.00      0.00
                                0.00      0.00      0.00

     dft-nl  stress (kbar)      3.12      0.00     -0.00
                                0.00      3.12      0.00
                               -0.00      0.00     31.30

     TS-vdW  stress (kbar)      0.00      0.00      0.00
                                0.00      0.00      0.00
                                0.00      0.00      0.00

     MDB     stress (kbar)      0.00      0.00      0.00
                                0.00      0.00      0.00
                                0.00      0.00      0.00

     3D-RISM stress (kbar)      0.00      0.00      0.00
                                0.00      0.00      0.00
                                0.00      0.00      0.00


     BFGS Geometry Optimization
     Energy error            =      0.0E+00 Ry
     Gradient error          =      2.0E-03 Ry/Bohr

     number of scf cycles    =   1
     number of bfgs steps    =   0

     energy             new  =     -48.2542463305 Ry

     new trust radius        =       0.0019875572 bohr
     new conv_thr            =       0.0000010000 Ry


ATOMIC_POSITIONS (crystal)
C             0.0000000000        0.0000000000        0.0000000000    0   0   0
C             0.6666670000        0.3333330000        0.0000000000    0   0   0
C             0.0000000000        0.0000000000        0.1676112528
C             0.6666670000        0.3333330000        0.1676112528



     Writing config-only to output data dir ./tmp/C2L_AB_PBE_vdW.save/
     NEW-OLD atomic charge density approx. for the potential

     negative rho (up, down):  4.606E-08 0.000E+00


     -----------------------------------------------
     Non-local corr. energy    =       0.19441363 Ry
     -----------------------------------------------


     total cpu time spent up to now is      108.0 secs

     Self-consistent Calculation

     iteration #  1     ecut=   120.00 Ry     beta= 0.70
     Davidson diagonalization with overlap

---- Real-time Memory Report at c_bands before calling an iterative solver
             0 MiB given to the printing process from OS
             0 MiB allocation reported by mallinfo(arena+hblkhd)
             0 MiB available memory on the node where the printing process lives
------------------
     ethr =  1.00E-06,  avg # of iterations =  3.0

     Threshold (ethr) on eigenvalues was too large:
     Diagonalizing with lowered threshold

     Davidson diagonalization with overlap

---- Real-time Memory Report at c_bands before calling an iterative solver
             0 MiB given to the printing process from OS
             0 MiB allocation reported by mallinfo(arena+hblkhd)
             0 MiB available memory on the node where the printing process lives
------------------
     ethr =  5.81E-08,  avg # of iterations =  1.0

     negative rho (up, down):  1.140E-08 0.000E+00


     -----------------------------------------------
     Non-local corr. energy    =       0.19442364 Ry
     -----------------------------------------------


     total cpu time spent up to now is      117.5 secs

     total energy              =     -48.25424863 Ry
     estimated scf accuracy    <       0.00001015 Ry

     iteration #  2     ecut=   120.00 Ry     beta= 0.70
     Davidson diagonalization with overlap

---- Real-time Memory Report at c_bands before calling an iterative solver
             0 MiB given to the printing process from OS
             0 MiB allocation reported by mallinfo(arena+hblkhd)
             0 MiB available memory on the node where the printing process lives
------------------
     ethr =  6.34E-08,  avg # of iterations =  3.4


     -----------------------------------------------
     Non-local corr. energy    =       0.19442248 Ry
     -----------------------------------------------


     total cpu time spent up to now is      123.1 secs

     total energy              =     -48.25424781 Ry
     estimated scf accuracy    <       0.00003817 Ry

     iteration #  3     ecut=   120.00 Ry     beta= 0.70
     Davidson diagonalization with overlap

---- Real-time Memory Report at c_bands before calling an iterative solver
             0 MiB given to the printing process from OS
             0 MiB allocation reported by mallinfo(arena+hblkhd)
             0 MiB available memory on the node where the printing process lives
------------------
     ethr =  6.34E-08,  avg # of iterations =  2.4


     -----------------------------------------------
     Non-local corr. energy    =       0.19441989 Ry
     -----------------------------------------------


     total cpu time spent up to now is      128.1 secs

     End of self-consistent calculation

          k = 0.0000 0.0000 0.0000 ( 15581 PWs)   bands (ev):

   -20.1495 -19.9754  -8.7361  -7.6525  -3.6562  -3.6562  -3.6342  -3.6342
     2.5708   3.0001   4.1705   5.2832

     occupation numbers 
     1.0000   1.0000   1.0000   1.0000   1.0000   1.0000   1.0000   1.0000
     0.0000   0.0000   0.0000   0.0000

          k = 0.0000 0.0962 0.0000 ( 15560 PWs)   bands (ev):

   -19.9853 -19.8128  -8.5376  -7.4598  -4.3068  -4.2781  -3.9933  -3.9697
     2.7905   3.2219   4.3965   5.5078

     occupation numbers 
     1.0000   1.0000   1.0000   1.0000   1.0000   1.0000   1.0000   1.0000
     0.0000   0.0000   0.0000   0.0000

          k = 0.0000 0.1925 0.0000 ( 15558 PWs)   bands (ev):

   -19.4945 -19.3270  -7.9467  -6.8872  -5.9451  -5.9007  -4.7838  -4.7569
     3.4494   3.8861   5.0745   6.1806

     occupation numbers 
     1.0000   1.0000   1.0000   1.0000   1.0000   1.0000   1.0000   1.0000
     0.0000   0.0000   0.0000   0.0000

          k = 0.0000 0.2887 0.0000 ( 15612 PWs)   bands (ev):

   -18.6829 -18.5234  -8.0452  -7.9822  -6.9814  -5.9549  -5.6627  -5.6330
     4.5438   4.9811   6.1961   6.3435

     occupation numbers 
     1.0000   1.0000   1.0000   1.0000   1.0000   1.0000   1.0000   1.0000
     0.0000   0.0000   0.0000   0.0000

          k = 0.0000 0.3849 0.0000 ( 15662 PWs)   bands (ev):

   -17.5630 -17.4140 -10.2503 -10.1688  -6.3961  -6.3646  -5.6893  -4.7160
     3.9594   4.6619   6.0630   6.5627

     occupation numbers 
     1.0000   1.0000   1.0000   1.0000   1.0000   1.0000   1.0000   1.0000
     0.0000   0.0000   0.0000   0.0000

          k = 0.0000 0.4811 0.0000 ( 15634 PWs)   bands (ev):

   -16.1666 -16.0299 -12.3515 -12.2529  -6.8692  -6.8367  -4.2270  -3.3384
     1.7474   2.6201   6.8262   7.0583

     occupation numbers 
     1.0000   1.0000   1.0000   1.0000   1.0000   1.0000   1.0000   1.0000
     0.0000   0.0000   0.0000   0.0000

          k = 0.0000-0.5774 0.0000 ( 15610 PWs)   bands (ev):

   -14.9098 -14.7795 -13.8511 -13.7445  -7.0317  -6.9988  -3.3419  -2.5355
     0.5971   1.5786   6.7465   6.9765

     occupation numbers 
     1.0000   1.0000   1.0000   1.0000   1.0000   1.0000   1.0000   1.0000
     0.0000   0.0000   0.0000   0.0000

          k = 0.0833 0.1443 0.0000 ( 15550 PWs)   bands (ev):

   -19.6578 -19.4886  -8.1427  -7.0770  -5.3417  -5.3035  -4.6685  -4.6402
     3.2301   3.6651   4.8487   5.9568

     occupation numbers 
     1.0000   1.0000   1.0000   1.0000   1.0000   1.0000   1.0000   1.0000
     0.0000   0.0000   0.0000   0.0000

          k = 0.0833 0.2406 0.0000 ( 15567 PWs)   bands (ev):

   -19.0066 -18.8439  -7.3638  -7.0528  -6.9996  -6.3233  -5.6649  -5.6306
     4.1080   4.5480   5.7523   6.8518

     occupation numbers 
     1.0000   1.0000   1.0000   1.0000   1.0000   1.0000   1.0000   1.0000
     0.0000   0.0000   0.0000   0.0000

          k = 0.0833 0.3368 0.0000 ( 15618 PWs)   bands (ev):

   -18.0407 -17.8873  -9.1273  -9.0559  -6.5516  -6.5135  -6.2286  -5.2308
     5.0232   5.4227   5.5694   5.9518

     occupation numbers 
     1.0000   1.0000   1.0000   1.0000   1.0000   1.0000   1.0000   1.0000
     0.0000   0.0000   0.0000   0.0000

          k = 0.0833 0.4330 0.0000 ( 15647 PWs)   bands (ev):

   -16.7792 -16.6375 -11.2515 -11.1620  -7.1867  -7.1468  -4.8186  -3.8876
     2.7468   3.5106   7.1316   7.6819

     occupation numbers 
     1.0000   1.0000   1.0000   1.0000   1.0000   1.0000   1.0000   1.0000
     0.0000   0.0000   0.0000   0.0000

          k = 0.0833 0.5292 0.0000 ( 15644 PWs)   bands (ev):

   -15.3011 -15.1711 -13.1917 -13.0873  -7.5155  -7.4746  -3.4620  -2.6295
     0.9078   1.8206   7.4705   7.7140

     occupation numbers 
     1.0000   1.0000   1.0000   1.0000   1.0000   1.0000   1.0000   1.0000
     0.0000   0.0000   0.0000   0.0000

          k = 0.1667 0.2887 0.0000 ( 15608 PWs)   bands (ev):

   -18.2010 -18.0462  -8.3871  -8.3234  -7.0244  -6.9777  -6.4109  -5.4051
     5.2025   5.5041   5.6455   6.0493

     occupation numbers 
     1.0000   1.0000   1.0000   1.0000   1.0000   1.0000   1.0000   1.0000
     0.0000   0.0000   0.0000   0.0000

          k = 0.1667 0.3849 0.0000 ( 15631 PWs)   bands (ev):

   -17.0920 -16.9476 -10.1155 -10.0366  -8.0812  -8.0272  -5.1340  -4.1815
     3.5165   4.1587   6.7213   7.1656

     occupation numbers 
     1.0000   1.0000   1.0000   1.0000   1.0000   1.0000   1.0000   1.0000
     0.0000   0.0000   0.0000   0.0000

          k = 0.1667 0.4811 0.0000 ( 15642 PWs)   bands (ev):

   -15.7157 -15.5835 -12.0258 -11.9303  -8.6587  -8.6017  -3.6699  -2.7975
     1.5480   2.3131   8.6262   9.0676

     occupation numbers 
     1.0000   1.0000   1.0000   1.0000   1.0000   1.0000   1.0000   1.0000
     0.0000   0.0000   0.0000   0.0000

          k = 0.1667 0.5774 0.0000 ( 15640 PWs)   bands (ev):

   -14.4873 -14.3624 -13.4544 -13.3502  -8.8442  -8.7863  -2.7389  -1.9445
     0.4333   1.2943   9.2017   9.5307

     occupation numbers 
     1.0000   1.0000   1.0000   1.0000   1.0000   1.0000   1.0000   1.0000
     0.0000   0.0000   0.0000   0.0000

          k = 0.2500 0.4330 0.0000 ( 15658 PWs)   bands (ev):

   -15.8631 -15.7300 -11.1562 -11.0677  -9.5606  -9.4937  -3.7618  -2.8735
     1.8905   2.5691   8.4211   8.8146

     occupation numbers 
     1.0000   1.0000   1.0000   1.0000   1.0000   1.0000   1.0000   1.0000
     0.0000   0.0000   0.0000   0.0000

          k = 0.2500 0.5292 0.0000 ( 15617 PWs)   bands (ev):

   -14.4420 -14.3210 -12.5757 -12.4748 -10.2694 -10.1970  -2.3370  -1.5311
     0.3401   1.0866   9.3864  10.4430

     occupation numbers 
     1.0000   1.0000   1.0000   1.0000   1.0000   1.0000   1.0000   1.0000
     0.0000   0.0000   0.0000   0.0000

          k = 0.3333 0.5774 0.0000 ( 15606 PWs)   bands (ev):

   -13.2261 -13.2261 -13.1161 -13.1161 -11.1566 -11.0790  -0.9583  -0.9583
    -0.2029  -0.2029   8.9175  10.8385

     occupation numbers 
     1.0000   1.0000   1.0000   1.0000   1.0000   1.0000   1.0000   1.0000
     0.0000   0.0000   0.0000   0.0000

     the Fermi energy is    -0.6119 ev

!    total energy              =     -48.25425453 Ry
     estimated scf accuracy    <       0.00000022 Ry
     smearing contrib. (-TS)   =       0.00000000 Ry
     internal energy E=F+TS    =     -48.25425453 Ry

     The total energy is F=E-TS. E is the sum of the following terms:
     one-electron contribution =    -528.79586268 Ry
     hartree contribution      =     268.07133394 Ry
     xc contribution           =     -17.21497756 Ry
     ewald contribution        =     229.68525177 Ry

     convergence has been achieved in   3 iterations


     -----------------------------------------------
     Non-local corr. energy    =       0.19441989 Ry
     -----------------------------------------------


     Forces acting on atoms (cartesian axes, Ry/au):

     atom    1 type  1   force =     0.00000000    0.00000000   -0.00184000
     atom    2 type  1   force =     0.00000000    0.00000000   -0.00184000
     atom    3 type  1   force =     0.00000000    0.00000000    0.00184000
     atom    4 type  1   force =     0.00000000    0.00000000    0.00184000
     The non-local contrib.  to forces
     atom    1 type  1   force =     0.00000000   -0.00000000   -0.00221941
     atom    2 type  1   force =    -0.00000000   -0.00000000   -0.00221941
     atom    3 type  1   force =     0.00000000   -0.00000000    0.00207779
     atom    4 type  1   force =    -0.00000000    0.00000000    0.00207779
     The ionic contribution  to forces
     atom    1 type  1   force =     0.00000851   -0.00000491  -14.18371616
     atom    2 type  1   force =    -0.00000851    0.00000491  -14.18371616
     atom    3 type  1   force =     0.00000851   -0.00000491   14.18371616
     atom    4 type  1   force =    -0.00000851    0.00000491   14.18371616
     The local contribution  to forces
     atom    1 type  1   force =     0.00000000    0.00000000   14.18487980
     atom    2 type  1   force =    -0.00000680    0.00000393   14.18487979
     atom    3 type  1   force =    -0.00000000   -0.00000000  -14.18451906
     atom    4 type  1   force =    -0.00000680    0.00000393  -14.18451905
     The core correction contribution to forces
     atom    1 type  1   force =    -0.00000000    0.00000000    0.00006924
     atom    2 type  1   force =     0.00000053   -0.00000031    0.00006924
     atom    3 type  1   force =    -0.00000000    0.00000000   -0.00006803
     atom    4 type  1   force =     0.00000053   -0.00000031   -0.00006803
     The Hubbard contrib.    to forces
     atom    1 type  1   force =     0.00000000    0.00000000    0.00000000
     atom    2 type  1   force =     0.00000000    0.00000000    0.00000000
     atom    3 type  1   force =     0.00000000    0.00000000    0.00000000
     atom    4 type  1   force =     0.00000000    0.00000000    0.00000000
     The SCF correction term to forces
     atom    1 type  1   force =    -0.00000000    0.00000000   -0.00000000
     atom    2 type  1   force =     0.00000000   -0.00000000   -0.00000000
     atom    3 type  1   force =    -0.00000000    0.00000000    0.00049509
     atom    4 type  1   force =     0.00000000   -0.00000000    0.00049509

     Total force =     0.002602     Total SCF correction =     0.000700
     SCF correction compared to forces is large: reduce conv_thr to get better values


     Computing stress (Cartesian axis) and pressure



     -----------------------------------------------
     Non-local corr. energy    =       0.19441989 Ry
     -----------------------------------------------

          total   stress  (Ry/bohr**3)                   (kbar)     P=        0.95
  -0.00000759   0.00000000   0.00000000           -1.12        0.00        0.00
   0.00000000  -0.00000759   0.00000000            0.00       -1.12        0.00
   0.00000000   0.00000000   0.00003446            0.00        0.00        5.07

     kinetic stress (kbar)   4523.12      0.00     -0.00
                                0.00   4523.12     -0.00
                               -0.00     -0.00   4985.62

     local   stress (kbar)-115001.49      0.00     -0.00
                                0.00-115001.49      0.00
                               -0.00      0.00 116342.73

     nonloc. stress (kbar)   -460.18      0.00      0.00
                                0.00   -460.18      0.00
                                0.00      0.00   -385.45

     hartree stress (kbar)  55702.30     -0.00      0.00
                               -0.00  55702.30     -0.00
                                0.00     -0.00 -55351.93

     exc-cor stress (kbar)   -360.15     -0.00     -0.00
                               -0.00   -360.15      0.00
                               -0.00      0.00   -419.56

     corecor stress (kbar)   -686.10      0.00      0.00
                                0.00   -686.10     -0.00
                                0.00     -0.00   -667.42

     ewald   stress (kbar)  56278.27     -0.01      0.00
                               -0.01  56278.26     -0.00
                                0.00     -0.00 -64530.23

     hubbard stress (kbar)      0.00      0.00      0.00
                                0.00      0.00      0.00
                                0.00      0.00      0.00

     DFT-D   stress (kbar)      0.00      0.00      0.00
                                0.00      0.00      0.00
                                0.00      0.00      0.00

     XDM     stress (kbar)      0.00      0.00      0.00
                                0.00      0.00      0.00
                                0.00      0.00      0.00

     dft-nl  stress (kbar)      3.12      0.00     -0.00
                                0.00      3.12      0.00
                               -0.00      0.00     31.30

     TS-vdW  stress (kbar)      0.00      0.00      0.00
                                0.00      0.00      0.00
                                0.00      0.00      0.00

     MDB     stress (kbar)      0.00      0.00      0.00
                                0.00      0.00      0.00
                                0.00      0.00      0.00

     3D-RISM stress (kbar)      0.00      0.00      0.00
                                0.00      0.00      0.00
                                0.00      0.00      0.00

     Energy error            =      8.2E-06 Ry
     Gradient error          =      1.8E-03 Ry/Bohr

     number of scf cycles    =   2
     number of bfgs steps    =   1

     energy             old  =     -48.2542463305 Ry
     energy             new  =     -48.2542545345 Ry

     CASE: energy            _new < energy            _old


     WARNING: bfgs curvature condition failed, Theta= 0.864
     new trust radius        =       0.0021863129 bohr
     new conv_thr            =       0.0000000100 Ry


ATOMIC_POSITIONS (crystal)
C             0.0000000000        0.0000000000        0.0000000000    0   0   0
C             0.6666670000        0.3333330000        0.0000000000    0   0   0
C             0.0000000000        0.0000000000        0.1676698309
C             0.6666670000        0.3333330000        0.1676698309



     Writing config-only to output data dir ./tmp/C2L_AB_PBE_vdW.save/
     NEW-OLD atomic charge density approx. for the potential

     negative rho (up, down):  5.161E-08 0.000E+00


     -----------------------------------------------
     Non-local corr. energy    =       0.19443942 Ry
     -----------------------------------------------


     total cpu time spent up to now is      138.3 secs

     Self-consistent Calculation

     iteration #  1     ecut=   120.00 Ry     beta= 0.70
     Davidson diagonalization with overlap

---- Real-time Memory Report at c_bands before calling an iterative solver
             0 MiB given to the printing process from OS
             0 MiB allocation reported by mallinfo(arena+hblkhd)
             0 MiB available memory on the node where the printing process lives
------------------
     ethr =  1.00E-06,  avg # of iterations =  3.0

     Threshold (ethr) on eigenvalues was too large:
     Diagonalizing with lowered threshold

     Davidson diagonalization with overlap

---- Real-time Memory Report at c_bands before calling an iterative solver
             0 MiB given to the printing process from OS
             0 MiB allocation reported by mallinfo(arena+hblkhd)
             0 MiB available memory on the node where the printing process lives
------------------
     ethr =  2.06E-08,  avg # of iterations =  1.3

     negative rho (up, down):  1.280E-08 0.000E+00


     -----------------------------------------------
     Non-local corr. energy    =       0.19443947 Ry
     -----------------------------------------------


     total cpu time spent up to now is      146.3 secs

     total energy              =     -48.25426161 Ry
     estimated scf accuracy    <       0.00000372 Ry

     iteration #  2     ecut=   120.00 Ry     beta= 0.70
     Davidson diagonalization with overlap

---- Real-time Memory Report at c_bands before calling an iterative solver
             0 MiB given to the printing process from OS
             0 MiB allocation reported by mallinfo(arena+hblkhd)
             0 MiB available memory on the node where the printing process lives
------------------
     ethr =  2.32E-08,  avg # of iterations =  2.0


     -----------------------------------------------
     Non-local corr. energy    =       0.19443704 Ry
     -----------------------------------------------


     total cpu time spent up to now is      150.8 secs

     total energy              =     -48.25426211 Ry
     estimated scf accuracy    <       0.00000443 Ry

     iteration #  3     ecut=   120.00 Ry     beta= 0.70
     Davidson diagonalization with overlap

---- Real-time Memory Report at c_bands before calling an iterative solver
             0 MiB given to the printing process from OS
             0 MiB allocation reported by mallinfo(arena+hblkhd)
             0 MiB available memory on the node where the printing process lives
------------------
     ethr =  2.32E-08,  avg # of iterations =  2.0


     -----------------------------------------------
     Non-local corr. energy    =       0.19443636 Ry
     -----------------------------------------------


     total cpu time spent up to now is      155.0 secs

     total energy              =     -48.25426307 Ry
     estimated scf accuracy    <       0.00000040 Ry

     iteration #  4     ecut=   120.00 Ry     beta= 0.70
     Davidson diagonalization with overlap

---- Real-time Memory Report at c_bands before calling an iterative solver
             0 MiB given to the printing process from OS
             0 MiB allocation reported by mallinfo(arena+hblkhd)
             0 MiB available memory on the node where the printing process lives
------------------
     ethr =  2.52E-09,  avg # of iterations =  2.0


     -----------------------------------------------
     Non-local corr. energy    =       0.19443617 Ry
     -----------------------------------------------


     total cpu time spent up to now is      158.9 secs

     total energy              =     -48.25426317 Ry
     estimated scf accuracy    <       0.00000010 Ry

     iteration #  5     ecut=   120.00 Ry     beta= 0.70
     Davidson diagonalization with overlap

---- Real-time Memory Report at c_bands before calling an iterative solver
             0 MiB given to the printing process from OS
             0 MiB allocation reported by mallinfo(arena+hblkhd)
             0 MiB available memory on the node where the printing process lives
------------------
     ethr =  6.36E-10,  avg # of iterations =  2.0


     -----------------------------------------------
     Non-local corr. energy    =       0.19443608 Ry
     -----------------------------------------------


     total cpu time spent up to now is      162.8 secs

     End of self-consistent calculation

          k = 0.0000 0.0000 0.0000 ( 15581 PWs)   bands (ev):

   -20.1479 -19.9744  -8.7339  -7.6523  -3.6548  -3.6547  -3.6332  -3.6332
     2.5706   2.9998   4.1773   5.2850

     occupation numbers 
     1.0000   1.0000   1.0000   1.0000   1.0000   1.0000   1.0000   1.0000
     0.0000   0.0000   0.0000   0.0000

          k = 0.0000 0.0962 0.0000 ( 15560 PWs)   bands (ev):

   -19.9837 -19.8118  -8.5354  -7.4596  -4.3054  -4.2770  -3.9919  -3.9686
     2.7903   3.2217   4.4034   5.5096

     occupation numbers 
     1.0000   1.0000   1.0000   1.0000   1.0000   1.0000   1.0000   1.0000
     0.0000   0.0000   0.0000   0.0000

          k = 0.0000 0.1925 0.0000 ( 15558 PWs)   bands (ev):

   -19.4929 -19.3260  -7.9445  -6.8869  -5.9437  -5.8996  -4.7824  -4.7559
     3.4493   3.8858   5.0812   6.1823

     occupation numbers 
     1.0000   1.0000   1.0000   1.0000   1.0000   1.0000   1.0000   1.0000
     0.0000   0.0000   0.0000   0.0000

          k = 0.0000 0.2887 0.0000 ( 15612 PWs)   bands (ev):

   -18.6814 -18.5224  -8.0438  -7.9811  -6.9792  -5.9546  -5.6613  -5.6320
     4.5437   4.9808   6.2023   6.3457

     occupation numbers 
     1.0000   1.0000   1.0000   1.0000   1.0000   1.0000   1.0000   1.0000
     0.0000   0.0000   0.0000   0.0000

          k = 0.0000 0.3849 0.0000 ( 15662 PWs)   bands (ev):

   -17.5614 -17.4130 -10.2488 -10.1677  -6.3947  -6.3635  -5.6871  -4.7157
     3.9614   4.6624   6.0629   6.5624

     occupation numbers 
     1.0000   1.0000   1.0000   1.0000   1.0000   1.0000   1.0000   1.0000
     0.0000   0.0000   0.0000   0.0000

          k = 0.0000 0.4811 0.0000 ( 15634 PWs)   bands (ev):

   -16.1651 -16.0289 -12.3500 -12.2518  -6.8678  -6.8356  -4.2249  -3.3381
     1.7496   2.6205   6.8278   7.0592

     occupation numbers 
     1.0000   1.0000   1.0000   1.0000   1.0000   1.0000   1.0000   1.0000
     0.0000   0.0000   0.0000   0.0000

          k = 0.0000-0.5774 0.0000 ( 15610 PWs)   bands (ev):

   -14.9083 -14.7784 -13.8497 -13.7435  -7.0303  -6.9978  -3.3398  -2.5351
     0.5992   1.5789   6.7481   6.9775

     occupation numbers 
     1.0000   1.0000   1.0000   1.0000   1.0000   1.0000   1.0000   1.0000
     0.0000   0.0000   0.0000   0.0000

          k = 0.0833 0.1443 0.0000 ( 15550 PWs)   bands (ev):

   -19.6562 -19.4876  -8.1406  -7.0767  -5.3403  -5.3025  -4.6671  -4.6391
     3.2300   3.6648   4.8555   5.9586

     occupation numbers 
     1.0000   1.0000   1.0000   1.0000   1.0000   1.0000   1.0000   1.0000
     0.0000   0.0000   0.0000   0.0000

          k = 0.0833 0.2406 0.0000 ( 15567 PWs)   bands (ev):

   -19.0051 -18.8429  -7.3616  -7.0514  -6.9986  -6.3231  -5.6635  -5.6296
     4.1079   4.5477   5.7590   6.8535

     occupation numbers 
     1.0000   1.0000   1.0000   1.0000   1.0000   1.0000   1.0000   1.0000
     0.0000   0.0000   0.0000   0.0000

          k = 0.0833 0.3368 0.0000 ( 15618 PWs)   bands (ev):

   -18.0392 -17.8863  -9.1259  -9.0548  -6.5502  -6.5124  -6.2264  -5.2305
     5.0251   5.4226   5.5698   5.9517

     occupation numbers 
     1.0000   1.0000   1.0000   1.0000   1.0000   1.0000   1.0000   1.0000
     0.0000   0.0000   0.0000   0.0000

          k = 0.0833 0.4330 0.0000 ( 15647 PWs)   bands (ev):

   -16.7777 -16.6365 -11.2500 -11.1609  -7.1853  -7.1457  -4.8165  -3.8872
     2.7489   3.5110   7.1311   7.6831

     occupation numbers 
     1.0000   1.0000   1.0000   1.0000   1.0000   1.0000   1.0000   1.0000
     0.0000   0.0000   0.0000   0.0000

          k = 0.0833 0.5292 0.0000 ( 15644 PWs)   bands (ev):

   -15.2996 -15.1700 -13.1902 -13.0863  -7.5141  -7.4735  -3.4599  -2.6291
     0.9099   1.8210   7.4721   7.7149

     occupation numbers 
     1.0000   1.0000   1.0000   1.0000   1.0000   1.0000   1.0000   1.0000
     0.0000   0.0000   0.0000   0.0000

          k = 0.1667 0.2887 0.0000 ( 15608 PWs)   bands (ev):

   -18.1995 -18.0452  -8.3857  -8.3223  -7.0230  -6.9766  -6.4088  -5.4048
     5.2023   5.5060   5.6452   6.0499

     occupation numbers 
     1.0000   1.0000   1.0000   1.0000   1.0000   1.0000   1.0000   1.0000
     0.0000   0.0000   0.0000   0.0000

          k = 0.1667 0.3849 0.0000 ( 15631 PWs)   bands (ev):

   -17.0905 -16.9466 -10.1141 -10.0355  -8.0798  -8.0262  -5.1319  -4.1812
     3.5185   4.1592   6.7212   7.1653

     occupation numbers 
     1.0000   1.0000   1.0000   1.0000   1.0000   1.0000   1.0000   1.0000
     0.0000   0.0000   0.0000   0.0000

          k = 0.1667 0.4811 0.0000 ( 15642 PWs)   bands (ev):

   -15.7142 -15.5825 -12.0243 -11.9293  -8.6574  -8.6007  -3.6678  -2.7971
     1.5501   2.3136   8.6262   9.0673

     occupation numbers 
     1.0000   1.0000   1.0000   1.0000   1.0000   1.0000   1.0000   1.0000
     0.0000   0.0000   0.0000   0.0000

          k = 0.1667 0.5774 0.0000 ( 15640 PWs)   bands (ev):

   -14.4858 -14.3613 -13.4530 -13.3491  -8.8428  -8.7852  -2.7368  -1.9441
     0.4354   1.2947   9.2035   9.5316

     occupation numbers 
     1.0000   1.0000   1.0000   1.0000   1.0000   1.0000   1.0000   1.0000
     0.0000   0.0000   0.0000   0.0000

          k = 0.2500 0.4330 0.0000 ( 15658 PWs)   bands (ev):

   -15.8616 -15.7290 -11.1548 -11.0666  -9.5592  -9.4926  -3.7597  -2.8732
     1.8925   2.5696   8.4210   8.8143

     occupation numbers 
     1.0000   1.0000   1.0000   1.0000   1.0000   1.0000   1.0000   1.0000
     0.0000   0.0000   0.0000   0.0000

          k = 0.2500 0.5292 0.0000 ( 15617 PWs)   bands (ev):

   -14.4405 -14.3199 -12.5742 -12.4737 -10.2680 -10.1959  -2.3349  -1.5307
     0.3422   1.0870   9.3884  10.4426

     occupation numbers 
     1.0000   1.0000   1.0000   1.0000   1.0000   1.0000   1.0000   1.0000
     0.0000   0.0000   0.0000   0.0000

          k = 0.3333 0.5774 0.0000 ( 15606 PWs)   bands (ev):

   -13.2246 -13.2246 -13.1151 -13.1150 -11.1552 -11.0779  -0.9562  -0.9562
    -0.2024  -0.2024   8.9198  10.8381

     occupation numbers 
     1.0000   1.0000   1.0000   1.0000   1.0000   1.0000   1.0000   1.0000
     0.0000   0.0000   0.0000   0.0000

     the Fermi energy is    -0.6116 ev

!    total energy              =     -48.25426319 Ry
     estimated scf accuracy    <          1.8E-09 Ry
     smearing contrib. (-TS)   =       0.00000000 Ry
     internal energy E=F+TS    =     -48.25426319 Ry

     The total energy is F=E-TS. E is the sum of the following terms:
     one-electron contribution =    -528.66898766 Ry
     hartree contribution      =     268.00640983 Ry
     xc contribution           =     -17.21492253 Ry
     ewald contribution        =     229.62323716 Ry

     convergence has been achieved in   5 iterations


     -----------------------------------------------
     Non-local corr. energy    =       0.19443608 Ry
     -----------------------------------------------


     Forces acting on atoms (cartesian axes, Ry/au):

     atom    1 type  1   force =     0.00000000    0.00000000   -0.00194731
     atom    2 type  1   force =     0.00000000    0.00000000   -0.00194731
     atom    3 type  1   force =    -0.00000000   -0.00000000    0.00194731
     atom    4 type  1   force =     0.00000000    0.00000000    0.00194731
     The non-local contrib.  to forces
     atom    1 type  1   force =     0.00000000   -0.00000000   -0.00223681
     atom    2 type  1   force =     0.00000000    0.00000000   -0.00223681
     atom    3 type  1   force =     0.00000000    0.00000000    0.00223033
     atom    4 type  1   force =     0.00000000    0.00000000    0.00223033
     The ionic contribution  to forces
     atom    1 type  1   force =     0.00000851   -0.00000491  -14.18121034
     atom    2 type  1   force =    -0.00000851    0.00000491  -14.18121034
     atom    3 type  1   force =     0.00000851   -0.00000491   14.18121034
     atom    4 type  1   force =    -0.00000851    0.00000491   14.18121034
     The local contribution  to forces
     atom    1 type  1   force =     0.00000000    0.00000000   14.18148082
     atom    2 type  1   force =    -0.00000680    0.00000393   14.18148081
     atom    3 type  1   force =     0.00000000    0.00000000  -14.18142754
     atom    4 type  1   force =    -0.00000680    0.00000393  -14.18142753
     The core correction contribution to forces
     atom    1 type  1   force =    -0.00000000    0.00000000    0.00006539
     atom    2 type  1   force =     0.00000053   -0.00000031    0.00006539
     atom    3 type  1   force =    -0.00000000    0.00000000   -0.00006369
     atom    4 type  1   force =     0.00000053   -0.00000031   -0.00006369
     The Hubbard contrib.    to forces
     atom    1 type  1   force =     0.00000000    0.00000000    0.00000000
     atom    2 type  1   force =     0.00000000    0.00000000    0.00000000
     atom    3 type  1   force =     0.00000000    0.00000000    0.00000000
     atom    4 type  1   force =     0.00000000    0.00000000    0.00000000
     The SCF correction term to forces
     atom    1 type  1   force =     0.00000000   -0.00000000   -0.00000000
     atom    2 type  1   force =     0.00000000   -0.00000000   -0.00000000
     atom    3 type  1   force =    -0.00000000    0.00000000    0.00000659
     atom    4 type  1   force =     0.00000000   -0.00000000    0.00000659

     Total force =     0.002754     Total SCF correction =     0.000009


     Computing stress (Cartesian axis) and pressure



     -----------------------------------------------
     Non-local corr. energy    =       0.19443608 Ry
     -----------------------------------------------

          total   stress  (Ry/bohr**3)                   (kbar)     P=        0.94
  -0.00000752   0.00000000  -0.00000000           -1.11        0.00       -0.00
   0.00000000  -0.00000752  -0.00000000            0.00       -1.11       -0.00
  -0.00000000  -0.00000000   0.00003413           -0.00       -0.00        5.02

     kinetic stress (kbar)   4523.13      0.00     -0.00
                                0.00   4523.13     -0.00
                               -0.00     -0.00   4985.57

     local   stress (kbar)-114974.96      0.00      0.00
                                0.00-114974.95     -0.00
                                0.00     -0.00 116316.22

     nonloc. stress (kbar)   -460.19     -0.00      0.00
                               -0.00   -460.19      0.00
                                0.00      0.00   -385.45

     hartree stress (kbar)  55688.73      0.00     -0.00
                                0.00  55688.73      0.00
                               -0.00      0.00 -55338.37

     exc-cor stress (kbar)   -360.15     -0.00     -0.00
                               -0.00   -360.15      0.00
                               -0.00      0.00   -419.56

     corecor stress (kbar)   -686.10      0.00      0.00
                                0.00   -686.10     -0.00
                                0.00     -0.00   -667.41

     ewald   stress (kbar)  56265.31     -0.01      0.00
                               -0.01  56265.30      0.00
                                0.00      0.00 -64517.28

     hubbard stress (kbar)      0.00      0.00      0.00
                                0.00      0.00      0.00
                                0.00      0.00      0.00

     DFT-D   stress (kbar)      0.00      0.00      0.00
                                0.00      0.00      0.00
                                0.00      0.00      0.00

     XDM     stress (kbar)      0.00      0.00      0.00
                                0.00      0.00      0.00
                                0.00      0.00      0.00

     dft-nl  stress (kbar)      3.12      0.00      0.00
                                0.00      3.12     -0.00
                                0.00     -0.00     31.31

     TS-vdW  stress (kbar)      0.00      0.00      0.00
                                0.00      0.00      0.00
                                0.00      0.00      0.00

     MDB     stress (kbar)      0.00      0.00      0.00
                                0.00      0.00      0.00
                                0.00      0.00      0.00

     3D-RISM stress (kbar)      0.00      0.00      0.00
                                0.00      0.00      0.00
                                0.00      0.00      0.00

     Energy error            =      8.7E-06 Ry
     Gradient error          =      1.9E-03 Ry/Bohr

     number of scf cycles    =   3
     number of bfgs steps    =   2

     energy             old  =     -48.2542545345 Ry
     energy             new  =     -48.2542631934 Ry

     CASE: energy            _new < energy            _old


     WARNING: bfgs curvature condition failed, Theta= 0.444
     new trust radius        =       0.0032794694 bohr
     new conv_thr            =       0.0000000100 Ry


ATOMIC_POSITIONS (crystal)
C             0.0000000000        0.0000000000        0.0000000000    0   0   0
C             0.6666670000        0.3333330000        0.0000000000    0   0   0
C             0.0000000000        0.0000000000        0.1677576981
C             0.6666670000        0.3333330000        0.1677576981



     Writing config-only to output data dir ./tmp/C2L_AB_PBE_vdW.save/
     NEW-OLD atomic charge density approx. for the potential

     negative rho (up, down):  8.176E-08 0.000E+00


     -----------------------------------------------
     Non-local corr. energy    =       0.19446536 Ry
     -----------------------------------------------


     total cpu time spent up to now is      171.5 secs

     Self-consistent Calculation

     iteration #  1     ecut=   120.00 Ry     beta= 0.70
     Davidson diagonalization with overlap

---- Real-time Memory Report at c_bands before calling an iterative solver
             0 MiB given to the printing process from OS
             0 MiB allocation reported by mallinfo(arena+hblkhd)
             0 MiB available memory on the node where the printing process lives
------------------
     ethr =  1.00E-06,  avg # of iterations =  3.0

     Threshold (ethr) on eigenvalues was too large:
     Diagonalizing with lowered threshold

     Davidson diagonalization with overlap

---- Real-time Memory Report at c_bands before calling an iterative solver
             0 MiB given to the printing process from OS
             0 MiB allocation reported by mallinfo(arena+hblkhd)
             0 MiB available memory on the node where the printing process lives
------------------
     ethr =  2.11E-08,  avg # of iterations =  1.5

     negative rho (up, down):  2.066E-08 0.000E+00


     -----------------------------------------------
     Non-local corr. energy    =       0.19446220 Ry
     -----------------------------------------------


     total cpu time spent up to now is      180.8 secs

     total energy              =     -48.25427450 Ry
     estimated scf accuracy    <       0.00000406 Ry

     iteration #  2     ecut=   120.00 Ry     beta= 0.70
     Davidson diagonalization with overlap

---- Real-time Memory Report at c_bands before calling an iterative solver
             0 MiB given to the printing process from OS
             0 MiB allocation reported by mallinfo(arena+hblkhd)
             0 MiB available memory on the node where the printing process lives
------------------
     ethr =  2.54E-08,  avg # of iterations =  2.0

     negative rho (up, down):  1.215E-08 0.000E+00


     -----------------------------------------------
     Non-local corr. energy    =       0.19445976 Ry
     -----------------------------------------------


     total cpu time spent up to now is      185.5 secs

     total energy              =     -48.25427477 Ry
     estimated scf accuracy    <       0.00000356 Ry

     iteration #  3     ecut=   120.00 Ry     beta= 0.70
     Davidson diagonalization with overlap

---- Real-time Memory Report at c_bands before calling an iterative solver
             0 MiB given to the printing process from OS
             0 MiB allocation reported by mallinfo(arena+hblkhd)
             0 MiB available memory on the node where the printing process lives
------------------
     ethr =  2.22E-08,  avg # of iterations =  2.0


     -----------------------------------------------
     Non-local corr. energy    =       0.19445890 Ry
     -----------------------------------------------


     total cpu time spent up to now is      189.6 secs

     total energy              =     -48.25427562 Ry
     estimated scf accuracy    <       0.00000072 Ry

     iteration #  4     ecut=   120.00 Ry     beta= 0.70
     Davidson diagonalization with overlap

---- Real-time Memory Report at c_bands before calling an iterative solver
             0 MiB given to the printing process from OS
             0 MiB allocation reported by mallinfo(arena+hblkhd)
             0 MiB available memory on the node where the printing process lives
------------------
     ethr =  4.52E-09,  avg # of iterations =  1.9


     -----------------------------------------------
     Non-local corr. energy    =       0.19445886 Ry
     -----------------------------------------------


     total cpu time spent up to now is      193.7 secs

     total energy              =     -48.25427578 Ry
     estimated scf accuracy    <       0.00000016 Ry

     iteration #  5     ecut=   120.00 Ry     beta= 0.70
     Davidson diagonalization with overlap

---- Real-time Memory Report at c_bands before calling an iterative solver
             0 MiB given to the printing process from OS
             0 MiB allocation reported by mallinfo(arena+hblkhd)
             0 MiB available memory on the node where the printing process lives
------------------
     ethr =  9.79E-10,  avg # of iterations =  2.0


     -----------------------------------------------
     Non-local corr. energy    =       0.19445866 Ry
     -----------------------------------------------


     total cpu time spent up to now is      197.9 secs

     End of self-consistent calculation

          k = 0.0000 0.0000 0.0000 ( 15581 PWs)   bands (ev):

   -20.1475 -19.9746  -8.7326  -7.6536  -3.6547  -3.6546  -3.6332  -3.6332
     2.5702   2.9997   4.1768   5.2850

     occupation numbers 
     1.0000   1.0000   1.0000   1.0000   1.0000   1.0000   1.0000   1.0000
     0.0000   0.0000   0.0000   0.0000

          k = 0.0000 0.0962 0.0000 ( 15560 PWs)   bands (ev):

   -19.9833 -19.8121  -8.5340  -7.4609  -4.3053  -4.2771  -3.9918  -3.9687
     2.7900   3.2216   4.4028   5.5096

     occupation numbers 
     1.0000   1.0000   1.0000   1.0000   1.0000   1.0000   1.0000   1.0000
     0.0000   0.0000   0.0000   0.0000

          k = 0.0000 0.1925 0.0000 ( 15558 PWs)   bands (ev):

   -19.4925 -19.3262  -7.9432  -6.8882  -5.9436  -5.8997  -4.7823  -4.7559
     3.4489   3.8857   5.0806   6.1823

     occupation numbers 
     1.0000   1.0000   1.0000   1.0000   1.0000   1.0000   1.0000   1.0000
     0.0000   0.0000   0.0000   0.0000

          k = 0.0000 0.2887 0.0000 ( 15612 PWs)   bands (ev):

   -18.6810 -18.5226  -8.0436  -7.9812  -6.9779  -5.9559  -5.6612  -5.6320
     4.5433   4.9807   6.2017   6.3465

     occupation numbers 
     1.0000   1.0000   1.0000   1.0000   1.0000   1.0000   1.0000   1.0000
     0.0000   0.0000   0.0000   0.0000

          k = 0.0000 0.3849 0.0000 ( 15662 PWs)   bands (ev):

   -17.5610 -17.4132 -10.2486 -10.1678  -6.3945  -6.3636  -5.6858  -4.7170
     3.9625   4.6616   6.0624   6.5622

     occupation numbers 
     1.0000   1.0000   1.0000   1.0000   1.0000   1.0000   1.0000   1.0000
     0.0000   0.0000   0.0000   0.0000

          k = 0.0000 0.4811 0.0000 ( 15634 PWs)   bands (ev):

   -16.1647 -16.0291 -12.3497 -12.2519  -6.8677  -6.8357  -4.2236  -3.3392
     1.7508   2.6195   6.8283   7.0589

     occupation numbers 
     1.0000   1.0000   1.0000   1.0000   1.0000   1.0000   1.0000   1.0000
     0.0000   0.0000   0.0000   0.0000

          k = 0.0000-0.5774 0.0000 ( 15610 PWs)   bands (ev):

   -14.9079 -14.7786 -13.8493 -13.7436  -7.0301  -6.9978  -3.3385  -2.5361
     0.6005   1.5778   6.7486   6.9772

     occupation numbers 
     1.0000   1.0000   1.0000   1.0000   1.0000   1.0000   1.0000   1.0000
     0.0000   0.0000   0.0000   0.0000

          k = 0.0833 0.1443 0.0000 ( 15550 PWs)   bands (ev):

   -19.6558 -19.4879  -8.1392  -7.0780  -5.3401  -5.3025  -4.6670  -4.6391
     3.2296   3.6647   4.8549   5.9586

     occupation numbers 
     1.0000   1.0000   1.0000   1.0000   1.0000   1.0000   1.0000   1.0000
     0.0000   0.0000   0.0000   0.0000

          k = 0.0833 0.2406 0.0000 ( 15567 PWs)   bands (ev):

   -19.0046 -18.8432  -7.3602  -7.0512  -6.9986  -6.3243  -5.6634  -5.6296
     4.1075   4.5476   5.7584   6.8535

     occupation numbers 
     1.0000   1.0000   1.0000   1.0000   1.0000   1.0000   1.0000   1.0000
     0.0000   0.0000   0.0000   0.0000

          k = 0.0833 0.3368 0.0000 ( 15618 PWs)   bands (ev):

   -18.0387 -17.8865  -9.1257  -9.0549  -6.5500  -6.5125  -6.2251  -5.2318
     5.0261   5.4222   5.5692   5.9514

     occupation numbers 
     1.0000   1.0000   1.0000   1.0000   1.0000   1.0000   1.0000   1.0000
     0.0000   0.0000   0.0000   0.0000

          k = 0.0833 0.4330 0.0000 ( 15647 PWs)   bands (ev):

   -16.7773 -16.6367 -11.2498 -11.1611  -7.1852  -7.1457  -4.8152  -3.8884
     2.7500   3.5101   7.1306   7.6835

     occupation numbers 
     1.0000   1.0000   1.0000   1.0000   1.0000   1.0000   1.0000   1.0000
     0.0000   0.0000   0.0000   0.0000

          k = 0.0833 0.5292 0.0000 ( 15644 PWs)   bands (ev):

   -15.2993 -15.1702 -13.1899 -13.0864  -7.5140  -7.4736  -3.4586  -2.6302
     0.9112   1.8199   7.4727   7.7146

     occupation numbers 
     1.0000   1.0000   1.0000   1.0000   1.0000   1.0000   1.0000   1.0000
     0.0000   0.0000   0.0000   0.0000

          k = 0.1667 0.2887 0.0000 ( 15608 PWs)   bands (ev):

   -18.1991 -18.0454  -8.3855  -8.3224  -7.0229  -6.9766  -6.4074  -5.4061
     5.2019   5.5070   5.6451   6.0492

     occupation numbers 
     1.0000   1.0000   1.0000   1.0000   1.0000   1.0000   1.0000   1.0000
     0.0000   0.0000   0.0000   0.0000

          k = 0.1667 0.3849 0.0000 ( 15631 PWs)   bands (ev):

   -17.0901 -16.9468 -10.1139 -10.0356  -8.0796  -8.0262  -5.1306  -4.1824
     3.5196   4.1584   6.7207   7.1652

     occupation numbers 
     1.0000   1.0000   1.0000   1.0000   1.0000   1.0000   1.0000   1.0000
     0.0000   0.0000   0.0000   0.0000

[...]
                                0.00      0.00      0.00
                                0.00      0.00      0.00

     MDB     stress (kbar)      0.00      0.00      0.00
                                0.00      0.00      0.00
                                0.00      0.00      0.00

     3D-RISM stress (kbar)      0.00      0.00      0.00
                                0.00      0.00      0.00
                                0.00      0.00      0.00

     Energy error            =      7.7E-05 Ry
     Gradient error          =      1.4E-03 Ry/Bohr

     number of scf cycles    =   9
     number of bfgs steps    =   8

     energy             old  =     -48.2544169922 Ry
     energy             new  =     -48.2544936581 Ry

     CASE: energy            _new < energy            _old

     new trust radius        =       0.0373552058 bohr
     new conv_thr            =       0.0000000100 Ry


ATOMIC_POSITIONS (crystal)
C             0.0000000000        0.0000000000        0.0000000000    0   0   0
C             0.6666670000        0.3333330000        0.0000000000    0   0   0
C             0.0000000000        0.0000000000        0.1704966821
C             0.6666670000        0.3333330000        0.1704966821



     Writing config-only to output data dir ./tmp/C2L_AB_PBE_vdW.save/
     NEW-OLD atomic charge density approx. for the potential

     negative rho (up, down):  1.182E-06 0.000E+00


     -----------------------------------------------
     Non-local corr. energy    =       0.19522522 Ry
     -----------------------------------------------


     total cpu time spent up to now is      388.3 secs

     Self-consistent Calculation

     iteration #  1     ecut=   120.00 Ry     beta= 0.70
     Davidson diagonalization with overlap

---- Real-time Memory Report at c_bands before calling an iterative solver
             0 MiB given to the printing process from OS
             0 MiB allocation reported by mallinfo(arena+hblkhd)
             0 MiB available memory on the node where the printing process lives
------------------
     ethr =  1.00E-06,  avg # of iterations =  5.7

     negative rho (up, down):  3.130E-07 0.000E+00


     -----------------------------------------------
     Non-local corr. energy    =       0.19519301 Ry
     -----------------------------------------------


     total cpu time spent up to now is      395.7 secs

     total energy              =     -48.25441804 Ry
     estimated scf accuracy    <       0.00053816 Ry

     iteration #  2     ecut=   120.00 Ry     beta= 0.70
     Davidson diagonalization with overlap

---- Real-time Memory Report at c_bands before calling an iterative solver
             0 MiB given to the printing process from OS
             0 MiB allocation reported by mallinfo(arena+hblkhd)
             0 MiB available memory on the node where the printing process lives
------------------
     ethr =  3.36E-06,  avg # of iterations =  3.4

     negative rho (up, down):  1.885E-07 0.000E+00


     -----------------------------------------------
     Non-local corr. energy    =       0.19516172 Ry
     -----------------------------------------------


     total cpu time spent up to now is      400.5 secs

     total energy              =     -48.25445372 Ry
     estimated scf accuracy    <       0.00048131 Ry

     iteration #  3     ecut=   120.00 Ry     beta= 0.70
     Davidson diagonalization with overlap

---- Real-time Memory Report at c_bands before calling an iterative solver
             0 MiB given to the printing process from OS
             0 MiB allocation reported by mallinfo(arena+hblkhd)
             0 MiB available memory on the node where the printing process lives
------------------
     ethr =  3.01E-06,  avg # of iterations =  4.0

     negative rho (up, down):  8.959E-08 0.000E+00


     -----------------------------------------------
     Non-local corr. energy    =       0.19515113 Ry
     -----------------------------------------------


     total cpu time spent up to now is      405.4 secs

     total energy              =     -48.25456306 Ry
     estimated scf accuracy    <       0.00011456 Ry

     iteration #  4     ecut=   120.00 Ry     beta= 0.70
     Davidson diagonalization with overlap

---- Real-time Memory Report at c_bands before calling an iterative solver
             0 MiB given to the printing process from OS
             0 MiB allocation reported by mallinfo(arena+hblkhd)
             0 MiB available memory on the node where the printing process lives
------------------
     ethr =  7.16E-07,  avg # of iterations =  3.2

     negative rho (up, down):  2.848E-08 0.000E+00


     -----------------------------------------------
     Non-local corr. energy    =       0.19515003 Ry
     -----------------------------------------------


     total cpu time spent up to now is      409.5 secs

     total energy              =     -48.25458805 Ry
     estimated scf accuracy    <       0.00002480 Ry

     iteration #  5     ecut=   120.00 Ry     beta= 0.70
     Davidson diagonalization with overlap

---- Real-time Memory Report at c_bands before calling an iterative solver
             0 MiB given to the printing process from OS
             0 MiB allocation reported by mallinfo(arena+hblkhd)
             0 MiB available memory on the node where the printing process lives
------------------
     ethr =  1.55E-07,  avg # of iterations =  2.0


     -----------------------------------------------
     Non-local corr. energy    =       0.19514842 Ry
     -----------------------------------------------


     total cpu time spent up to now is      414.1 secs

     total energy              =     -48.25459295 Ry
     estimated scf accuracy    <       0.00000053 Ry

     iteration #  6     ecut=   120.00 Ry     beta= 0.70
     Davidson diagonalization with overlap

---- Real-time Memory Report at c_bands before calling an iterative solver
             0 MiB given to the printing process from OS
             0 MiB allocation reported by mallinfo(arena+hblkhd)
             0 MiB available memory on the node where the printing process lives
------------------
     ethr =  3.32E-09,  avg # of iterations =  2.2


     -----------------------------------------------
     Non-local corr. energy    =       0.19514852 Ry
     -----------------------------------------------


     total cpu time spent up to now is      418.6 secs

     End of self-consistent calculation

          k = 0.0000 0.0000 0.0000 ( 15581 PWs)   bands (ev):

   -20.1319 -19.9793  -8.6889  -7.6913  -3.6494  -3.6493  -3.6313  -3.6312
     2.5553   2.9923   4.1626   5.2900

     occupation numbers 
     1.0000   1.0000   1.0000   1.0000   1.0000   1.0000   1.0000   1.0000
     0.0000   0.0000   0.0000   0.0000

          k = 0.0000 0.0962 0.0000 ( 15560 PWs)   bands (ev):

   -19.9678 -19.8167  -8.4904  -7.4984  -4.2995  -4.2754  -3.9864  -3.9668
     2.7750   3.2142   4.3885   5.5145

     occupation numbers 
     1.0000   1.0000   1.0000   1.0000   1.0000   1.0000   1.0000   1.0000
     0.0000   0.0000   0.0000   0.0000

          k = 0.0000 0.1925 0.0000 ( 15558 PWs)   bands (ev):

   -19.4773 -19.3306  -7.8998  -6.9251  -5.9366  -5.8988  -4.7766  -4.7541
     3.4337   3.8783   5.0658   6.1870

     occupation numbers 
     1.0000   1.0000   1.0000   1.0000   1.0000   1.0000   1.0000   1.0000
     0.0000   0.0000   0.0000   0.0000

          k = 0.0000 0.2887 0.0000 ( 15612 PWs)   bands (ev):

   -18.6663 -18.5267  -8.0352  -7.9812  -6.9349  -5.9917  -5.6552  -5.6304
     4.5279   4.9735   6.1852   6.3738

     occupation numbers 
     1.0000   1.0000   1.0000   1.0000   1.0000   1.0000   1.0000   1.0000
     0.0000   0.0000   0.0000   0.0000

          k = 0.0000 0.3849 0.0000 ( 15662 PWs)   bands (ev):

   -17.5470 -17.4170 -10.2389 -10.1686  -6.3884  -6.3620  -5.6436  -4.7512
     3.9973   4.6382   6.0465   6.5539

     occupation numbers 
     1.0000   1.0000   1.0000   1.0000   1.0000   1.0000   1.0000   1.0000
     0.0000   0.0000   0.0000   0.0000

          k = 0.0000 0.4811 0.0000 ( 15634 PWs)   bands (ev):

   -16.1514 -16.0323 -12.3389 -12.2534  -6.8615  -6.8341  -4.1827  -3.3710
     1.7895   2.5908   6.8461   7.0521

     occupation numbers 
     1.0000   1.0000   1.0000   1.0000   1.0000   1.0000   1.0000   1.0000
     0.0000   0.0000   0.0000   0.0000

          k = 0.0000-0.5774 0.0000 ( 15610 PWs)   bands (ev):

   -14.8950 -14.7818 -13.8380 -13.7453  -7.0239  -6.9963  -3.2989  -2.5659
     0.6414   1.5462   6.7671   6.9703

     occupation numbers 
     1.0000   1.0000   1.0000   1.0000   1.0000   1.0000   1.0000   1.0000
     0.0000   0.0000   0.0000   0.0000

          k = 0.0833 0.1443 0.0000 ( 15550 PWs)   bands (ev):

   -19.6405 -19.4924  -8.0957  -7.1151  -5.3336  -5.3014  -4.6612  -4.6374
     3.2144   3.6573   4.8402   5.9634

     occupation numbers 
     1.0000   1.0000   1.0000   1.0000   1.0000   1.0000   1.0000   1.0000
     0.0000   0.0000   0.0000   0.0000

          k = 0.0833 0.2406 0.0000 ( 15567 PWs)   bands (ev):

   -18.9898 -18.8474  -7.3171  -7.0435  -6.9982  -6.3606  -5.6571  -5.6282
     4.0921   4.5403   5.7429   6.8582

     occupation numbers 
     1.0000   1.0000   1.0000   1.0000   1.0000   1.0000   1.0000   1.0000
     0.0000   0.0000   0.0000   0.0000

          k = 0.0833 0.3368 0.0000 ( 15618 PWs)   bands (ev):

   -18.0244 -17.8904  -9.1167  -9.0553  -6.5434  -6.5112  -6.1826  -5.2667
     5.0589   5.4060   5.5517   5.9403

     occupation numbers 
     1.0000   1.0000   1.0000   1.0000   1.0000   1.0000   1.0000   1.0000
     0.0000   0.0000   0.0000   0.0000

          k = 0.0833 0.4330 0.0000 ( 15647 PWs)   bands (ev):

   -16.7637 -16.6401 -11.2395 -11.1622  -7.1785  -7.1445  -4.7736  -3.9214
     2.7868   3.4843   7.1158   7.6163

     occupation numbers 
     1.0000   1.0000   1.0000   1.0000   1.0000   1.0000   1.0000   1.0000
     0.0000   0.0000   0.0000   0.0000

          k = 0.0833 0.5292 0.0000 ( 15644 PWs)   bands (ev):

   -15.2864 -15.1733 -13.1787 -13.0881  -7.5072  -7.4724  -3.4186  -2.6605
     0.9510   1.7899   7.4911   7.7077

     occupation numbers 
     1.0000   1.0000   1.0000   1.0000   1.0000   1.0000   1.0000   1.0000
     0.0000   0.0000   0.0000   0.0000

          k = 0.1667 0.2887 0.0000 ( 15608 PWs)   bands (ev):

   -18.1847 -18.0493  -8.3771  -8.3225  -7.0156  -6.9756  -6.3649  -5.4413
     5.1862   5.5395   5.6380   6.0294

     occupation numbers 
     1.0000   1.0000   1.0000   1.0000   1.0000   1.0000   1.0000   1.0000
     0.0000   0.0000   0.0000   0.0000

          k = 0.1667 0.3849 0.0000 ( 15631 PWs)   bands (ev):

   -17.0764 -16.9504 -10.1043 -10.0364  -8.0718  -8.0256  -5.0887  -4.2160
     3.5547   4.1353   6.7046   7.1582

     occupation numbers 
     1.0000   1.0000   1.0000   1.0000   1.0000   1.0000   1.0000   1.0000
     0.0000   0.0000   0.0000   0.0000

          k = 0.1667 0.4811 0.0000 ( 15642 PWs)   bands (ev):

   -15.7008 -15.5858 -12.0134 -11.9308  -8.6492  -8.6002  -3.6259  -2.8295
     1.5890   2.2860   8.6110   9.0603

     occupation numbers 
     1.0000   1.0000   1.0000   1.0000   1.0000   1.0000   1.0000   1.0000
     0.0000   0.0000   0.0000   0.0000

          k = 0.1667 0.5774 0.0000 ( 15640 PWs)   bands (ev):

   -14.4729 -14.3645 -13.4415 -13.3509  -8.8345  -8.7848  -2.6962  -1.9744
     0.4761   1.2645   9.2260   9.5240

     occupation numbers 
     1.0000   1.0000   1.0000   1.0000   1.0000   1.0000   1.0000   1.0000
     0.0000   0.0000   0.0000   0.0000

          k = 0.2500 0.4330 0.0000 ( 15658 PWs)   bands (ev):

   -15.8482 -15.7322 -11.1443 -11.0680  -9.5503  -9.4925  -3.7175  -2.9060
     1.9302   2.5439   8.4056   8.8076

     occupation numbers 
     1.0000   1.0000   1.0000   1.0000   1.0000   1.0000   1.0000   1.0000
     0.0000   0.0000   0.0000   0.0000

          k = 0.2500 0.5292 0.0000 ( 15617 PWs)   bands (ev):

   -14.4279 -14.3228 -12.5629 -12.4756 -10.2587 -10.1961  -2.2942  -1.5611
     0.3814   1.0591   9.4165  10.4204

     occupation numbers 
     1.0000   1.0000   1.0000   1.0000   1.0000   1.0000   1.0000   1.0000
     0.0000   0.0000   0.0000   0.0000

          k = 0.3333 0.5774 0.0000 ( 15606 PWs)   bands (ev):

   -13.2127 -13.2127 -13.1175 -13.1174 -11.1455 -11.0781  -0.9165  -0.9165
    -0.2312  -0.2312   8.9570  10.8122

     occupation numbers 
     1.0000   1.0000   1.0000   1.0000   1.0000   1.0000   1.0000   1.0000
     0.0000   0.0000   0.0000   0.0000

     the Fermi energy is    -0.5986 ev

!    total energy              =     -48.25459309 Ry
     estimated scf accuracy    <          7.7E-09 Ry
     smearing contrib. (-TS)   =       0.00000000 Ry
     internal energy E=F+TS    =     -48.25459309 Ry

     The total energy is F=E-TS. E is the sum of the following terms:
     one-electron contribution =    -522.71699820 Ry
     hartree contribution      =     265.03149449 Ry
     xc contribution           =     -17.21265837 Ry
     ewald contribution        =     226.64356899 Ry

     convergence has been achieved in   6 iterations


     -----------------------------------------------
     Non-local corr. energy    =       0.19514852 Ry
     -----------------------------------------------


     Forces acting on atoms (cartesian axes, Ry/au):

     atom    1 type  1   force =     0.00000000   -0.00000000   -0.00118734
     atom    2 type  1   force =     0.00000000    0.00000000   -0.00118734
     atom    3 type  1   force =     0.00000000    0.00000000    0.00118734
     atom    4 type  1   force =     0.00000000    0.00000000    0.00118734
     The non-local contrib.  to forces
     atom    1 type  1   force =     0.00000000    0.00000000   -0.00152839
     atom    2 type  1   force =    -0.00000000    0.00000000   -0.00152839
     atom    3 type  1   force =     0.00000000   -0.00000000    0.00150917
     atom    4 type  1   force =     0.00000000   -0.00000000    0.00150917
     The ionic contribution  to forces
     atom    1 type  1   force =     0.00000851   -0.00000491  -14.06031001
     atom    2 type  1   force =    -0.00000851    0.00000491  -14.06031001
     atom    3 type  1   force =     0.00000851   -0.00000491   14.06031001
     atom    4 type  1   force =    -0.00000851    0.00000491   14.06031001
     The local contribution  to forces
     atom    1 type  1   force =     0.00000000   -0.00000000   14.06062899
     atom    2 type  1   force =    -0.00000680    0.00000392   14.06062898
     atom    3 type  1   force =    -0.00000000   -0.00000000  -14.06061963
     atom    4 type  1   force =    -0.00000680    0.00000392  -14.06061962
     The core correction contribution to forces
     atom    1 type  1   force =    -0.00000000    0.00000000    0.00002488
     atom    2 type  1   force =     0.00000053   -0.00000031    0.00002488
     atom    3 type  1   force =    -0.00000000    0.00000000   -0.00002343
     atom    4 type  1   force =     0.00000053   -0.00000031   -0.00002343
     The Hubbard contrib.    to forces
     atom    1 type  1   force =     0.00000000    0.00000000    0.00000000
     atom    2 type  1   force =     0.00000000    0.00000000    0.00000000
     atom    3 type  1   force =     0.00000000    0.00000000    0.00000000
     atom    4 type  1   force =     0.00000000    0.00000000    0.00000000
     The SCF correction term to forces
     atom    1 type  1   force =    -0.00000000    0.00000000    0.00000000
     atom    2 type  1   force =    -0.00000000    0.00000000    0.00000000
     atom    3 type  1   force =    -0.00000000    0.00000000    0.00001882
     atom    4 type  1   force =    -0.00000000    0.00000000    0.00001882

     Total force =     0.001679     Total SCF correction =     0.000027


     Computing stress (Cartesian axis) and pressure



     -----------------------------------------------
     Non-local corr. energy    =       0.19514852 Ry
     -----------------------------------------------

          total   stress  (Ry/bohr**3)                   (kbar)     P=        0.51
  -0.00000560   0.00000000   0.00000000           -0.82        0.00        0.00
   0.00000000  -0.00000560   0.00000000            0.00       -0.82        0.00
   0.00000000   0.00000000   0.00002161            0.00        0.00        3.18

     kinetic stress (kbar)   4523.11      0.00      0.00
                                0.00   4523.11      0.00
                                0.00      0.00   4983.44

     local   stress (kbar)-113730.34      0.00      0.00
                                0.00-113730.34     -0.00
                                0.00     -0.00 115072.31

     nonloc. stress (kbar)   -460.18      0.00     -0.00
                                0.00   -460.18     -0.00
                               -0.00     -0.00   -385.16

     hartree stress (kbar)  55066.96     -0.00      0.00
                               -0.00  55066.96     -0.00
                                0.00     -0.00 -54716.85

     exc-cor stress (kbar)   -360.01     -0.00     -0.00
                               -0.00   -360.01      0.00
                               -0.00      0.00   -419.66

     corecor stress (kbar)   -686.11      0.00      0.00
                                0.00   -686.11     -0.00
                                0.00     -0.00   -667.39

     ewald   stress (kbar)  55642.65     -0.01      0.00
                               -0.01  55642.64      0.00
                                0.00      0.00 -63895.01

     hubbard stress (kbar)      0.00      0.00      0.00
                                0.00      0.00      0.00
                                0.00      0.00      0.00

     DFT-D   stress (kbar)      0.00      0.00      0.00
                                0.00      0.00      0.00
                                0.00      0.00      0.00

     XDM     stress (kbar)      0.00      0.00      0.00
                                0.00      0.00      0.00
                                0.00      0.00      0.00

     dft-nl  stress (kbar)      3.10      0.00     -0.00
                                0.00      3.10      0.00
                               -0.00      0.00     31.51

     TS-vdW  stress (kbar)      0.00      0.00      0.00
                                0.00      0.00      0.00
                                0.00      0.00      0.00

     MDB     stress (kbar)      0.00      0.00      0.00
                                0.00      0.00      0.00
                                0.00      0.00      0.00

     3D-RISM stress (kbar)      0.00      0.00      0.00
                                0.00      0.00      0.00
                                0.00      0.00      0.00

     Energy error            =      9.9E-05 Ry
     Gradient error          =      1.2E-03 Ry/Bohr

     number of scf cycles    =  10
     number of bfgs steps    =   9

     energy             old  =     -48.2544936581 Ry
     energy             new  =     -48.2545930896 Ry

     CASE: energy            _new < energy            _old

     new trust radius        =       0.0560328087 bohr
     new conv_thr            =       0.0000000100 Ry


ATOMIC_POSITIONS (crystal)
C             0.0000000000        0.0000000000        0.0000000000    0   0   0
C             0.6666670000        0.3333330000        0.0000000000    0   0   0
C             0.0000000000        0.0000000000        0.1719979748
C             0.6666670000        0.3333330000        0.1719979748



     Writing config-only to output data dir ./tmp/C2L_AB_PBE_vdW.save/
     NEW-OLD atomic charge density approx. for the potential

     negative rho (up, down):  1.772E-06 0.000E+00


     -----------------------------------------------
     Non-local corr. energy    =       0.19563036 Ry
     -----------------------------------------------


     total cpu time spent up to now is      427.0 secs

     Self-consistent Calculation

     iteration #  1     ecut=   120.00 Ry     beta= 0.70
