
     Program PWSCF v.7.2 starts on  5Apr2024 at  8:14:46 

     This program is part of the open-source Quantum ESPRESSO suite
     for quantum simulation of materials; please cite
         "P. Giannozzi et al., J. Phys.:Condens. Matter 21 395502 (2009);
         "P. Giannozzi et al., J. Phys.:Condens. Matter 29 465901 (2017);
         "P. Giannozzi et al., J. Chem. Phys. 152 154105 (2020);
          URL http://www.quantum-espresso.org", 
     in publications or presentations arising from this work. More details at
     http://www.quantum-espresso.org/quote

     Parallel version (MPI & OpenMP), running on       8 processor cores
     Number of MPI processes:                 8
     Threads/MPI process:                     1

     MPI processes distributed on     1 nodes
     0 MiB available memory on the printing compute node when the environment starts

     Waiting for input...
     Reading input from standard input

     Current dimensions of program PWSCF are:
     Max number of different atomic species (ntypx) = 10
     Max number of k-points (npk) =  40000
     Max angular momentum in pseudopotentials (lmaxx) =  4
     Presently no symmetry can be used with electric field


     R & G space division:  proc/nbgrp/npool/nimage =       8
     Subspace diagonalization in iterative solution of the eigenvalue problem:
     a serial algorithm will be used


     Parallelization info
     --------------------
     sticks:   dense  smooth     PW     G-vecs:    dense   smooth      PW
     Min          45      45     15                 5519     5519    1107
     Max          46      46     16                 5546     5546    1138
     Sum         361     361    121                44285    44285    8929

     Using Slab Decomposition



     bravais-lattice index     =            4
     lattice parameter (alat)  =       4.6645  a.u.
     unit-cell volume          =     703.1169 (a.u.)^3
     number of atoms/cell      =            4
     number of atomic types    =            1
     number of electrons       =        16.00
     number of Kohn-Sham states=            8
     kinetic-energy cutoff     =      60.0000  Ry
     charge density cutoff     =     240.0000  Ry
     scf convergence threshold =      1.0E-06
     mixing beta               =       0.7000
     number of iterations used =            8  plain     mixing
     Exchange-correlation= PBE
                           (   1   4   3   4   0   0   0)

     celldm(1)=   4.664470  celldm(2)=   0.000000  celldm(3)=   8.000000
     celldm(4)=   0.000000  celldm(5)=   0.000000  celldm(6)=   0.000000

     crystal axes: (cart. coord. in units of alat)
               a(1) = (   1.000000   0.000000   0.000000 )  
               a(2) = (  -0.500000   0.866025   0.000000 )  
               a(3) = (   0.000000   0.000000   8.000000 )  

     reciprocal axes: (cart. coord. in units 2 pi/alat)
               b(1) = (  1.000000  0.577350 -0.000000 )  
               b(2) = (  0.000000  1.154701  0.000000 )  
               b(3) = (  0.000000 -0.000000  0.125000 )  


     PseudoPot. # 1 for C  read from file:
     ../../../../../Pseudo/PBE/C.upf
     MD5 check sum: 34a24e64c0a39f27c6c36b90a16ac686
     Pseudo is Norm-conserving + core correction, Zval =  4.0
     Generated using ONCVPSP code by D. R. Hamann
     Using radial grid of 1248 points,  4 beta functions with: 
                l(1) =   0
                l(2) =   0
                l(3) =   1
                l(4) =   1

     atomic species   valence    mass     pseudopotential
        C              4.00    12.01100     C ( 1.00)

     No symmetry found


                                    s                        frac. trans.

      isym =  1     identity                                     

 cryst.   s( 1) = (     1          0          0      )
                  (     0          1          0      )
                  (     0          0          1      )

 cart.    s( 1) = (  1.0000000  0.0000000  0.0000000 )
                  (  0.0000000  1.0000000  0.0000000 )
                  (  0.0000000  0.0000000  1.0000000 )


     point group C_1 (1)    
     there are  1 classes
     the character table:

       E    
A      1.00

     the symmetry operations in each class and the name of the first element:

     E        1
          identity                                               

   Cartesian axes

     site n.     atom                  positions (alat units)
         1           C   tau(   1) = (   0.0000000   0.0000000   0.0000000  )
         2           C   tau(   2) = (   0.0000000   0.0000000   1.3401360  )
         3           C   tau(   3) = (   0.5000005   0.2886748   0.0000000  )
         4           C   tau(   4) = (  -0.0000005   0.5773506   1.3401360  )

   Crystallographic axes

     site n.     atom                  positions (cryst. coord.)
         1           C   tau(   1) = (  0.0000000  0.0000000  0.0000000  )
         2           C   tau(   2) = (  0.0000000  0.0000000  0.1675170  )
         3           C   tau(   3) = (  0.6666670  0.3333330  0.0000000  )
         4           C   tau(   4) = (  0.3333330  0.6666670  0.1675170  )

     number of k points=    74
                       cart. coord. in units 2pi/alat
        k(    1) = (   0.0000000   0.0000000   0.0000000), wk =   0.0138889
        k(    2) = (   0.0000000   0.0962250   0.0000000), wk =   0.0277778
        k(    3) = (   0.0000000   0.1924501   0.0000000), wk =   0.0277778
        k(    4) = (   0.0000000   0.2886751   0.0000000), wk =   0.0277778
        k(    5) = (   0.0000000   0.3849002   0.0000000), wk =   0.0277778
        k(    6) = (   0.0000000   0.4811252   0.0000000), wk =   0.0277778
        k(    7) = (   0.0000000  -0.5773503   0.0000000), wk =   0.0138889
        k(    8) = (   0.0833333   0.0481125   0.0000000), wk =   0.0277778
        k(    9) = (   0.0833333   0.1443376   0.0000000), wk =   0.0277778
        k(   10) = (   0.0833333   0.2405626   0.0000000), wk =   0.0277778
        k(   11) = (   0.0833333   0.3367877   0.0000000), wk =   0.0277778
        k(   12) = (   0.0833333   0.4330127   0.0000000), wk =   0.0277778
        k(   13) = (   0.0833333   0.5292377   0.0000000), wk =   0.0277778
        k(   14) = (   0.0833333  -0.5292377   0.0000000), wk =   0.0277778
        k(   15) = (   0.0833333  -0.4330127   0.0000000), wk =   0.0277778
        k(   16) = (   0.0833333  -0.3367877   0.0000000), wk =   0.0277778
        k(   17) = (   0.0833333  -0.2405626   0.0000000), wk =   0.0277778
        k(   18) = (   0.0833333  -0.1443376   0.0000000), wk =   0.0277778
        k(   19) = (   0.0833333  -0.0481125   0.0000000), wk =   0.0277778
        k(   20) = (   0.1666667   0.0962250   0.0000000), wk =   0.0277778
        k(   21) = (   0.1666667   0.1924501   0.0000000), wk =   0.0277778
        k(   22) = (   0.1666667   0.2886751   0.0000000), wk =   0.0277778
        k(   23) = (   0.1666667   0.3849002   0.0000000), wk =   0.0277778
        k(   24) = (   0.1666667   0.4811252   0.0000000), wk =   0.0277778
        k(   25) = (   0.1666667   0.5773503   0.0000000), wk =   0.0277778
        k(   26) = (   0.1666667  -0.4811252   0.0000000), wk =   0.0277778
        k(   27) = (   0.1666667  -0.3849002   0.0000000), wk =   0.0277778
        k(   28) = (   0.1666667  -0.2886751   0.0000000), wk =   0.0277778
        k(   29) = (   0.1666667  -0.1924501   0.0000000), wk =   0.0277778
        k(   30) = (   0.1666667  -0.0962250   0.0000000), wk =   0.0277778
        k(   31) = (   0.1666667  -0.0000000   0.0000000), wk =   0.0277778
        k(   32) = (   0.2500000   0.1443376   0.0000000), wk =   0.0277778
        k(   33) = (   0.2500000   0.2405626   0.0000000), wk =   0.0277778
        k(   34) = (   0.2500000   0.3367877   0.0000000), wk =   0.0277778
        k(   35) = (   0.2500000   0.4330127   0.0000000), wk =   0.0277778
        k(   36) = (   0.2500000   0.5292377   0.0000000), wk =   0.0277778
        k(   37) = (   0.2500000   0.6254628   0.0000000), wk =   0.0277778
        k(   38) = (   0.2500000  -0.4330127   0.0000000), wk =   0.0277778
        k(   39) = (   0.2500000  -0.3367877   0.0000000), wk =   0.0277778
        k(   40) = (   0.2500000  -0.2405626   0.0000000), wk =   0.0277778
        k(   41) = (   0.2500000  -0.1443376   0.0000000), wk =   0.0277778
        k(   42) = (   0.2500000  -0.0481125   0.0000000), wk =   0.0277778
        k(   43) = (   0.2500000   0.0481125   0.0000000), wk =   0.0277778
        k(   44) = (   0.3333333   0.1924501   0.0000000), wk =   0.0277778
        k(   45) = (   0.3333333   0.2886751   0.0000000), wk =   0.0277778
        k(   46) = (   0.3333333   0.3849002   0.0000000), wk =   0.0277778
        k(   47) = (   0.3333333   0.4811252   0.0000000), wk =   0.0277778
        k(   48) = (   0.3333333   0.5773503   0.0000000), wk =   0.0277778
        k(   49) = (   0.3333333   0.6735753   0.0000000), wk =   0.0277778
        k(   50) = (   0.3333333  -0.3849002   0.0000000), wk =   0.0277778
        k(   51) = (   0.3333333  -0.2886751   0.0000000), wk =   0.0277778
        k(   52) = (   0.3333333  -0.1924501   0.0000000), wk =   0.0277778
        k(   53) = (   0.3333333  -0.0962250   0.0000000), wk =   0.0277778
        k(   54) = (   0.3333333   0.0000000   0.0000000), wk =   0.0277778
        k(   55) = (   0.3333333   0.0962250   0.0000000), wk =   0.0277778
        k(   56) = (   0.4166667   0.2405626   0.0000000), wk =   0.0277778
        k(   57) = (   0.4166667   0.3367877   0.0000000), wk =   0.0277778
        k(   58) = (   0.4166667   0.4330127   0.0000000), wk =   0.0277778
        k(   59) = (   0.4166667   0.5292377   0.0000000), wk =   0.0277778
        k(   60) = (   0.4166667   0.6254628   0.0000000), wk =   0.0277778
        k(   61) = (   0.4166667   0.7216878   0.0000000), wk =   0.0277778
        k(   62) = (   0.4166667  -0.3367877   0.0000000), wk =   0.0277778
        k(   63) = (   0.4166667  -0.2405626   0.0000000), wk =   0.0277778
        k(   64) = (   0.4166667  -0.1443376   0.0000000), wk =   0.0277778
        k(   65) = (   0.4166667  -0.0481125   0.0000000), wk =   0.0277778
        k(   66) = (   0.4166667   0.0481125   0.0000000), wk =   0.0277778
        k(   67) = (   0.4166667   0.1443376   0.0000000), wk =   0.0277778
        k(   68) = (  -0.5000000  -0.2886751   0.0000000), wk =   0.0138889
        k(   69) = (  -0.5000000  -0.1924501   0.0000000), wk =   0.0277778
        k(   70) = (  -0.5000000  -0.0962250   0.0000000), wk =   0.0277778
        k(   71) = (  -0.5000000   0.0000000   0.0000000), wk =   0.0277778
        k(   72) = (  -0.5000000   0.0962250   0.0000000), wk =   0.0277778
        k(   73) = (  -0.5000000   0.1924501   0.0000000), wk =   0.0277778
        k(   74) = (  -0.5000000  -0.8660254   0.0000000), wk =   0.0138889

                       cryst. coord.
        k(    1) = (   0.0000000   0.0000000   0.0000000), wk =   0.0138889
        k(    2) = (   0.0000000   0.0833333   0.0000000), wk =   0.0277778
        k(    3) = (   0.0000000   0.1666667   0.0000000), wk =   0.0277778
        k(    4) = (   0.0000000   0.2500000   0.0000000), wk =   0.0277778
        k(    5) = (   0.0000000   0.3333333   0.0000000), wk =   0.0277778
        k(    6) = (   0.0000000   0.4166667   0.0000000), wk =   0.0277778
        k(    7) = (   0.0000000  -0.5000000   0.0000000), wk =   0.0138889
        k(    8) = (   0.0833333   0.0000000   0.0000000), wk =   0.0277778
        k(    9) = (   0.0833333   0.0833333   0.0000000), wk =   0.0277778
        k(   10) = (   0.0833333   0.1666667   0.0000000), wk =   0.0277778
        k(   11) = (   0.0833333   0.2500000   0.0000000), wk =   0.0277778
        k(   12) = (   0.0833333   0.3333333   0.0000000), wk =   0.0277778
        k(   13) = (   0.0833333   0.4166667   0.0000000), wk =   0.0277778
        k(   14) = (   0.0833333  -0.5000000   0.0000000), wk =   0.0277778
        k(   15) = (   0.0833333  -0.4166667   0.0000000), wk =   0.0277778
        k(   16) = (   0.0833333  -0.3333333   0.0000000), wk =   0.0277778
        k(   17) = (   0.0833333  -0.2500000   0.0000000), wk =   0.0277778
        k(   18) = (   0.0833333  -0.1666667   0.0000000), wk =   0.0277778
        k(   19) = (   0.0833333  -0.0833333   0.0000000), wk =   0.0277778
        k(   20) = (   0.1666667   0.0000000   0.0000000), wk =   0.0277778
        k(   21) = (   0.1666667   0.0833333   0.0000000), wk =   0.0277778
        k(   22) = (   0.1666667   0.1666667   0.0000000), wk =   0.0277778
        k(   23) = (   0.1666667   0.2500000   0.0000000), wk =   0.0277778
        k(   24) = (   0.1666667   0.3333333   0.0000000), wk =   0.0277778
        k(   25) = (   0.1666667   0.4166667   0.0000000), wk =   0.0277778
        k(   26) = (   0.1666667  -0.5000000   0.0000000), wk =   0.0277778
        k(   27) = (   0.1666667  -0.4166667   0.0000000), wk =   0.0277778
        k(   28) = (   0.1666667  -0.3333333   0.0000000), wk =   0.0277778
        k(   29) = (   0.1666667  -0.2500000   0.0000000), wk =   0.0277778
        k(   30) = (   0.1666667  -0.1666667   0.0000000), wk =   0.0277778
        k(   31) = (   0.1666667  -0.0833333   0.0000000), wk =   0.0277778
        k(   32) = (   0.2500000   0.0000000   0.0000000), wk =   0.0277778
        k(   33) = (   0.2500000   0.0833333   0.0000000), wk =   0.0277778
        k(   34) = (   0.2500000   0.1666667   0.0000000), wk =   0.0277778
        k(   35) = (   0.2500000   0.2500000   0.0000000), wk =   0.0277778
        k(   36) = (   0.2500000   0.3333333   0.0000000), wk =   0.0277778
        k(   37) = (   0.2500000   0.4166667   0.0000000), wk =   0.0277778
        k(   38) = (   0.2500000  -0.5000000   0.0000000), wk =   0.0277778
        k(   39) = (   0.2500000  -0.4166667   0.0000000), wk =   0.0277778
        k(   40) = (   0.2500000  -0.3333333   0.0000000), wk =   0.0277778
        k(   41) = (   0.2500000  -0.2500000   0.0000000), wk =   0.0277778
        k(   42) = (   0.2500000  -0.1666667   0.0000000), wk =   0.0277778
        k(   43) = (   0.2500000  -0.0833333   0.0000000), wk =   0.0277778
        k(   44) = (   0.3333333   0.0000000   0.0000000), wk =   0.0277778
        k(   45) = (   0.3333333   0.0833333   0.0000000), wk =   0.0277778
        k(   46) = (   0.3333333   0.1666667   0.0000000), wk =   0.0277778
        k(   47) = (   0.3333333   0.2500000   0.0000000), wk =   0.0277778
        k(   48) = (   0.3333333   0.3333333   0.0000000), wk =   0.0277778
        k(   49) = (   0.3333333   0.4166667   0.0000000), wk =   0.0277778
        k(   50) = (   0.3333333  -0.5000000   0.0000000), wk =   0.0277778
        k(   51) = (   0.3333333  -0.4166667   0.0000000), wk =   0.0277778
        k(   52) = (   0.3333333  -0.3333333   0.0000000), wk =   0.0277778
        k(   53) = (   0.3333333  -0.2500000   0.0000000), wk =   0.0277778
        k(   54) = (   0.3333333  -0.1666667   0.0000000), wk =   0.0277778
        k(   55) = (   0.3333333  -0.0833333   0.0000000), wk =   0.0277778
        k(   56) = (   0.4166667   0.0000000   0.0000000), wk =   0.0277778
        k(   57) = (   0.4166667   0.0833333   0.0000000), wk =   0.0277778
        k(   58) = (   0.4166667   0.1666667   0.0000000), wk =   0.0277778
        k(   59) = (   0.4166667   0.2500000   0.0000000), wk =   0.0277778
        k(   60) = (   0.4166667   0.3333333   0.0000000), wk =   0.0277778
        k(   61) = (   0.4166667   0.4166667   0.0000000), wk =   0.0277778
        k(   62) = (   0.4166667  -0.5000000   0.0000000), wk =   0.0277778
        k(   63) = (   0.4166667  -0.4166667   0.0000000), wk =   0.0277778
        k(   64) = (   0.4166667  -0.3333333   0.0000000), wk =   0.0277778
        k(   65) = (   0.4166667  -0.2500000   0.0000000), wk =   0.0277778
        k(   66) = (   0.4166667  -0.1666667   0.0000000), wk =   0.0277778
        k(   67) = (   0.4166667  -0.0833333   0.0000000), wk =   0.0277778
        k(   68) = (  -0.5000000   0.0000000   0.0000000), wk =   0.0138889
        k(   69) = (  -0.5000000   0.0833333   0.0000000), wk =   0.0277778
        k(   70) = (  -0.5000000   0.1666667   0.0000000), wk =   0.0277778
        k(   71) = (  -0.5000000   0.2500000   0.0000000), wk =   0.0277778
        k(   72) = (  -0.5000000   0.3333333   0.0000000), wk =   0.0277778
        k(   73) = (  -0.5000000   0.4166667   0.0000000), wk =   0.0277778
        k(   74) = (  -0.5000000  -0.5000000   0.0000000), wk =   0.0138889

     Dense  grid:    44285 G-vectors     FFT dimensions: (  24,  24, 192)

     Dynamical RAM for                 wfc:       0.08 MB

     Dynamical RAM for     wfc (w. buffer):       6.31 MB

     Dynamical RAM for           str. fact:       0.08 MB

     Dynamical RAM for           local pot:       0.00 MB

     Dynamical RAM for          nlocal pot:       0.34 MB

     Dynamical RAM for                qrad:       0.36 MB

     Dynamical RAM for          rho,v,vnew:       0.57 MB

     Dynamical RAM for               rhoin:       0.19 MB

     Dynamical RAM for            rho*nmix:       1.35 MB

     Dynamical RAM for           G-vectors:       0.36 MB

     Dynamical RAM for          h,s,v(r/c):       0.01 MB

     Dynamical RAM for          <psi|beta>:       0.00 MB

     Dynamical RAM for                 psi:       0.17 MB

     Dynamical RAM for                hpsi:       0.17 MB

     Dynamical RAM for      wfcinit/wfcrot:       0.34 MB

     Estimated static dynamical RAM per process >       8.90 MB

     Estimated max dynamical RAM per process >      10.60 MB

     Estimated total dynamical RAM >      84.82 MB

     Adding external electric field
        E field amplitude [Ha a.u.]:  7.0000E-03
        Potential amp.        0.4702 Ry
        Total length         33.5842 bohr


     Initial potential from superposition of free atoms

     starting charge      15.9998, renormalised to      16.0000

     negative rho (up, down):  2.374E-05 0.000E+00
     Starting wfcs are   16 randomized atomic wfcs

     total cpu time spent up to now is        1.0 secs

     Self-consistent Calculation

     iteration #  1     ecut=    60.00 Ry     beta= 0.70
     Davidson diagonalization with overlap

---- Real-time Memory Report at c_bands before calling an iterative solver
             0 MiB given to the printing process from OS
             0 MiB allocation reported by mallinfo(arena+hblkhd)
             0 MiB available memory on the node where the printing process lives
------------------
     ethr =  1.00E-02,  avg # of iterations =  2.0

     negative rho (up, down):  2.014E-07 0.000E+00

     total cpu time spent up to now is        2.1 secs

     total energy              =     -48.13312982 Ry
     estimated scf accuracy    <       0.33730189 Ry

     iteration #  2     ecut=    60.00 Ry     beta= 0.70
     Davidson diagonalization with overlap

---- Real-time Memory Report at c_bands before calling an iterative solver
             0 MiB given to the printing process from OS
             0 MiB allocation reported by mallinfo(arena+hblkhd)
             0 MiB available memory on the node where the printing process lives
------------------
     ethr =  2.11E-03,  avg # of iterations =  2.1

     total cpu time spent up to now is        3.1 secs

     total energy              =     -48.17178384 Ry
     estimated scf accuracy    <       0.01076939 Ry

     iteration #  3     ecut=    60.00 Ry     beta= 0.70
     Davidson diagonalization with overlap

---- Real-time Memory Report at c_bands before calling an iterative solver
             0 MiB given to the printing process from OS
             0 MiB allocation reported by mallinfo(arena+hblkhd)
             0 MiB available memory on the node where the printing process lives
------------------
     ethr =  6.73E-05,  avg # of iterations =  2.7

     total cpu time spent up to now is        4.3 secs

     total energy              =     -48.17579040 Ry
     estimated scf accuracy    <       0.00489794 Ry

     iteration #  4     ecut=    60.00 Ry     beta= 0.70
     Davidson diagonalization with overlap

---- Real-time Memory Report at c_bands before calling an iterative solver
             0 MiB given to the printing process from OS
             0 MiB allocation reported by mallinfo(arena+hblkhd)
             0 MiB available memory on the node where the printing process lives
------------------
     ethr =  3.06E-05,  avg # of iterations =  2.2

     total cpu time spent up to now is        5.3 secs

     total energy              =     -48.17710115 Ry
     estimated scf accuracy    <       0.00031364 Ry

     iteration #  5     ecut=    60.00 Ry     beta= 0.70
     Davidson diagonalization with overlap

---- Real-time Memory Report at c_bands before calling an iterative solver
             0 MiB given to the printing process from OS
             0 MiB allocation reported by mallinfo(arena+hblkhd)
             0 MiB available memory on the node where the printing process lives
------------------
     ethr =  1.96E-06,  avg # of iterations =  3.3

     total cpu time spent up to now is        6.6 secs

     total energy              =     -48.17724149 Ry
     estimated scf accuracy    <       0.00001826 Ry

     iteration #  6     ecut=    60.00 Ry     beta= 0.70
     Davidson diagonalization with overlap

---- Real-time Memory Report at c_bands before calling an iterative solver
             0 MiB given to the printing process from OS
             0 MiB allocation reported by mallinfo(arena+hblkhd)
             0 MiB available memory on the node where the printing process lives
------------------
     ethr =  1.14E-07,  avg # of iterations =  4.7

     total cpu time spent up to now is        8.2 secs

     total energy              =     -48.17725269 Ry
     estimated scf accuracy    <       0.00000204 Ry

     iteration #  7     ecut=    60.00 Ry     beta= 0.70
     Davidson diagonalization with overlap

---- Real-time Memory Report at c_bands before calling an iterative solver
             0 MiB given to the printing process from OS
             0 MiB allocation reported by mallinfo(arena+hblkhd)
             0 MiB available memory on the node where the printing process lives
------------------
     ethr =  1.27E-08,  avg # of iterations =  3.7

     total cpu time spent up to now is        9.6 secs

     End of self-consistent calculation

          k = 0.0000 0.0000 0.0000 (  5505 PWs)   bands (ev):

   -19.4562 -19.2882  -7.9660  -6.9213  -2.9022  -2.9021  -2.8874  -2.8874

     occupation numbers 
     1.0000   1.0000   1.0000   1.0000   1.0000   1.0000   1.0000   1.0000

          k = 0.0000 0.0962 0.0000 (  5518 PWs)   bands (ev):

   -19.2918 -19.1253  -7.7669  -6.7290  -3.5598  -3.5388  -3.2445  -3.2258

     occupation numbers 
     1.0000   1.0000   1.0000   1.0000   1.0000   1.0000   1.0000   1.0000

          k = 0.0000 0.1925 0.0000 (  5532 PWs)   bands (ev):

   -18.8001 -18.6387  -7.1755  -6.1585  -5.2109  -5.1725  -4.0422  -4.0182

     occupation numbers 
     1.0000   1.0000   1.0000   1.0000   1.0000   1.0000   1.0000   1.0000

          k = 0.0000 0.2887 0.0000 (  5500 PWs)   bands (ev):

   -17.9868 -17.8336  -7.3217  -7.2643  -6.2081  -5.2306  -4.9260  -4.8985

     occupation numbers 
     1.0000   1.0000   1.0000   1.0000   1.0000   1.0000   1.0000   1.0000

          k = 0.0000 0.3849 0.0000 (  5544 PWs)   bands (ev):

   -16.8650 -16.7229  -9.5353  -9.4601  -5.6638  -5.6337  -4.9099  -4.0061

     occupation numbers 
     1.0000   1.0000   1.0000   1.0000   1.0000   1.0000   1.0000   1.0000

          k = 0.0000 0.4811 0.0000 (  5530 PWs)   bands (ev):

   -15.4644 -15.3379 -11.6425 -11.5510  -6.1390  -6.1080  -3.4170  -2.6810

     occupation numbers 
     1.0000   1.0000   1.0000   1.0000   1.0000   1.0000   1.0000   1.0000

          k = 0.0000-0.5774 0.0000 (  5540 PWs)   bands (ev):

   -14.1784 -14.1146 -13.1191 -13.0709  -6.3022  -6.2711  -2.4264  -2.0377

     occupation numbers 
     1.0000   1.0000   1.0000   1.0000   1.0000   1.0000   1.0000   1.0000

          k = 0.0833 0.0481 0.0000 (  5518 PWs)   bands (ev):

   -19.2918 -19.1253  -7.7669  -6.7290  -3.5598  -3.5388  -3.2445  -3.2258

     occupation numbers 
     1.0000   1.0000   1.0000   1.0000   1.0000   1.0000   1.0000   1.0000

          k = 0.0833 0.1443 0.0000 (  5513 PWs)   bands (ev):

   -18.9637 -18.8005  -7.3715  -6.3471  -4.5976  -4.5768  -3.9211  -3.9049

     occupation numbers 
     1.0000   1.0000   1.0000   1.0000   1.0000   1.0000   1.0000   1.0000

          k = 0.0833 0.2406 0.0000 (  5507 PWs)   bands (ev):

   -18.3112 -18.1548  -6.5916  -6.3202  -6.2807  -5.5965  -4.9264  -4.9002

     occupation numbers 
     1.0000   1.0000   1.0000   1.0000   1.0000   1.0000   1.0000   1.0000

          k = 0.0833 0.3368 0.0000 (  5525 PWs)   bands (ev):

   -17.3435 -17.1968  -8.4064  -8.3439  -5.8199  -5.7859  -5.4535  -4.5127

     occupation numbers 
     1.0000   1.0000   1.0000   1.0000   1.0000   1.0000   1.0000   1.0000

          k = 0.0833 0.4330 0.0000 (  5525 PWs)   bands (ev):

   -16.0793 -15.9455 -10.5391 -10.4569  -6.4585  -6.4210  -4.0299  -3.1935

     occupation numbers 
     1.0000   1.0000   1.0000   1.0000   1.0000   1.0000   1.0000   1.0000

          k = 0.0833 0.5292 0.0000 (  5533 PWs)   bands (ev):

   -14.5929 -14.4817 -12.4817 -12.3909  -6.7891  -6.7500  -2.6037  -2.0501

     occupation numbers 
     1.0000   1.0000   1.0000   1.0000   1.0000   1.0000   1.0000   1.0000

          k = 0.0833-0.5292 0.0000 (  5533 PWs)   bands (ev):

   -14.5929 -14.4817 -12.4817 -12.3909  -6.7891  -6.7500  -2.6037  -2.0501

     occupation numbers 
     1.0000   1.0000   1.0000   1.0000   1.0000   1.0000   1.0000   1.0000

          k = 0.0833-0.4330 0.0000 (  5525 PWs)   bands (ev):

   -16.0793 -15.9455 -10.5391 -10.4569  -6.4585  -6.4210  -4.0299  -3.1935

     occupation numbers 
     1.0000   1.0000   1.0000   1.0000   1.0000   1.0000   1.0000   1.0000

          k = 0.0833-0.3368 0.0000 (  5525 PWs)   bands (ev):

   -17.3435 -17.1968  -8.4065  -8.3439  -5.8199  -5.7859  -5.4535  -4.5127

     occupation numbers 
     1.0000   1.0000   1.0000   1.0000   1.0000   1.0000   1.0000   1.0000

          k = 0.0833-0.2406 0.0000 (  5507 PWs)   bands (ev):

   -18.3112 -18.1548  -6.5916  -6.3202  -6.2807  -5.5965  -4.9264  -4.9002

     occupation numbers 
     1.0000   1.0000   1.0000   1.0000   1.0000   1.0000   1.0000   1.0000

          k = 0.0833-0.1443 0.0000 (  5513 PWs)   bands (ev):

   -18.9637 -18.8005  -7.3715  -6.3471  -4.5976  -4.5768  -3.9211  -3.9049

     occupation numbers 
     1.0000   1.0000   1.0000   1.0000   1.0000   1.0000   1.0000   1.0000

          k = 0.0833-0.0481 0.0000 (  5518 PWs)   bands (ev):

   -19.2918 -19.1253  -7.7669  -6.7290  -3.5598  -3.5388  -3.2445  -3.2258

     occupation numbers 
     1.0000   1.0000   1.0000   1.0000   1.0000   1.0000   1.0000   1.0000

          k = 0.1667 0.0962 0.0000 (  5532 PWs)   bands (ev):

   -18.8001 -18.6387  -7.1755  -6.1585  -5.2109  -5.1725  -4.0422  -4.0182

     occupation numbers 
     1.0000   1.0000   1.0000   1.0000   1.0000   1.0000   1.0000   1.0000

          k = 0.1667 0.1925 0.0000 (  5507 PWs)   bands (ev):

   -18.3112 -18.1548  -6.5916  -6.3202  -6.2807  -5.5965  -4.9264  -4.9002

     occupation numbers 
     1.0000   1.0000   1.0000   1.0000   1.0000   1.0000   1.0000   1.0000

          k = 0.1667 0.2887 0.0000 (  5510 PWs)   bands (ev):

   -17.5043 -17.3560  -7.6509  -7.6195  -6.2864  -6.2628  -5.6371  -4.6844

     occupation numbers 
     1.0000   1.0000   1.0000   1.0000   1.0000   1.0000   1.0000   1.0000

          k = 0.1667 0.3849 0.0000 (  5515 PWs)   bands (ev):

   -16.3929 -16.2558  -9.3924  -9.3333  -7.3536  -7.3125  -4.3529  -3.4741

     occupation numbers 
     1.0000   1.0000   1.0000   1.0000   1.0000   1.0000   1.0000   1.0000

          k = 0.1667 0.4811 0.0000 (  5530 PWs)   bands (ev):

   -15.0126 -14.8904 -11.3129 -11.2298  -7.9372  -7.8857  -2.8615  -2.1374

     occupation numbers 
     1.0000   1.0000   1.0000   1.0000   1.0000   1.0000   1.0000   1.0000

          k = 0.1667 0.5774 0.0000 (  5518 PWs)   bands (ev):

   -13.7558 -13.6949 -12.7189 -12.6770  -8.1240  -8.0700  -1.8274  -1.4450

     occupation numbers 
     1.0000   1.0000   1.0000   1.0000   1.0000   1.0000   1.0000   1.0000

          k = 0.1667-0.4811 0.0000 (  5530 PWs)   bands (ev):

   -15.0126 -14.8904 -11.3129 -11.2298  -7.9372  -7.8857  -2.8615  -2.1374

     occupation numbers 
     1.0000   1.0000   1.0000   1.0000   1.0000   1.0000   1.0000   1.0000

          k = 0.1667-0.3849 0.0000 (  5515 PWs)   bands (ev):

   -16.3929 -16.2558  -9.3924  -9.3333  -7.3536  -7.3125  -4.3529  -3.4741

     occupation numbers 
     1.0000   1.0000   1.0000   1.0000   1.0000   1.0000   1.0000   1.0000

          k = 0.1667-0.2887 0.0000 (  5510 PWs)   bands (ev):

   -17.5043 -17.3560  -7.6509  -7.6196  -6.2864  -6.2628  -5.6371  -4.6844

     occupation numbers 
     1.0000   1.0000   1.0000   1.0000   1.0000   1.0000   1.0000   1.0000

          k = 0.1667-0.1925 0.0000 (  5507 PWs)   bands (ev):

   -18.3112 -18.1548  -6.5916  -6.3202  -6.2807  -5.5965  -4.9264  -4.9002

     occupation numbers 
     1.0000   1.0000   1.0000   1.0000   1.0000   1.0000   1.0000   1.0000

          k = 0.1667-0.0962 0.0000 (  5532 PWs)   bands (ev):

   -18.8001 -18.6387  -7.1755  -6.1585  -5.2109  -5.1725  -4.0422  -4.0182

     occupation numbers 
     1.0000   1.0000   1.0000   1.0000   1.0000   1.0000   1.0000   1.0000

          k = 0.1667-0.0000 0.0000 (  5513 PWs)   bands (ev):

   -18.9637 -18.8005  -7.3715  -6.3471  -4.5976  -4.5768  -3.9211  -3.9049

     occupation numbers 
     1.0000   1.0000   1.0000   1.0000   1.0000   1.0000   1.0000   1.0000

          k = 0.2500 0.1443 0.0000 (  5500 PWs)   bands (ev):

   -17.9868 -17.8336  -7.3217  -7.2643  -6.2081  -5.2306  -4.9260  -4.8985

     occupation numbers 
     1.0000   1.0000   1.0000   1.0000   1.0000   1.0000   1.0000   1.0000

          k = 0.2500 0.2406 0.0000 (  5525 PWs)   bands (ev):

   -17.3435 -17.1968  -8.4064  -8.3439  -5.8199  -5.7859  -5.4535  -4.5127

     occupation numbers 
     1.0000   1.0000   1.0000   1.0000   1.0000   1.0000   1.0000   1.0000

          k = 0.2500 0.3368 0.0000 (  5515 PWs)   bands (ev):

   -16.3929 -16.2558  -9.3924  -9.3333  -7.3536  -7.3125  -4.3529  -3.4741

     occupation numbers 
     1.0000   1.0000   1.0000   1.0000   1.0000   1.0000   1.0000   1.0000

          k = 0.2500 0.4330 0.0000 (  5486 PWs)   bands (ev):

   -15.1607 -15.0363 -10.4237 -10.3805  -8.8279  -8.7959  -2.9670  -2.1900

     occupation numbers 
     1.0000   1.0000   1.0000   1.0000   1.0000   1.0000   1.0000   1.0000

          k = 0.2500 0.5292 0.0000 (  5487 PWs)   bands (ev):

   -13.7311 -13.6294 -11.8536 -11.7853  -9.5479  -9.4939  -1.4912  -0.9338

     occupation numbers 
     1.0000   1.0000   1.0000   1.0000   1.0000   1.0000   1.0000   1.0000

          k = 0.2500 0.6255 0.0000 (  5487 PWs)   bands (ev):

   -13.7311 -13.6294 -11.8536 -11.7853  -9.5479  -9.4939  -1.4912  -0.9338

     occupation numbers 
     1.0000   1.0000   1.0000   1.0000   1.0000   1.0000   1.0000   1.0000

          k = 0.2500-0.4330 0.0000 (  5486 PWs)   bands (ev):

   -15.1607 -15.0363 -10.4237 -10.3805  -8.8279  -8.7959  -2.9670  -2.1900

     occupation numbers 
     1.0000   1.0000   1.0000   1.0000   1.0000   1.0000   1.0000   1.0000

          k = 0.2500-0.3368 0.0000 (  5515 PWs)   bands (ev):

   -16.3929 -16.2558  -9.3924  -9.3333  -7.3536  -7.3125  -4.3529  -3.4741

     occupation numbers 
     1.0000   1.0000   1.0000   1.0000   1.0000   1.0000   1.0000   1.0000

          k = 0.2500-0.2406 0.0000 (  5525 PWs)   bands (ev):

   -17.3435 -17.1968  -8.4065  -8.3439  -5.8199  -5.7859  -5.4535  -4.5127

     occupation numbers 
     1.0000   1.0000   1.0000   1.0000   1.0000   1.0000   1.0000   1.0000

          k = 0.2500-0.1443 0.0000 (  5500 PWs)   bands (ev):

   -17.9868 -17.8336  -7.3217  -7.2643  -6.2081  -5.2306  -4.9260  -4.8985

     occupation numbers 
     1.0000   1.0000   1.0000   1.0000   1.0000   1.0000   1.0000   1.0000

          k = 0.2500-0.0481 0.0000 (  5507 PWs)   bands (ev):

   -18.3112 -18.1548  -6.5916  -6.3202  -6.2807  -5.5965  -4.9264  -4.9002

     occupation numbers 
     1.0000   1.0000   1.0000   1.0000   1.0000   1.0000   1.0000   1.0000

          k = 0.2500 0.0481 0.0000 (  5507 PWs)   bands (ev):

   -18.3112 -18.1548  -6.5916  -6.3202  -6.2807  -5.5965  -4.9264  -4.9002

     occupation numbers 
     1.0000   1.0000   1.0000   1.0000   1.0000   1.0000   1.0000   1.0000

          k = 0.3333 0.1925 0.0000 (  5544 PWs)   bands (ev):

   -16.8650 -16.7229  -9.5353  -9.4601  -5.6638  -5.6337  -4.9099  -4.0061

     occupation numbers 
     1.0000   1.0000   1.0000   1.0000   1.0000   1.0000   1.0000   1.0000

          k = 0.3333 0.2887 0.0000 (  5525 PWs)   bands (ev):

   -16.0793 -15.9455 -10.5391 -10.4569  -6.4585  -6.4210  -4.0299  -3.1935

     occupation numbers 
     1.0000   1.0000   1.0000   1.0000   1.0000   1.0000   1.0000   1.0000

          k = 0.3333 0.3849 0.0000 (  5530 PWs)   bands (ev):

   -15.0126 -14.8904 -11.3129 -11.2298  -7.9372  -7.8858  -2.8615  -2.1374

     occupation numbers 
     1.0000   1.0000   1.0000   1.0000   1.0000   1.0000   1.0000   1.0000

          k = 0.3333 0.4811 0.0000 (  5487 PWs)   bands (ev):

   -13.7311 -13.6294 -11.8536 -11.7853  -9.5479  -9.4939  -1.4912  -0.9339

     occupation numbers 
     1.0000   1.0000   1.0000   1.0000   1.0000   1.0000   1.0000   1.0000

          k = 0.3333 0.5774 0.0000 (  5484 PWs)   bands (ev):

   -12.5219 -12.4682 -12.4626 -12.4142 -10.4092 -10.4090  -0.2123   0.1309

     occupation numbers 
     1.0000   1.0000   1.0000   1.0000   1.0000   1.0000   1.0000   1.0000

          k = 0.3333 0.6736 0.0000 (  5487 PWs)   bands (ev):

   -13.7311 -13.6294 -11.8536 -11.7853  -9.5479  -9.4939  -1.4912  -0.9338

     occupation numbers 
     1.0000   1.0000   1.0000   1.0000   1.0000   1.0000   1.0000   1.0000

          k = 0.3333-0.3849 0.0000 (  5530 PWs)   bands (ev):

   -15.0126 -14.8904 -11.3129 -11.2298  -7.9372  -7.8857  -2.8615  -2.1374

     occupation numbers 
     1.0000   1.0000   1.0000   1.0000   1.0000   1.0000   1.0000   1.0000

          k = 0.3333-0.2887 0.0000 (  5525 PWs)   bands (ev):

   -16.0793 -15.9455 -10.5391 -10.4569  -6.4585  -6.4210  -4.0299  -3.1935

     occupation numbers 
     1.0000   1.0000   1.0000   1.0000   1.0000   1.0000   1.0000   1.0000

          k = 0.3333-0.1925 0.0000 (  5544 PWs)   bands (ev):

   -16.8650 -16.7229  -9.5353  -9.4601  -5.6638  -5.6337  -4.9099  -4.0061

     occupation numbers 
     1.0000   1.0000   1.0000   1.0000   1.0000   1.0000   1.0000   1.0000

          k = 0.3333-0.0962 0.0000 (  5525 PWs)   bands (ev):

   -17.3435 -17.1968  -8.4065  -8.3439  -5.8199  -5.7859  -5.4535  -4.5127

     occupation numbers 
     1.0000   1.0000   1.0000   1.0000   1.0000   1.0000   1.0000   1.0000

          k = 0.3333 0.0000 0.0000 (  5510 PWs)   bands (ev):

   -17.5043 -17.3560  -7.6509  -7.6196  -6.2864  -6.2628  -5.6371  -4.6844

     occupation numbers 
     1.0000   1.0000   1.0000   1.0000   1.0000   1.0000   1.0000   1.0000

          k = 0.3333 0.0962 0.0000 (  5525 PWs)   bands (ev):

   -17.3435 -17.1968  -8.4064  -8.3439  -5.8199  -5.7859  -5.4535  -4.5127

     occupation numbers 
     1.0000   1.0000   1.0000   1.0000   1.0000   1.0000   1.0000   1.0000

          k = 0.4167 0.2406 0.0000 (  5530 PWs)   bands (ev):

   -15.4644 -15.3379 -11.6425 -11.5510  -6.1390  -6.1080  -3.4170  -2.6810

     occupation numbers 
     1.0000   1.0000   1.0000   1.0000   1.0000   1.0000   1.0000   1.0000

          k = 0.4167 0.3368 0.0000 (  5533 PWs)   bands (ev):

   -14.5929 -14.4817 -12.4816 -12.3909  -6.7891  -6.7500  -2.6037  -2.0501

     occupation numbers 
     1.0000   1.0000   1.0000   1.0000   1.0000   1.0000   1.0000   1.0000

          k = 0.4167 0.4330 0.0000 (  5518 PWs)   bands (ev):

   -13.7558 -13.6950 -12.7189 -12.6770  -8.1240  -8.0700  -1.8274  -1.4450

     occupation numbers 
     1.0000   1.0000   1.0000   1.0000   1.0000   1.0000   1.0000   1.0000

          k = 0.4167 0.5292 0.0000 (  5487 PWs)   bands (ev):

   -13.7311 -13.6294 -11.8536 -11.7853  -9.5479  -9.4939  -1.4912  -0.9338

     occupation numbers 
     1.0000   1.0000   1.0000   1.0000   1.0000   1.0000   1.0000   1.0000

          k = 0.4167 0.6255 0.0000 (  5487 PWs)   bands (ev):

   -13.7311 -13.6294 -11.8536 -11.7853  -9.5479  -9.4939  -1.4912  -0.9338

     occupation numbers 
     1.0000   1.0000   1.0000   1.0000   1.0000   1.0000   1.0000   1.0000

          k = 0.4167 0.7217 0.0000 (  5518 PWs)   bands (ev):

   -13.7558 -13.6949 -12.7190 -12.6770  -8.1240  -8.0700  -1.8274  -1.4450

     occupation numbers 
     1.0000   1.0000   1.0000   1.0000   1.0000   1.0000   1.0000   1.0000

          k = 0.4167-0.3368 0.0000 (  5533 PWs)   bands (ev):

   -14.5929 -14.4817 -12.4817 -12.3909  -6.7891  -6.7500  -2.6037  -2.0501

     occupation numbers 
     1.0000   1.0000   1.0000   1.0000   1.0000   1.0000   1.0000   1.0000

          k = 0.4167-0.2406 0.0000 (  5530 PWs)   bands (ev):

   -15.4644 -15.3379 -11.6425 -11.5510  -6.1390  -6.1080  -3.4169  -2.6810

     occupation numbers 
     1.0000   1.0000   1.0000   1.0000   1.0000   1.0000   1.0000   1.0000

          k = 0.4167-0.1443 0.0000 (  5525 PWs)   bands (ev):

   -16.0793 -15.9455 -10.5391 -10.4569  -6.4585  -6.4210  -4.0299  -3.1935

     occupation numbers 
     1.0000   1.0000   1.0000   1.0000   1.0000   1.0000   1.0000   1.0000

          k = 0.4167-0.0481 0.0000 (  5515 PWs)   bands (ev):

   -16.3929 -16.2558  -9.3924  -9.3333  -7.3536  -7.3125  -4.3529  -3.4741

     occupation numbers 
     1.0000   1.0000   1.0000   1.0000   1.0000   1.0000   1.0000   1.0000

          k = 0.4167 0.0481 0.0000 (  5515 PWs)   bands (ev):

   -16.3929 -16.2558  -9.3924  -9.3333  -7.3536  -7.3125  -4.3529  -3.4741

     occupation numbers 
     1.0000   1.0000   1.0000   1.0000   1.0000   1.0000   1.0000   1.0000

          k = 0.4167 0.1443 0.0000 (  5525 PWs)   bands (ev):

   -16.0793 -15.9455 -10.5391 -10.4569  -6.4585  -6.4210  -4.0299  -3.1935

     occupation numbers 
     1.0000   1.0000   1.0000   1.0000   1.0000   1.0000   1.0000   1.0000

          k =-0.5000-0.2887 0.0000 (  5540 PWs)   bands (ev):

   -14.1784 -14.1146 -13.1191 -13.0709  -6.3022  -6.2711  -2.4264  -2.0377

     occupation numbers 
     1.0000   1.0000   1.0000   1.0000   1.0000   1.0000   1.0000   1.0000

          k =-0.5000-0.1925 0.0000 (  5533 PWs)   bands (ev):

   -14.5929 -14.4817 -12.4816 -12.3909  -6.7891  -6.7500  -2.6037  -2.0501

     occupation numbers 
     1.0000   1.0000   1.0000   1.0000   1.0000   1.0000   1.0000   1.0000

          k =-0.5000-0.0962 0.0000 (  5530 PWs)   bands (ev):

   -15.0126 -14.8904 -11.3129 -11.2298  -7.9372  -7.8857  -2.8615  -2.1374

     occupation numbers 
     1.0000   1.0000   1.0000   1.0000   1.0000   1.0000   1.0000   1.0000

          k =-0.5000 0.0000 0.0000 (  5486 PWs)   bands (ev):

   -15.1607 -15.0363 -10.4237 -10.3805  -8.8279  -8.7959  -2.9670  -2.1900

     occupation numbers 
     1.0000   1.0000   1.0000   1.0000   1.0000   1.0000   1.0000   1.0000

          k =-0.5000 0.0962 0.0000 (  5530 PWs)   bands (ev):

   -15.0126 -14.8904 -11.3129 -11.2298  -7.9372  -7.8857  -2.8615  -2.1374

     occupation numbers 
     1.0000   1.0000   1.0000   1.0000   1.0000   1.0000   1.0000   1.0000

          k =-0.5000 0.1925 0.0000 (  5533 PWs)   bands (ev):

   -14.5929 -14.4817 -12.4817 -12.3909  -6.7891  -6.7500  -2.6037  -2.0501

     occupation numbers 
     1.0000   1.0000   1.0000   1.0000   1.0000   1.0000   1.0000   1.0000

          k =-0.5000-0.8660 0.0000 (  5540 PWs)   bands (ev):

   -14.1784 -14.1146 -13.1191 -13.0709  -6.3022  -6.2711  -2.4264  -2.0377

     occupation numbers 
     1.0000   1.0000   1.0000   1.0000   1.0000   1.0000   1.0000   1.0000

     highest occupied level (ev):     0.1309

!    total energy              =     -48.17725354 Ry
     estimated scf accuracy    <       0.00000046 Ry

     The total energy is the sum of the following terms:
     one-electron contribution =    -528.48747945 Ry
     hartree contribution      =     268.33553859 Ry
     xc contribution           =     -17.15138601 Ry
     ewald contribution        =     229.82618804 Ry
     electric field correction =      -0.70011471 Ry

     convergence has been achieved in   7 iterations

     Writing all to output data dir ./tmp/C2L_AB_Efield_PBE_vdW.save/

     init_run     :      0.93s CPU      0.95s WALL (       1 calls)
     electrons    :      8.17s CPU      8.58s WALL (       1 calls)

     Called by init_run:
     wfcinit      :      0.59s CPU      0.60s WALL (       1 calls)
     wfcinit:atom :      0.01s CPU      0.01s WALL (      74 calls)
     wfcinit:wfcr :      0.54s CPU      0.54s WALL (      74 calls)
     potinit      :      0.02s CPU      0.03s WALL (       1 calls)
     hinit0       :      0.30s CPU      0.31s WALL (       1 calls)

     Called by electrons:
     c_bands      :      7.43s CPU      7.81s WALL (       7 calls)
     sum_band     :      0.68s CPU      0.70s WALL (       7 calls)
     v_of_rho     :      0.05s CPU      0.06s WALL (       8 calls)
     v_h          :      0.00s CPU      0.00s WALL (       8 calls)
     v_xc         :      0.05s CPU      0.05s WALL (       8 calls)
     mix_rho      :      0.01s CPU      0.01s WALL (       7 calls)

     Called by c_bands:
     init_us_2    :      0.14s CPU      0.15s WALL (    1110 calls)
     init_us_2:cp :      0.14s CPU      0.14s WALL (    1110 calls)
     cegterg      :      7.11s CPU      7.46s WALL (     518 calls)

     Called by sum_band:
     sum_band:wei :      0.00s CPU      0.00s WALL (       7 calls)
     sum_band:loo :      0.68s CPU      0.70s WALL (       7 calls)
     sum_band:buf :      0.01s CPU      0.01s WALL (     518 calls)
     sum_band:ini :      0.06s CPU      0.06s WALL (     518 calls)

     Called by *egterg:
     cdiaghg      :      0.19s CPU      0.19s WALL (    2050 calls)
     cegterg:over :      0.37s CPU      0.38s WALL (    1532 calls)
     cegterg:upda :      0.32s CPU      0.40s WALL (    1532 calls)
     cegterg:last :      0.37s CPU      0.44s WALL (    1301 calls)
     h_psi        :      5.99s CPU      6.10s WALL (    2124 calls)
     g_psi        :      0.05s CPU      0.07s WALL (    1532 calls)

     Called by h_psi:
     h_psi:calbec :      0.42s CPU      0.43s WALL (    2124 calls)
     vloc_psi     :      5.03s CPU      5.17s WALL (    2124 calls)
     add_vuspsi   :      0.49s CPU      0.45s WALL (    2124 calls)

     General routines
     calbec       :      0.41s CPU      0.42s WALL (    2124 calls)
     fft          :      0.29s CPU      0.29s WALL (      80 calls)
     ffts         :      0.00s CPU      0.00s WALL (       7 calls)
     fftw         :      5.09s CPU      5.21s WALL (   32234 calls)

     Parallel routines

     PWSCF        :      9.25s CPU      9.75s WALL


   This run was terminated on:   8:14:56   5Apr2024            

=------------------------------------------------------------------------------=
   JOB DONE.
=------------------------------------------------------------------------------=
