
     Program PWSCF v.7.2 starts on  4Apr2024 at 13:39:50 

     This program is part of the open-source Quantum ESPRESSO suite
     for quantum simulation of materials; please cite
         "P. Giannozzi et al., J. Phys.:Condens. Matter 21 395502 (2009);
         "P. Giannozzi et al., J. Phys.:Condens. Matter 29 465901 (2017);
         "P. Giannozzi et al., J. Chem. Phys. 152 154105 (2020);
          URL http://www.quantum-espresso.org", 
     in publications or presentations arising from this work. More details at
     http://www.quantum-espresso.org/quote

     Parallel version (MPI & OpenMP), running on       8 processor cores
     Number of MPI processes:                 8
     Threads/MPI process:                     1

     MPI processes distributed on     1 nodes
     0 MiB available memory on the printing compute node when the environment starts

     Waiting for input...
     Reading input from standard input

     Current dimensions of program PWSCF are:
     Max number of different atomic species (ntypx) = 10
     Max number of k-points (npk) =  40000
     Max angular momentum in pseudopotentials (lmaxx) =  4

     File ./tmp/C2L_AA_PBE_vdW.update deleted, as requested

     File ./tmp/C2L_AA_PBE_vdW.bfgs deleted, as requested

     IMPORTANT: XC functional enforced from input :
     Exchange-correlation= VDW-DF2-B86R
                           (   1   4  26   0   2   0   0)
     Any further DFT definition will be discarded
     Please, verify this is what you really want


     R & G space division:  proc/nbgrp/npool/nimage =       8
     Subspace diagonalization in iterative solution of the eigenvalue problem:
     a serial algorithm will be used


     Parallelization info
     --------------------
     sticks:   dense  smooth     PW     G-vecs:    dense   smooth      PW
     Min          74      74     21                11864    11864    1901
     Max          75      75     25                11893    11893    1907
     Sum         595     595    187                94983    94983   15231

     Using Slab Decomposition



     bravais-lattice index     =            4
     lattice parameter (alat)  =       4.6645  a.u.
     unit-cell volume          =     703.1169 (a.u.)^3
     number of atoms/cell      =            4
     number of atomic types    =            1
     number of electrons       =        16.00
     number of Kohn-Sham states=           12
     kinetic-energy cutoff     =     100.0000  Ry
     charge density cutoff     =     400.0000  Ry
     scf convergence threshold =      1.0E-06
     mixing beta               =       0.7000
     number of iterations used =            8  plain     mixing
     energy convergence thresh.=      1.0E-04
     force convergence thresh. =      1.0E-03
     press convergence thresh. =      5.0E-01
     Exchange-correlation= VDW-DF2-B86R
                           (   1   4  26   0   2   0   0)
     nstep                     =           50


     celldm(1)=   4.664470  celldm(2)=   0.000000  celldm(3)=   8.000000
     celldm(4)=   0.000000  celldm(5)=   0.000000  celldm(6)=   0.000000

     crystal axes: (cart. coord. in units of alat)
               a(1) = (   1.000000   0.000000   0.000000 )  
               a(2) = (  -0.500000   0.866025   0.000000 )  
               a(3) = (   0.000000   0.000000   8.000000 )  

     reciprocal axes: (cart. coord. in units 2 pi/alat)
               b(1) = (  1.000000  0.577350 -0.000000 )  
               b(2) = (  0.000000  1.154701  0.000000 )  
               b(3) = (  0.000000 -0.000000  0.125000 )  


     PseudoPot. # 1 for C  read from file:
     ../../../../Pseudo/PBE/C.upf
     MD5 check sum: 34a24e64c0a39f27c6c36b90a16ac686
     Pseudo is Norm-conserving + core correction, Zval =  4.0
     Generated using ONCVPSP code by D. R. Hamann
     Using radial grid of 1248 points,  4 beta functions with: 
                l(1) =   0
                l(2) =   0
                l(3) =   1
                l(4) =   1

     atomic species   valence    mass     pseudopotential
        C              4.00    12.01100     C ( 1.00)

     12 Sym. Ops. (no inversion) found ( 6 have fractional translation)


                                    s                        frac. trans.

      isym =  1     identity                                     

 cryst.   s( 1) = (     1          0          0      )
                  (     0          1          0      )
                  (     0          0          1      )

 cart.    s( 1) = (  1.0000000  0.0000000  0.0000000 )
                  (  0.0000000  1.0000000  0.0000000 )
                  (  0.0000000  0.0000000  1.0000000 )


      isym =  2     180 deg rotation - cart. axis [0,0,1]        

 cryst.   s( 2) = (    -1          0          0      )    f =(  0.3333330 )
                  (     0         -1          0      )       ( -0.3333330 )
                  (     0          0          1      )       (  0.0000000 )

 cart.    s( 2) = ( -1.0000000  0.0000000  0.0000000 )    f =(  0.4999995 )
                  (  0.0000000 -1.0000000  0.0000000 )       ( -0.2886748 )
                  (  0.0000000  0.0000000  1.0000000 )       (  0.0000000 )


      isym =  3      60 deg rotation - cryst. axis [0,0,1]       

 cryst.   s( 3) = (     1          1          0      )    f =(  0.3333340 )
                  (    -1          0          0      )       ( -0.3333330 )
                  (     0          0          1      )       (  0.0000000 )

 cart.    s( 3) = (  0.5000000 -0.8660254  0.0000000 )    f =(  0.5000005 )
                  (  0.8660254  0.5000000  0.0000000 )       ( -0.2886748 )
                  (  0.0000000  0.0000000  1.0000000 )       (  0.0000000 )


      isym =  4      60 deg rotation - cryst. axis [0,0,-1]      

 cryst.   s( 4) = (     0         -1          0      )    f =(  0.3333330 )
                  (     1          1          0      )       ( -0.3333340 )
                  (     0          0          1      )       (  0.0000000 )

 cart.    s( 4) = (  0.5000000  0.8660254  0.0000000 )    f =(  0.5000000 )
                  ( -0.8660254  0.5000000  0.0000000 )       ( -0.2886757 )
                  (  0.0000000  0.0000000  1.0000000 )       (  0.0000000 )


      isym =  5     120 deg rotation - cryst. axis [0,0,1]       

 cryst.   s( 5) = (     0          1          0      )
                  (    -1         -1          0      )
                  (     0          0          1      )

 cart.    s( 5) = ( -0.5000000 -0.8660254  0.0000000 )
                  (  0.8660254 -0.5000000  0.0000000 )
                  (  0.0000000  0.0000000  1.0000000 )


      isym =  6     120 deg rotation - cryst. axis [0,0,-1]      

 cryst.   s( 6) = (    -1         -1          0      )
                  (     1          0          0      )
                  (     0          0          1      )

 cart.    s( 6) = ( -0.5000000  0.8660254  0.0000000 )
                  ( -0.8660254 -0.5000000  0.0000000 )
                  (  0.0000000  0.0000000  1.0000000 )


      isym =  7     inv. 180 deg rotation - cart. axis [0,1,0]   

 cryst.   s( 7) = (     1          0          0      )    f =(  0.3333340 )
                  (    -1         -1          0      )       ( -0.3333330 )
                  (     0          0          1      )       (  0.0000000 )

 cart.    s( 7) = (  1.0000000  0.0000000  0.0000000 )    f =(  0.5000005 )
                  (  0.0000000 -1.0000000  0.0000000 )       ( -0.2886748 )
                  (  0.0000000  0.0000000  1.0000000 )       (  0.0000000 )


      isym =  8     inv. 180 deg rotation - cart. axis [1,0,0]   

 cryst.   s( 8) = (    -1          0          0      )
                  (     1          1          0      )
                  (     0          0          1      )

 cart.    s( 8) = ( -1.0000000  0.0000000  0.0000000 )
                  (  0.0000000  1.0000000  0.0000000 )
                  (  0.0000000  0.0000000  1.0000000 )


      isym =  9     inv. 180 deg rotation - cryst. axis [1,-1,0] 

 cryst.   s( 9) = (     0          1          0      )    f =(  0.3333330 )
                  (     1          0          0      )       ( -0.3333330 )
                  (     0          0          1      )       (  0.0000000 )

 cart.    s( 9) = ( -0.5000000  0.8660254  0.0000000 )    f =(  0.4999995 )
                  (  0.8660254  0.5000000  0.0000000 )       ( -0.2886748 )
                  (  0.0000000  0.0000000  1.0000000 )       (  0.0000000 )


      isym = 10     inv. 180 deg rotation - cryst. axis [2,1,0]  

 cryst.   s(10) = (    -1         -1          0      )    f =(  0.3333330 )
                  (     0          1          0      )       ( -0.3333340 )
                  (     0          0          1      )       (  0.0000000 )

 cart.    s(10) = ( -0.5000000 -0.8660254  0.0000000 )    f =(  0.5000000 )
                  ( -0.8660254  0.5000000  0.0000000 )       ( -0.2886757 )
                  (  0.0000000  0.0000000  1.0000000 )       (  0.0000000 )


      isym = 11     inv. 180 deg rotation - cryst. axis [0,1,0]  

 cryst.   s(11) = (     1          1          0      )
                  (     0         -1          0      )
                  (     0          0          1      )

 cart.    s(11) = (  0.5000000  0.8660254  0.0000000 )
                  (  0.8660254 -0.5000000  0.0000000 )
                  (  0.0000000  0.0000000  1.0000000 )


      isym = 12     inv. 180 deg rotation - cryst. axis [1,1,0]  

 cryst.   s(12) = (     0         -1          0      )
                  (    -1          0          0      )
                  (     0          0          1      )

 cart.    s(12) = (  0.5000000 -0.8660254  0.0000000 )
                  ( -0.8660254 -0.5000000  0.0000000 )
                  (  0.0000000  0.0000000  1.0000000 )


     point group C_6v (6mm) 
     there are  6 classes
     the character table:

       E     2C6   2C3   C2    3s_v  3s_d 
A_1    1.00  1.00  1.00  1.00  1.00  1.00
A_2    1.00  1.00  1.00  1.00 -1.00 -1.00
B_1    1.00 -1.00  1.00 -1.00  1.00 -1.00
B_2    1.00 -1.00  1.00 -1.00 -1.00  1.00
E_1    2.00  1.00 -1.00 -2.00  0.00  0.00
E_2    2.00 -1.00 -1.00  2.00  0.00  0.00

     the symmetry operations in each class and the name of the first element:

     E        1
          identity                                               
     2C6      3    4
           60 deg rotation - cryst. axis [0,0,1]                 
     2C3      5    6
          120 deg rotation - cryst. axis [0,0,1]                 
     C2       2
          180 deg rotation - cart. axis [0,0,1]                  
     3s_v     8   12   11
          inv. 180 deg rotation - cart. axis [1,0,0]             
     3s_d     7    9   10
          inv. 180 deg rotation - cart. axis [0,1,0]             

   Cartesian axes

     site n.     atom                  positions (alat units)
         1           C   tau(   1) = (   0.0000000   0.0000000   0.0000000  )
         2           C   tau(   2) = (   0.5000005   0.2886748   0.0000000  )
         3           C   tau(   3) = (   0.0000000   0.0000000   1.3600000  )
         4           C   tau(   4) = (   0.5000005   0.2886748   1.3600000  )

   Crystallographic axes

     site n.     atom                  positions (cryst. coord.)
         1           C   tau(   1) = (  0.0000000  0.0000000  0.0000000  )
         2           C   tau(   2) = (  0.6666670  0.3333330  0.0000000  )
         3           C   tau(   3) = (  0.0000000  0.0000000  0.1700000  )
         4           C   tau(   4) = (  0.6666670  0.3333330  0.1700000  )

     number of k points=    19  Marzari-Vanderbilt smearing, width (Ry)=  0.0050
                       cart. coord. in units 2pi/alat
        k(    1) = (   0.0000000   0.0000000   0.0000000), wk =   0.0138889
        k(    2) = (   0.0000000   0.0962250   0.0000000), wk =   0.0833333
        k(    3) = (   0.0000000   0.1924501   0.0000000), wk =   0.0833333
        k(    4) = (   0.0000000   0.2886751   0.0000000), wk =   0.0833333
        k(    5) = (   0.0000000   0.3849002   0.0000000), wk =   0.0833333
        k(    6) = (   0.0000000   0.4811252   0.0000000), wk =   0.0833333
        k(    7) = (   0.0000000  -0.5773503   0.0000000), wk =   0.0416667
        k(    8) = (   0.0833333   0.1443376   0.0000000), wk =   0.0833333
        k(    9) = (   0.0833333   0.2405626   0.0000000), wk =   0.1666667
        k(   10) = (   0.0833333   0.3367877   0.0000000), wk =   0.1666667
        k(   11) = (   0.0833333   0.4330127   0.0000000), wk =   0.1666667
        k(   12) = (   0.0833333   0.5292377   0.0000000), wk =   0.1666667
        k(   13) = (   0.1666667   0.2886751   0.0000000), wk =   0.0833333
        k(   14) = (   0.1666667   0.3849002   0.0000000), wk =   0.1666667
        k(   15) = (   0.1666667   0.4811252   0.0000000), wk =   0.1666667
        k(   16) = (   0.1666667   0.5773503   0.0000000), wk =   0.0833333
        k(   17) = (   0.2500000   0.4330127   0.0000000), wk =   0.0833333
        k(   18) = (   0.2500000   0.5292377   0.0000000), wk =   0.1666667
        k(   19) = (   0.3333333   0.5773503   0.0000000), wk =   0.0277778

                       cryst. coord.
        k(    1) = (   0.0000000   0.0000000   0.0000000), wk =   0.0138889
        k(    2) = (   0.0000000   0.0833333   0.0000000), wk =   0.0833333
        k(    3) = (   0.0000000   0.1666667   0.0000000), wk =   0.0833333
        k(    4) = (   0.0000000   0.2500000   0.0000000), wk =   0.0833333
        k(    5) = (   0.0000000   0.3333333   0.0000000), wk =   0.0833333
        k(    6) = (   0.0000000   0.4166667   0.0000000), wk =   0.0833333
        k(    7) = (   0.0000000  -0.5000000   0.0000000), wk =   0.0416667
        k(    8) = (   0.0833333   0.0833333   0.0000000), wk =   0.0833333
        k(    9) = (   0.0833333   0.1666667   0.0000000), wk =   0.1666667
        k(   10) = (   0.0833333   0.2500000   0.0000000), wk =   0.1666667
        k(   11) = (   0.0833333   0.3333333   0.0000000), wk =   0.1666667
        k(   12) = (   0.0833333   0.4166667   0.0000000), wk =   0.1666667
        k(   13) = (   0.1666667   0.1666667   0.0000000), wk =   0.0833333
        k(   14) = (   0.1666667   0.2500000   0.0000000), wk =   0.1666667
        k(   15) = (   0.1666667   0.3333333   0.0000000), wk =   0.1666667
        k(   16) = (   0.1666667   0.4166667   0.0000000), wk =   0.0833333
        k(   17) = (   0.2500000   0.2500000   0.0000000), wk =   0.0833333
        k(   18) = (   0.2500000   0.3333333   0.0000000), wk =   0.1666667
        k(   19) = (   0.3333333   0.3333333   0.0000000), wk =   0.0277778

     Dense  grid:    94983 G-vectors     FFT dimensions: (  30,  30, 240)

     Dynamical RAM for                 wfc:       0.27 MB

     Dynamical RAM for     wfc (w. buffer):       5.43 MB

     Dynamical RAM for           str. fact:       0.18 MB

     Dynamical RAM for           local pot:       0.00 MB

     Dynamical RAM for          nlocal pot:       0.72 MB

     Dynamical RAM for                qrad:       0.92 MB

     Dynamical RAM for          rho,v,vnew:       1.16 MB

     Dynamical RAM for               rhoin:       0.39 MB

     Dynamical RAM for            rho*nmix:       2.90 MB

     Dynamical RAM for           G-vectors:       0.77 MB

     Dynamical RAM for          h,s,v(r/c):       0.03 MB

     Dynamical RAM for          <psi|beta>:       0.01 MB

     Dynamical RAM for                 psi:       0.54 MB

     Dynamical RAM for                hpsi:       0.54 MB

     Dynamical RAM for      wfcinit/wfcrot:       0.73 MB

     Estimated static dynamical RAM per process >      10.97 MB

     Estimated max dynamical RAM per process >      14.98 MB

     Estimated total dynamical RAM >     119.87 MB

     Initial potential from superposition of free atoms

     starting charge      15.9998, renormalised to      16.0000

     negative rho (up, down):  1.907E-06 0.000E+00


     %%%%%%%%%%%%%%%%%%%%%%%%%%%%%%%%%%%%%%%%%%%%%%%%%%%%%%%%%%%%%%%%%%%%%%%%
     %                                                                      %
     % You are using vdW-DF, which was implemented by the Thonhauser group. %
     % Please cite the following two papers that made this development      %
     % possible and the two reviews that describe the various versions:     %
     %                                                                      %
     %   T. Thonhauser et al., PRL 115, 136402 (2015).                      %
     %   T. Thonhauser et al., PRB 76, 125112 (2007).                       %
     %   K. Berland et al., Rep. Prog. Phys. 78, 066501 (2015).             %
     %   D.C. Langreth et al., J. Phys.: Condens. Matter 21, 084203 (2009). %
     %                                                                      %
     % If you are calculating stress with vdW-DF, please also cite:         %
     %                                                                      %
     %   R. Sabatini et al., J. Phys.: Condens. Matter 24, 424209 (2012).   %
     %                                                                      %
     %%%%%%%%%%%%%%%%%%%%%%%%%%%%%%%%%%%%%%%%%%%%%%%%%%%%%%%%%%%%%%%%%%%%%%%%

     %%%%%%%%%%%%%%%%%%%%%%%%%%%%%%%%%%%%%%%%%%%%%%%%%%%%%%%%%%%%%%%%%%%%%%%%
     %                                                                      %
     %  vdW-DF NEWS:                                                        %
     %                                                                      %
     %  * vdW-DF3 is now available. DOI: 10.1021/acs.jctc.0c00471           %
     %    use with input_dft = 'vdW-DF3-opt1' or 'vdW-DF3-opt2'             %
     %                                                                      %
     %  * Unscreened and range-separated hybrid vdW-DF-cx functionals       %
     %    DOI: 10.1063/1.4986522 and 10.1088/1361-648X/ac2ad2               %
     %    use with input_dft = 'vdW-DF-cx0'    and 'vdW-DF-ahcx'            %
     %  * Unscreened and range-separated hybrid vdW-DF2-b86r functionals    %
     %    DOI: 10.1063/1.4986522 and DOI: 10.1103/PhysRevX.12.041003        %
     %    use with input_dft = 'vdW-DF2-br0' and 'vdW-DF2-ahbr'             %
     %                                                                      %
     %%%%%%%%%%%%%%%%%%%%%%%%%%%%%%%%%%%%%%%%%%%%%%%%%%%%%%%%%%%%%%%%%%%%%%%%


     Carrying out vdW-DF run using the following parameters:
     Nqs    =  20  Npoints =  1024  r_max =  100.000
     q_mesh =  0.00001000  0.04494208  0.09755937  0.15916263
               0.23128650  0.31572767  0.41458969  0.53033537
               0.66584808  0.82450364  1.01025438  1.22772762
               1.48234092  1.78043706  2.12944203  2.53805004
               3.01644009  3.57652955  4.23227104  5.00000000


     -----------------------------------------------
     Non-local corr. energy    =       0.17103033 Ry
     -----------------------------------------------

     Starting wfcs are   16 randomized atomic wfcs

     total cpu time spent up to now is       11.1 secs

     Self-consistent Calculation

     iteration #  1     ecut=   100.00 Ry     beta= 0.70
     Davidson diagonalization with overlap

---- Real-time Memory Report at c_bands before calling an iterative solver
             0 MiB given to the printing process from OS
             0 MiB allocation reported by mallinfo(arena+hblkhd)
             0 MiB available memory on the node where the printing process lives
------------------
     ethr =  1.00E-02,  avg # of iterations =  3.4


     -----------------------------------------------
     Non-local corr. energy    =       0.19448755 Ry
     -----------------------------------------------


     total cpu time spent up to now is       12.4 secs

     total energy              =     -48.21039758 Ry
     estimated scf accuracy    <       0.34749221 Ry

     iteration #  2     ecut=   100.00 Ry     beta= 0.70
     Davidson diagonalization with overlap

---- Real-time Memory Report at c_bands before calling an iterative solver
             0 MiB given to the printing process from OS
             0 MiB allocation reported by mallinfo(arena+hblkhd)
             0 MiB available memory on the node where the printing process lives
------------------
     ethr =  2.17E-03,  avg # of iterations =  3.8


     -----------------------------------------------
     Non-local corr. energy    =       0.19527727 Ry
     -----------------------------------------------


     total cpu time spent up to now is       13.5 secs

     total energy              =     -48.25268689 Ry
     estimated scf accuracy    <       0.00528934 Ry

     iteration #  3     ecut=   100.00 Ry     beta= 0.70
     Davidson diagonalization with overlap

---- Real-time Memory Report at c_bands before calling an iterative solver
             0 MiB given to the printing process from OS
             0 MiB allocation reported by mallinfo(arena+hblkhd)
             0 MiB available memory on the node where the printing process lives
------------------
     ethr =  3.31E-05,  avg # of iterations = 12.0


     -----------------------------------------------
     Non-local corr. energy    =       0.19491288 Ry
     -----------------------------------------------


     total cpu time spent up to now is       15.4 secs

     total energy              =     -48.25409264 Ry
     estimated scf accuracy    <       0.00119839 Ry

     iteration #  4     ecut=   100.00 Ry     beta= 0.70
     Davidson diagonalization with overlap

---- Real-time Memory Report at c_bands before calling an iterative solver
             0 MiB given to the printing process from OS
             0 MiB allocation reported by mallinfo(arena+hblkhd)
             0 MiB available memory on the node where the printing process lives
------------------
     ethr =  7.49E-06,  avg # of iterations =  3.9


     -----------------------------------------------
     Non-local corr. energy    =       0.19485274 Ry
     -----------------------------------------------


     total cpu time spent up to now is       16.6 secs

     total energy              =     -48.25440014 Ry
     estimated scf accuracy    <       0.00062697 Ry

     iteration #  5     ecut=   100.00 Ry     beta= 0.70
     Davidson diagonalization with overlap

---- Real-time Memory Report at c_bands before calling an iterative solver
             0 MiB given to the printing process from OS
             0 MiB allocation reported by mallinfo(arena+hblkhd)
             0 MiB available memory on the node where the printing process lives
------------------
     ethr =  3.92E-06,  avg # of iterations =  4.1


     -----------------------------------------------
     Non-local corr. energy    =       0.19496376 Ry
     -----------------------------------------------


     total cpu time spent up to now is       17.9 secs

     total energy              =     -48.25451816 Ry
     estimated scf accuracy    <       0.00001146 Ry

     iteration #  6     ecut=   100.00 Ry     beta= 0.70
     Davidson diagonalization with overlap

---- Real-time Memory Report at c_bands before calling an iterative solver
             0 MiB given to the printing process from OS
             0 MiB allocation reported by mallinfo(arena+hblkhd)
             0 MiB available memory on the node where the printing process lives
------------------
     ethr =  7.16E-08,  avg # of iterations =  2.5


     -----------------------------------------------
     Non-local corr. energy    =       0.19502048 Ry
     -----------------------------------------------


     total cpu time spent up to now is       19.0 secs

     total energy              =     -48.25452091 Ry
     estimated scf accuracy    <       0.00000587 Ry

     iteration #  7     ecut=   100.00 Ry     beta= 0.70
     Davidson diagonalization with overlap

---- Real-time Memory Report at c_bands before calling an iterative solver
             0 MiB given to the printing process from OS
             0 MiB allocation reported by mallinfo(arena+hblkhd)
             0 MiB available memory on the node where the printing process lives
------------------
     ethr =  3.67E-08,  avg # of iterations =  3.7


     -----------------------------------------------
     Non-local corr. energy    =       0.19499091 Ry
     -----------------------------------------------


     total cpu time spent up to now is       20.1 secs

     End of self-consistent calculation

          k = 0.0000 0.0000 0.0000 ( 11969 PWs)   bands (ev):

   -20.1335 -19.9771  -8.6959  -7.6830  -3.6434  -3.6433  -3.6247  -3.6246
     2.5592   2.9948   4.1426   5.2800

     occupation numbers 
     1.0000   1.0000   1.0000   1.0000   1.0000   1.0000   1.0000   1.0000
     0.0000   0.0000   0.0000   0.0000

          k = 0.0000 0.0962 0.0000 ( 11941 PWs)   bands (ev):

   -19.9693 -19.8145  -8.4973  -7.4900  -4.2937  -4.2689  -3.9806  -3.9604
     2.7790   3.2167   4.3687   5.5046

     occupation numbers 
     1.0000   1.0000   1.0000   1.0000   1.0000   1.0000   1.0000   1.0000
     0.0000   0.0000   0.0000   0.0000

          k = 0.0000 0.1925 0.0000 ( 11933 PWs)   bands (ev):

   -19.4785 -19.3282  -7.9064  -6.9166  -5.9316  -5.8927  -4.7714  -4.7482
     3.4380   3.8811   5.0467   6.1777

     occupation numbers 
     1.0000   1.0000   1.0000   1.0000   1.0000   1.0000   1.0000   1.0000
     0.0000   0.0000   0.0000   0.0000

          k = 0.0000 0.2887 0.0000 ( 11921 PWs)   bands (ev):

   -18.6671 -18.5241  -8.0312  -7.9757  -6.9409  -5.9829  -5.6506  -5.6250
     4.5327   4.9769   6.1689   6.3760

     occupation numbers 
     1.0000   1.0000   1.0000   1.0000   1.0000   1.0000   1.0000   1.0000
     0.0000   0.0000   0.0000   0.0000

          k = 0.0000 0.3849 0.0000 ( 11887 PWs)   bands (ev):

   -17.5472 -17.4139 -10.2360 -10.1638  -6.3842  -6.3569  -5.6488  -4.7419
     3.9986   4.6505   6.0523   6.5583

     occupation numbers 
     1.0000   1.0000   1.0000   1.0000   1.0000   1.0000   1.0000   1.0000
     0.0000   0.0000   0.0000   0.0000

          k = 0.0000 0.4811 0.0000 ( 11831 PWs)   bands (ev):

   -16.1509 -16.0288 -12.3371 -12.2494  -6.8575  -6.8294  -4.1867  -3.3614
     1.7885   2.6027   6.8543   7.0653

     occupation numbers 
     1.0000   1.0000   1.0000   1.0000   1.0000   1.0000   1.0000   1.0000
     0.0000   0.0000   0.0000   0.0000

          k = 0.0000-0.5774 0.0000 ( 11848 PWs)   bands (ev):

   -14.8932 -14.7770 -13.8376 -13.7425  -7.0201  -6.9916  -3.3020  -2.5561
     0.6391   1.5578   6.7753   6.9833

     occupation numbers 
     1.0000   1.0000   1.0000   1.0000   1.0000   1.0000   1.0000   1.0000
     0.0000   0.0000   0.0000   0.0000

          k = 0.0833 0.1443 0.0000 ( 11917 PWs)   bands (ev):

   -19.6418 -19.4900  -8.1024  -7.1066  -5.3282  -5.2951  -4.6559  -4.6315
     3.2187   3.6601   4.8208   5.9538

     occupation numbers 
     1.0000   1.0000   1.0000   1.0000   1.0000   1.0000   1.0000   1.0000
     0.0000   0.0000   0.0000   0.0000

          k = 0.0833 0.2406 0.0000 ( 11911 PWs)   bands (ev):

   -18.9907 -18.8448  -7.3233  -7.0390  -6.9923  -6.3518  -5.6525  -5.6227
     4.0967   4.5435   5.7245   6.8498

     occupation numbers 
     1.0000   1.0000   1.0000   1.0000   1.0000   1.0000   1.0000   1.0000
     0.0000   0.0000   0.0000   0.0000

          k = 0.0833 0.3368 0.0000 ( 11906 PWs)   bands (ev):

   -18.0249 -17.8875  -9.1132  -9.0500  -6.5393  -6.5061  -6.1881  -5.2576
     5.0614   5.4115   5.5624   5.9461

     occupation numbers 
     1.0000   1.0000   1.0000   1.0000   1.0000   1.0000   1.0000   1.0000
     0.0000   0.0000   0.0000   0.0000

          k = 0.0833 0.4330 0.0000 ( 11870 PWs)   bands (ev):

   -16.7636 -16.6368 -11.2371 -11.1577  -7.1747  -7.1398  -4.7782  -3.9119
     2.7870   3.4964   7.1223   7.7072

     occupation numbers 
     1.0000   1.0000   1.0000   1.0000   1.0000   1.0000   1.0000   1.0000
     0.0000   0.0000   0.0000   0.0000

          k = 0.0833 0.5292 0.0000 ( 11831 PWs)   bands (ev):

   -15.2852 -15.1692 -13.1775 -13.0845  -7.5036  -7.4678  -3.4219  -2.6507
     0.9493   1.8016   7.4995   7.7210

     occupation numbers 
     1.0000   1.0000   1.0000   1.0000   1.0000   1.0000   1.0000   1.0000
     0.0000   0.0000   0.0000   0.0000

          k = 0.1667 0.2887 0.0000 ( 11913 PWs)   bands (ev):

   -18.1852 -18.0465  -8.3729  -8.3168  -7.0120  -6.9710  -6.3705  -5.4323
     5.1914   5.5426   5.6416   6.0423

     occupation numbers 
     1.0000   1.0000   1.0000   1.0000   1.0000   1.0000   1.0000   1.0000
     0.0000   0.0000   0.0000   0.0000

          k = 0.1667 0.3849 0.0000 ( 11881 PWs)   bands (ev):

   -17.0764 -16.9472 -10.1010 -10.0312  -8.0688  -8.0213  -5.0935  -4.2065
     3.5560   4.1476   6.7106   7.1625

     occupation numbers 
     1.0000   1.0000   1.0000   1.0000   1.0000   1.0000   1.0000   1.0000
     0.0000   0.0000   0.0000   0.0000

          k = 0.1667 0.4811 0.0000 ( 11834 PWs)   bands (ev):

   -15.7001 -15.5820 -12.0112 -11.9265  -8.6464  -8.5961  -3.6295  -2.8197
     1.5885   2.2976   8.6179   9.3621

     occupation numbers 
     1.0000   1.0000   1.0000   1.0000   1.0000   1.0000   1.0000   1.0000
     0.0000   0.0000   0.0000   0.0000

          k = 0.1667 0.5774 0.0000 ( 11838 PWs)   bands (ev):

   -14.4709 -14.3596 -13.4406 -13.3477  -8.8318  -8.7807  -2.6990  -1.9643
     0.4744   1.2759   9.2341   9.5379

     occupation numbers 
     1.0000   1.0000   1.0000   1.0000   1.0000   1.0000   1.0000   1.0000
     0.0000   0.0000   0.0000   0.0000

          k = 0.2500 0.4330 0.0000 ( 11877 PWs)   bands (ev):

   -15.8475 -15.7286 -11.1411 -11.0628  -9.5484  -9.4891  -3.7213  -2.8962
     1.9303   2.5555   8.4123   8.8127

     occupation numbers 
     1.0000   1.0000   1.0000   1.0000   1.0000   1.0000   1.0000   1.0000
     0.0000   0.0000   0.0000   0.0000

          k = 0.2500 0.5292 0.0000 ( 11810 PWs)   bands (ev):

   -14.4263 -14.3184 -12.5607 -12.4711 -10.2571 -10.1929  -2.2969  -1.5509
     0.3804   1.0703   9.4163  10.4302

     occupation numbers 
     1.0000   1.0000   1.0000   1.0000   1.0000   1.0000   1.0000   1.0000
     0.0000   0.0000   0.0000   0.0000

          k = 0.3333 0.5774 0.0000 ( 11808 PWs)   bands (ev):

   -13.2103 -13.2103 -13.1125 -13.1125 -11.1452 -11.0760  -0.9182  -0.9182
    -0.2205  -0.2205   8.9546  10.8222

     occupation numbers 
     1.0000   1.0000   1.0000   1.0000   1.0000   1.0000   1.0000   1.0000
     0.0000   0.0000   0.0000   0.0000

     the Fermi energy is    -0.5979 ev

!    total energy              =     -48.25452191 Ry
     estimated scf accuracy    <       0.00000029 Ry
     smearing contrib. (-TS)   =       0.00000000 Ry
     internal energy E=F+TS    =     -48.25452191 Ry

     The total energy is F=E-TS. E is the sum of the following terms:
     one-electron contribution =    -523.84681475 Ry
     hartree contribution      =     265.59724660 Ry
     xc contribution           =     -17.21452575 Ry
     ewald contribution        =     227.20957199 Ry

     convergence has been achieved in   7 iterations


     -----------------------------------------------
     Non-local corr. energy    =       0.19499091 Ry
     -----------------------------------------------


     Forces acting on atoms (cartesian axes, Ry/au):

     atom    1 type  1   force =     0.00000000    0.00000000   -0.00129887
     atom    2 type  1   force =     0.00000000    0.00000000   -0.00129887
     atom    3 type  1   force =     0.00000000   -0.00000000    0.00129887
     atom    4 type  1   force =     0.00000000    0.00000000    0.00129887
     The non-local contrib.  to forces
     atom    1 type  1   force =     0.00000000   -0.00000000   -0.00161986
     atom    2 type  1   force =     0.00000000    0.00000000   -0.00161986
     atom    3 type  1   force =     0.00000000    0.00000000    0.00158338
     atom    4 type  1   force =     0.00000000    0.00000000    0.00158338
     The ionic contribution  to forces
     atom    1 type  1   force =     0.00000852   -0.00000492  -14.08704393
     atom    2 type  1   force =    -0.00000852    0.00000492  -14.08704393
     atom    3 type  1   force =     0.00000852   -0.00000492   14.08704393
     atom    4 type  1   force =    -0.00000852    0.00000492   14.08704393
     The local contribution  to forces
     atom    1 type  1   force =     0.00000000    0.00000000   14.08755294
     atom    2 type  1   force =    -0.00000679    0.00000392   14.08755293
     atom    3 type  1   force =    -0.00000000    0.00000000  -14.08768492
     atom    4 type  1   force =    -0.00000679    0.00000392  -14.08768491
     The core correction contribution to forces
     atom    1 type  1   force =    -0.00000000    0.00000000    0.00003122
     atom    2 type  1   force =     0.00000053   -0.00000031    0.00003122
     atom    3 type  1   force =    -0.00000000    0.00000000   -0.00003351
     atom    4 type  1   force =     0.00000053   -0.00000031   -0.00003351
     The Hubbard contrib.    to forces
     atom    1 type  1   force =     0.00000000    0.00000000    0.00000000
     atom    2 type  1   force =     0.00000000    0.00000000    0.00000000
     atom    3 type  1   force =     0.00000000    0.00000000    0.00000000
     atom    4 type  1   force =     0.00000000    0.00000000    0.00000000
     The SCF correction term to forces
     atom    1 type  1   force =     0.00000000   -0.00000000   -0.00000000
     atom    2 type  1   force =    -0.00000000    0.00000000   -0.00000000
     atom    3 type  1   force =    -0.00000000    0.00000000    0.00032298
     atom    4 type  1   force =    -0.00000000    0.00000000    0.00032298

     Total force =     0.001837     Total SCF correction =     0.000457
     SCF correction compared to forces is large: reduce conv_thr to get better values


     Computing stress (Cartesian axis) and pressure



     -----------------------------------------------
     Non-local corr. energy    =       0.19499091 Ry
     -----------------------------------------------

          total   stress  (Ry/bohr**3)                   (kbar)     P=        1.01
   0.00000002  -0.00000000   0.00000000            0.00       -0.00        0.00
  -0.00000000   0.00000002   0.00000000           -0.00        0.00        0.00
   0.00000000   0.00000000   0.00002046            0.00        0.00        3.01

     kinetic stress (kbar)   4526.73     -0.00      0.00
                               -0.00   4526.73     -0.00
                                0.00     -0.00   4986.93

     local   stress (kbar)-114035.14      0.00     -0.00
                                0.00-114035.13      0.00
                               -0.00      0.00 115379.29

     nonloc. stress (kbar)   -460.70      0.00      0.00
                                0.00   -460.70     -0.00
                                0.00     -0.00   -385.53

     hartree stress (kbar)  55217.67      0.00      0.00
                                0.00  55217.67      0.00
                                0.00      0.00 -54867.48

     exc-cor stress (kbar)   -360.33     -0.00     -0.00
                               -0.00   -360.33      0.00
                               -0.00      0.00   -419.98

     corecor stress (kbar)   -686.53      0.00      0.00
                                0.00   -686.53     -0.00
                                0.00     -0.00   -667.79

     ewald   stress (kbar)  55795.20     -0.01     -0.00
                               -0.01  55795.19     -0.00
                               -0.00     -0.00 -64053.93

     hubbard stress (kbar)      0.00      0.00      0.00
                                0.00      0.00      0.00
                                0.00      0.00      0.00

     DFT-D   stress (kbar)      0.00      0.00      0.00
                                0.00      0.00      0.00
                                0.00      0.00      0.00

     XDM     stress (kbar)      0.00      0.00      0.00
                                0.00      0.00      0.00
                                0.00      0.00      0.00

     dft-nl  stress (kbar)      3.11      0.00      0.00
                                0.00      3.11     -0.00
                                0.00     -0.00     31.49

     TS-vdW  stress (kbar)      0.00      0.00      0.00
                                0.00      0.00      0.00
                                0.00      0.00      0.00

     MDB     stress (kbar)      0.00      0.00      0.00
                                0.00      0.00      0.00
                                0.00      0.00      0.00

     3D-RISM stress (kbar)      0.00      0.00      0.00
                                0.00      0.00      0.00
                                0.00      0.00      0.00


     BFGS Geometry Optimization
     Energy error            =      0.0E+00 Ry
     Gradient error          =      1.3E-03 Ry/Bohr
     Cell gradient error     =      3.0E+00 kbar

     number of scf cycles    =   1
     number of bfgs steps    =   0

     enthalpy           new  =     -48.2545219055 Ry

     new trust radius        =       0.0027119611 bohr
     new conv_thr            =       0.0000010000 Ry

     new unit-cell volume =    703.47645 a.u.^3 (   104.24445 Ang^3 )
     density =      0.76531 g/cm^3

CELL_PARAMETERS (alat=  4.66447000)
   1.000000000   0.000000000   0.000000000
  -0.500000000   0.866025404   0.000000000
   0.000000000   0.000000000   8.004091002

ATOMIC_POSITIONS (crystal)
C             0.0000000000        0.0000000000        0.0000000000    0   0   0
C             0.6666670000        0.3333330000        0.0000000000    0   0   0
C            -0.0000000000       -0.0000000000        0.1700348075
C             0.6666670000        0.3333330000        0.1700348075



     Writing config-only to output data dir ./tmp/C2L_AA_PBE_vdW.save/
     NEW-OLD atomic charge density approx. for the potential

     negative rho (up, down):  1.420E-08 0.000E+00


     -----------------------------------------------
     Non-local corr. energy    =       0.19508443 Ry
     -----------------------------------------------

     extrapolated charge   16.00818, renormalised to   16.00000

     total cpu time spent up to now is       23.0 secs

     Self-consistent Calculation

     iteration #  1     ecut=   100.00 Ry     beta= 0.70
     Davidson diagonalization with overlap

---- Real-time Memory Report at c_bands before calling an iterative solver
             0 MiB given to the printing process from OS
             0 MiB allocation reported by mallinfo(arena+hblkhd)
             0 MiB available memory on the node where the printing process lives
------------------
     ethr =  1.00E-06,  avg # of iterations =  4.5


     -----------------------------------------------
     Non-local corr. energy    =       0.19494588 Ry
     -----------------------------------------------


     total cpu time spent up to now is       24.2 secs

     total energy              =     -48.25443747 Ry
     estimated scf accuracy    <       0.00007453 Ry

     iteration #  2     ecut=   100.00 Ry     beta= 0.70
     Davidson diagonalization with overlap

---- Real-time Memory Report at c_bands before calling an iterative solver
             0 MiB given to the printing process from OS
             0 MiB allocation reported by mallinfo(arena+hblkhd)
             0 MiB available memory on the node where the printing process lives
------------------
     ethr =  4.66E-07,  avg # of iterations =  5.6


     -----------------------------------------------
     Non-local corr. energy    =       0.19496786 Ry
     -----------------------------------------------


     total cpu time spent up to now is       25.6 secs

     total energy              =     -48.25451246 Ry
     estimated scf accuracy    <       0.00031903 Ry

     iteration #  3     ecut=   100.00 Ry     beta= 0.70
     Davidson diagonalization with overlap

---- Real-time Memory Report at c_bands before calling an iterative solver
             0 MiB given to the printing process from OS
             0 MiB allocation reported by mallinfo(arena+hblkhd)
             0 MiB available memory on the node where the printing process lives
------------------
     ethr =  4.66E-07,  avg # of iterations =  2.1


     -----------------------------------------------
     Non-local corr. energy    =       0.19498968 Ry
     -----------------------------------------------


     total cpu time spent up to now is       26.7 secs

     total energy              =     -48.25453729 Ry
     estimated scf accuracy    <       0.00003189 Ry

     iteration #  4     ecut=   100.00 Ry     beta= 0.70
     Davidson diagonalization with overlap

---- Real-time Memory Report at c_bands before calling an iterative solver
             0 MiB given to the printing process from OS
             0 MiB allocation reported by mallinfo(arena+hblkhd)
             0 MiB available memory on the node where the printing process lives
------------------
     ethr =  1.99E-07,  avg # of iterations =  1.1


     -----------------------------------------------
     Non-local corr. energy    =       0.19500949 Ry
     -----------------------------------------------


     total cpu time spent up to now is       27.6 secs

     total energy              =     -48.25453446 Ry
     estimated scf accuracy    <       0.00001440 Ry

     iteration #  5     ecut=   100.00 Ry     beta= 0.70
     Davidson diagonalization with overlap

---- Real-time Memory Report at c_bands before calling an iterative solver
             0 MiB given to the printing process from OS
             0 MiB allocation reported by mallinfo(arena+hblkhd)
             0 MiB available memory on the node where the printing process lives
------------------
     ethr =  9.00E-08,  avg # of iterations =  1.6


     -----------------------------------------------
     Non-local corr. energy    =       0.19502982 Ry
     -----------------------------------------------


     total cpu time spent up to now is       28.5 secs

     total energy              =     -48.25453312 Ry
     estimated scf accuracy    <       0.00000460 Ry

     iteration #  6     ecut=   100.00 Ry     beta= 0.70
     Davidson diagonalization with overlap

---- Real-time Memory Report at c_bands before calling an iterative solver
             0 MiB given to the printing process from OS
             0 MiB allocation reported by mallinfo(arena+hblkhd)
             0 MiB available memory on the node where the printing process lives
------------------
     ethr =  2.88E-08,  avg # of iterations =  2.2


     -----------------------------------------------
     Non-local corr. energy    =       0.19503337 Ry
     -----------------------------------------------


     total cpu time spent up to now is       29.5 secs

     End of self-consistent calculation

          k = 0.0000 0.0000 0.0000 ( 11969 PWs)   bands (ev):

   -20.1397 -19.9843  -8.6998  -7.6905  -3.6509  -3.6508  -3.6323  -3.6322
     2.5574   2.9939   4.1710   5.2907

     occupation numbers 
     1.0000   1.0000   1.0000   1.0000   1.0000   1.0000   1.0000   1.0000
     0.0000   0.0000   0.0000   0.0000

          k = 0.0000 0.0962 0.0000 ( 11941 PWs)   bands (ev):

   -19.9756 -19.8216  -8.5012  -7.4975  -4.3012  -4.2766  -3.9881  -3.9680
     2.7771   3.2158   4.3970   5.5153

     occupation numbers 
     1.0000   1.0000   1.0000   1.0000   1.0000   1.0000   1.0000   1.0000
     0.0000   0.0000   0.0000   0.0000

          k = 0.0000 0.1925 0.0000 ( 11933 PWs)   bands (ev):

   -19.4848 -19.3354  -7.9103  -6.9241  -5.9389  -5.9002  -4.7788  -4.7558
     3.4361   3.8802   5.0746   6.1882

     occupation numbers 
     1.0000   1.0000   1.0000   1.0000   1.0000   1.0000   1.0000   1.0000
     0.0000   0.0000   0.0000   0.0000

          k = 0.0000 0.2887 0.0000 ( 11921 PWs)   bands (ev):

   -18.6734 -18.5313  -8.0383  -7.9831  -6.9449  -5.9904  -5.6579  -5.6325
     4.5306   4.9757   6.1943   6.3729

     occupation numbers 
     1.0000   1.0000   1.0000   1.0000   1.0000   1.0000   1.0000   1.0000
     0.0000   0.0000   0.0000   0.0000

          k = 0.0000 0.3849 0.0000 ( 11887 PWs)   bands (ev):

   -17.5537 -17.4211 -10.2429 -10.1711  -6.3916  -6.3645  -5.6528  -4.7494
     3.9939   4.6432   6.0499   6.5570

     occupation numbers 
     1.0000   1.0000   1.0000   1.0000   1.0000   1.0000   1.0000   1.0000
     0.0000   0.0000   0.0000   0.0000

          k = 0.0000 0.4811 0.0000 ( 11831 PWs)   bands (ev):

   -16.1574 -16.0360 -12.3438 -12.2567  -6.8649  -6.8369  -4.1909  -3.3689
     1.7842   2.5953   6.8484   7.0580

     occupation numbers 
     1.0000   1.0000   1.0000   1.0000   1.0000   1.0000   1.0000   1.0000
     0.0000   0.0000   0.0000   0.0000

          k = 0.0000-0.5774 0.0000 ( 11848 PWs)   bands (ev):

   -14.8998 -14.7843 -13.8442 -13.7497  -7.0274  -6.9991  -3.3064  -2.5635
     0.6350   1.5504   6.7694   6.9763

     occupation numbers 
     1.0000   1.0000   1.0000   1.0000   1.0000   1.0000   1.0000   1.0000
     0.0000   0.0000   0.0000   0.0000

          k = 0.0833 0.1443 0.0000 ( 11917 PWs)   bands (ev):

   -19.6481 -19.4972  -8.1063  -7.1142  -5.3356  -5.3026  -4.6633  -4.6390
     3.2167   3.6591   4.8489   5.9644

     occupation numbers 
     1.0000   1.0000   1.0000   1.0000   1.0000   1.0000   1.0000   1.0000
     0.0000   0.0000   0.0000   0.0000

          k = 0.0833 0.2406 0.0000 ( 11911 PWs)   bands (ev):

   -18.9971 -18.8520  -7.3273  -7.0461  -6.9998  -6.3594  -5.6599  -5.6303
     4.0947   4.5424   5.7520   6.8597

     occupation numbers 
     1.0000   1.0000   1.0000   1.0000   1.0000   1.0000   1.0000   1.0000
     0.0000   0.0000   0.0000   0.0000

          k = 0.0833 0.3368 0.0000 ( 11906 PWs)   bands (ev):

   -18.0313 -17.8947  -9.1202  -9.0574  -6.5466  -6.5137  -6.1922  -5.2652
     5.0566   5.4093   5.5564   5.9437

     occupation numbers 
     1.0000   1.0000   1.0000   1.0000   1.0000   1.0000   1.0000   1.0000
     0.0000   0.0000   0.0000   0.0000

          k = 0.0833 0.4330 0.0000 ( 11870 PWs)   bands (ev):

   -16.7700 -16.6440 -11.2439 -11.1650  -7.1820  -7.1473  -4.7823  -3.9194
     2.7825   3.4891   7.1195   7.7014

     occupation numbers 
     1.0000   1.0000   1.0000   1.0000   1.0000   1.0000   1.0000   1.0000
     0.0000   0.0000   0.0000   0.0000

          k = 0.0833 0.5292 0.0000 ( 11831 PWs)   bands (ev):

   -15.2918 -15.1765 -13.1842 -13.0918  -7.5108  -7.4753  -3.4263  -2.6582
     0.9451   1.7942   7.4936   7.7139

     occupation numbers 
     1.0000   1.0000   1.0000   1.0000   1.0000   1.0000   1.0000   1.0000
     0.0000   0.0000   0.0000   0.0000

          k = 0.1667 0.2887 0.0000 ( 11913 PWs)   bands (ev):

   -18.1916 -18.0537  -8.3800  -8.3242  -7.0192  -6.9784  -6.3745  -5.4398
     5.1893   5.5377   5.6405   6.0349

     occupation numbers 
     1.0000   1.0000   1.0000   1.0000   1.0000   1.0000   1.0000   1.0000
     0.0000   0.0000   0.0000   0.0000

          k = 0.1667 0.3849 0.0000 ( 11881 PWs)   bands (ev):

   -17.0828 -16.9544 -10.1080 -10.0386  -8.0759  -8.0287  -5.0976  -4.2140
     3.5513   4.1402   6.7083   7.1613

     occupation numbers 
     1.0000   1.0000   1.0000   1.0000   1.0000   1.0000   1.0000   1.0000
     0.0000   0.0000   0.0000   0.0000

          k = 0.1667 0.4811 0.0000 ( 11834 PWs)   bands (ev):

   -15.7066 -15.5893 -12.0180 -11.9338  -8.6534  -8.6035  -3.6338  -2.8272
     1.5840   2.2902   8.6152   9.3562

     occupation numbers 
     1.0000   1.0000   1.0000   1.0000   1.0000   1.0000   1.0000   1.0000
     0.0000   0.0000   0.0000   0.0000

          k = 0.1667 0.5774 0.0000 ( 11838 PWs)   bands (ev):

   -14.4775 -14.3670 -13.4473 -13.3549  -8.8388  -8.7881  -2.7034  -1.9718
     0.4701   1.2684   9.2283   9.5308

     occupation numbers 
     1.0000   1.0000   1.0000   1.0000   1.0000   1.0000   1.0000   1.0000
     0.0000   0.0000   0.0000   0.0000

          k = 0.2500 0.4330 0.0000 ( 11877 PWs)   bands (ev):

   -15.8540 -15.7359 -11.1480 -11.0702  -9.5554  -9.4964  -3.7256  -2.9037
     1.9257   2.5481   8.4100   8.8111

     occupation numbers 
     1.0000   1.0000   1.0000   1.0000   1.0000   1.0000   1.0000   1.0000
     0.0000   0.0000   0.0000   0.0000

          k = 0.2500 0.5292 0.0000 ( 11810 PWs)   bands (ev):

   -14.4329 -14.3257 -12.5675 -12.4784 -10.2640 -10.2002  -2.3012  -1.5583
     0.3759   1.0629   9.4131  10.4258

     occupation numbers 
     1.0000   1.0000   1.0000   1.0000   1.0000   1.0000   1.0000   1.0000
     0.0000   0.0000   0.0000   0.0000

          k = 0.3333 0.5774 0.0000 ( 11808 PWs)   bands (ev):

   -13.2170 -13.2170 -13.1199 -13.1198 -11.1520 -11.0833  -0.9227  -0.9227
    -0.2280  -0.2279   8.9517  10.8176

     occupation numbers 
     1.0000   1.0000   1.0000   1.0000   1.0000   1.0000   1.0000   1.0000
     0.0000   0.0000   0.0000   0.0000

     the Fermi energy is    -0.6031 ev

!    total energy              =     -48.25453374 Ry
     estimated scf accuracy    <       0.00000012 Ry
     smearing contrib. (-TS)   =       0.00000000 Ry
     internal energy E=F+TS    =     -48.25453374 Ry

     The total energy is F=E-TS. E is the sum of the following terms:
     one-electron contribution =    -524.08907275 Ry
     hartree contribution      =     265.71979824 Ry
     xc contribution           =     -17.21478172 Ry
     ewald contribution        =     227.32952249 Ry

     convergence has been achieved in   6 iterations


     -----------------------------------------------
     Non-local corr. energy    =       0.19503337 Ry
     -----------------------------------------------


     Forces acting on atoms (cartesian axes, Ry/au):

     atom    1 type  1   force =     0.00000000    0.00000000   -0.00117035
     atom    2 type  1   force =    -0.00000000   -0.00000000   -0.00117035
     atom    3 type  1   force =     0.00000000    0.00000000    0.00117035
     atom    4 type  1   force =    -0.00000000    0.00000000    0.00117035
     The non-local contrib.  to forces
     atom    1 type  1   force =     0.00000000    0.00000000   -0.00159189
     atom    2 type  1   force =    -0.00000000   -0.00000000   -0.00159189
     atom    3 type  1   force =     0.00000000    0.00000000    0.00160851
     atom    4 type  1   force =    -0.00000000   -0.00000000    0.00160851
     The ionic contribution  to forces
     atom    1 type  1   force =     0.00000852   -0.00000492  -14.08554649
     atom    2 type  1   force =    -0.00000852    0.00000492  -14.08554649
     atom    3 type  1   force =     0.00000852   -0.00000492   14.08554649
     atom    4 type  1   force =    -0.00000852    0.00000492   14.08554649
     The local contribution  to forces
     atom    1 type  1   force =    -0.00000000    0.00000000   14.08663658
     atom    2 type  1   force =    -0.00000679    0.00000392   14.08663657
     atom    3 type  1   force =    -0.00000000    0.00000000  -14.08666771
     atom    4 type  1   force =    -0.00000679    0.00000392  -14.08666770
     The core correction contribution to forces
     atom    1 type  1   force =    -0.00000000    0.00000000    0.00003508
     atom    2 type  1   force =     0.00000053   -0.00000031    0.00003508
     atom    3 type  1   force =    -0.00000000    0.00000000   -0.00003540
     atom    4 type  1   force =     0.00000053   -0.00000031   -0.00003540
     The Hubbard contrib.    to forces
     atom    1 type  1   force =     0.00000000    0.00000000    0.00000000
     atom    2 type  1   force =     0.00000000    0.00000000    0.00000000
     atom    3 type  1   force =     0.00000000    0.00000000    0.00000000
     atom    4 type  1   force =     0.00000000    0.00000000    0.00000000
     The SCF correction term to forces
     atom    1 type  1   force =    -0.00000000    0.00000000   -0.00000000
     atom    2 type  1   force =     0.00000000   -0.00000000   -0.00000000
     atom    3 type  1   force =    -0.00000000    0.00000000    0.00072848
     atom    4 type  1   force =     0.00000000   -0.00000000    0.00072848

     Total force =     0.001655     Total SCF correction =     0.001030
     SCF correction compared to forces is large: reduce conv_thr to get better values


     Computing stress (Cartesian axis) and pressure



     -----------------------------------------------
     Non-local corr. energy    =       0.19503337 Ry
     -----------------------------------------------

          total   stress  (Ry/bohr**3)                   (kbar)     P=        1.13
  -0.00000031   0.00000000   0.00000000           -0.05        0.00        0.00
   0.00000000  -0.00000031   0.00000000            0.00       -0.05        0.00
   0.00000000   0.00000000   0.00002369            0.00        0.00        3.49

     kinetic stress (kbar)   4524.55      0.00     -0.00
                                0.00   4524.55      0.00
                               -0.00      0.00   4984.77

     local   stress (kbar)-114027.65      0.00      0.00
                                0.00-114027.65     -0.00
                                0.00     -0.00 115371.20

     nonloc. stress (kbar)   -460.53      0.00     -0.00
                                0.00   -460.53      0.00
                               -0.00      0.00   -385.41

     hartree stress (kbar)  55215.05     -0.00      0.00
                               -0.00  55215.05      0.00
                                0.00      0.00 -54865.01

     exc-cor stress (kbar)   -360.16     -0.00      0.00
                               -0.00   -360.16     -0.00
                                0.00     -0.00   -419.79

     corecor stress (kbar)   -686.19      0.00     -0.00
                                0.00   -686.19      0.00
                               -0.00      0.00   -667.45

     ewald   stress (kbar)  55791.78     -0.01      0.00
                               -0.01  55791.77      0.00
                                0.00      0.00 -64046.30

     hubbard stress (kbar)      0.00      0.00      0.00
                                0.00      0.00      0.00
                                0.00      0.00      0.00

     DFT-D   stress (kbar)      0.00      0.00      0.00
                                0.00      0.00      0.00
                                0.00      0.00      0.00

     XDM     stress (kbar)      0.00      0.00      0.00
                                0.00      0.00      0.00
                                0.00      0.00      0.00

     dft-nl  stress (kbar)      3.11      0.00      0.00
                                0.00      3.11     -0.00
                                0.00     -0.00     31.49

     TS-vdW  stress (kbar)      0.00      0.00      0.00
                                0.00      0.00      0.00
                                0.00      0.00      0.00

     MDB     stress (kbar)      0.00      0.00      0.00
                                0.00      0.00      0.00
                                0.00      0.00      0.00

     3D-RISM stress (kbar)      0.00      0.00      0.00
                                0.00      0.00      0.00
                                0.00      0.00      0.00

     Energy error            =      1.2E-05 Ry
     Gradient error          =      1.2E-03 Ry/Bohr
     Cell gradient error     =      3.5E+00 kbar

     number of scf cycles    =   2
     number of bfgs steps    =   1

     enthalpy           old  =     -48.2545219055 Ry
     enthalpy           new  =     -48.2545337446 Ry

     CASE: enthalpy          _new < enthalpy          _old


     WARNING: bfgs curvature condition failed, Theta= 0.742
     new trust radius        =       0.0036578796 bohr
     new conv_thr            =       0.0000000100 Ry

     new unit-cell volume =    703.62841 a.u.^3 (   104.26697 Ang^3 )
     density =      0.76514 g/cm^3

CELL_PARAMETERS (alat=  4.66447000)
   1.000000000   0.000000000   0.000000000
  -0.500000000   0.866025404   0.000000000
   0.000000000   0.000000000   8.005820024

ATOMIC_POSITIONS (crystal)
C             0.0000000000        0.0000000000        0.0000000000    0   0   0
C             0.6666670000        0.3333330000        0.0000000000    0   0   0
C            -0.0000000000       -0.0000000000        0.1701327824
C             0.6666670000        0.3333330000        0.1701327824



     Writing config-only to output data dir ./tmp/C2L_AA_PBE_vdW.save/
     NEW-OLD atomic charge density approx. for the potential

     negative rho (up, down):  4.725E-08 0.000E+00


     -----------------------------------------------
     Non-local corr. energy    =       0.19509964 Ry
     -----------------------------------------------

     extrapolated charge   16.00346, renormalised to   16.00000

     total cpu time spent up to now is       32.4 secs

     Self-consistent Calculation

     iteration #  1     ecut=   100.00 Ry     beta= 0.70
     Davidson diagonalization with overlap

---- Real-time Memory Report at c_bands before calling an iterative solver
             0 MiB given to the printing process from OS
             0 MiB allocation reported by mallinfo(arena+hblkhd)
             0 MiB available memory on the node where the printing process lives
------------------
     ethr =  1.00E-06,  avg # of iterations =  4.1

     negative rho (up, down):  1.151E-08 0.000E+00


     -----------------------------------------------
     Non-local corr. energy    =       0.19503209 Ry
     -----------------------------------------------


     total cpu time spent up to now is       33.7 secs

     total energy              =     -48.25452152 Ry
     estimated scf accuracy    <       0.00002729 Ry

     iteration #  2     ecut=   100.00 Ry     beta= 0.70
     Davidson diagonalization with overlap

---- Real-time Memory Report at c_bands before calling an iterative solver
             0 MiB given to the printing process from OS
             0 MiB allocation reported by mallinfo(arena+hblkhd)
             0 MiB available memory on the node where the printing process lives
------------------
     ethr =  1.71E-07,  avg # of iterations =  3.6


     -----------------------------------------------
     Non-local corr. energy    =       0.19504120 Ry
     -----------------------------------------------


     total cpu time spent up to now is       35.0 secs

     total energy              =     -48.25453816 Ry
     estimated scf accuracy    <       0.00007887 Ry

     iteration #  3     ecut=   100.00 Ry     beta= 0.70
     Davidson diagonalization with overlap

---- Real-time Memory Report at c_bands before calling an iterative solver
             0 MiB given to the printing process from OS
             0 MiB allocation reported by mallinfo(arena+hblkhd)
             0 MiB available memory on the node where the printing process lives
------------------
     ethr =  1.71E-07,  avg # of iterations =  2.0


     -----------------------------------------------
     Non-local corr. energy    =       0.19505965 Ry
     -----------------------------------------------


     total cpu time spent up to now is       36.0 secs

     total energy              =     -48.25454636 Ry
     estimated scf accuracy    <       0.00000399 Ry

     iteration #  4     ecut=   100.00 Ry     beta= 0.70
     Davidson diagonalization with overlap

---- Real-time Memory Report at c_bands before calling an iterative solver
             0 MiB given to the printing process from OS
             0 MiB allocation reported by mallinfo(arena+hblkhd)
             0 MiB available memory on the node where the printing process lives
------------------
     ethr =  2.49E-08,  avg # of iterations =  2.0


     -----------------------------------------------
     Non-local corr. energy    =       0.19506516 Ry
     -----------------------------------------------


     total cpu time spent up to now is       37.1 secs

     total energy              =     -48.25454661 Ry
     estimated scf accuracy    <       0.00000065 Ry

     iteration #  5     ecut=   100.00 Ry     beta= 0.70
     Davidson diagonalization with overlap

---- Real-time Memory Report at c_bands before calling an iterative solver
             0 MiB given to the printing process from OS
             0 MiB allocation reported by mallinfo(arena+hblkhd)
             0 MiB available memory on the node where the printing process lives
------------------
     ethr =  4.06E-09,  avg # of iterations =  2.5


     -----------------------------------------------
     Non-local corr. energy    =       0.19506717 Ry
     -----------------------------------------------


     total cpu time spent up to now is       38.1 secs

     total energy              =     -48.25454675 Ry
     estimated scf accuracy    <       0.00000015 Ry

     iteration #  6     ecut=   100.00 Ry     beta= 0.70
     Davidson diagonalization with overlap

---- Real-time Memory Report at c_bands before calling an iterative solver
             0 MiB given to the printing process from OS
             0 MiB allocation reported by mallinfo(arena+hblkhd)
             0 MiB available memory on the node where the printing process lives
------------------
     ethr =  9.54E-10,  avg # of iterations =  2.1


     -----------------------------------------------
     Non-local corr. energy    =       0.19506617 Ry
     -----------------------------------------------


     total cpu time spent up to now is       39.1 secs

     total energy              =     -48.25454678 Ry
     estimated scf accuracy    <       0.00000001 Ry

     iteration #  7     ecut=   100.00 Ry     beta= 0.70
     Davidson diagonalization with overlap

---- Real-time Memory Report at c_bands before calling an iterative solver
             0 MiB given to the printing process from OS
             0 MiB allocation reported by mallinfo(arena+hblkhd)
             0 MiB available memory on the node where the printing process lives
------------------
     ethr =  6.65E-11,  avg # of iterations =  2.5


     -----------------------------------------------
     Non-local corr. energy    =       0.19506610 Ry
     -----------------------------------------------


     total cpu time spent up to now is       40.1 secs

     End of self-consistent calculation

          k = 0.0000 0.0000 0.0000 ( 11969 PWs)   bands (ev):

   -20.1377 -19.9832  -8.6966  -7.6913  -3.6493  -3.6492  -3.6309  -3.6308
     2.5561   2.9925   4.1693   5.2880

     occupation numbers 
     1.0000   1.0000   1.0000   1.0000   1.0000   1.0000   1.0000   1.0000
     0.0000   0.0000   0.0000   0.0000

          k = 0.0000 0.0962 0.0000 ( 11941 PWs)   bands (ev):

   -19.9735 -19.8206  -8.4980  -7.4983  -4.2995  -4.2751  -3.9865  -3.9666
     2.7758   3.2145   4.3953   5.5126

     occupation numbers 
     1.0000   1.0000   1.0000   1.0000   1.0000   1.0000   1.0000   1.0000
     0.0000   0.0000   0.0000   0.0000

          k = 0.0000 0.1925 0.0000 ( 11933 PWs)   bands (ev):

   -19.4828 -19.3343  -7.9070  -6.9248  -5.9372  -5.8988  -4.7772  -4.7544
     3.4348   3.8789   5.0728   6.1855

     occupation numbers 
     1.0000   1.0000   1.0000   1.0000   1.0000   1.0000   1.0000   1.0000
     0.0000   0.0000   0.0000   0.0000

          k = 0.0000 0.2887 0.0000 ( 11921 PWs)   bands (ev):

   -18.6715 -18.5302  -8.0365  -7.9818  -6.9417  -5.9911  -5.6563  -5.6311
     4.5294   4.9744   6.1925   6.3753

     occupation numbers 
     1.0000   1.0000   1.0000   1.0000   1.0000   1.0000   1.0000   1.0000
     0.0000   0.0000   0.0000   0.0000

          k = 0.0000 0.3849 0.0000 ( 11887 PWs)   bands (ev):

   -17.5517 -17.4200 -10.2411 -10.1699  -6.3899  -6.3631  -5.6496  -4.7500
     3.9968   4.6432   6.0486   6.5557

     occupation numbers 
     1.0000   1.0000   1.0000   1.0000   1.0000   1.0000   1.0000   1.0000
     0.0000   0.0000   0.0000   0.0000

          k = 0.0000 0.4811 0.0000 ( 11831 PWs)   bands (ev):

   -16.1555 -16.0349 -12.3420 -12.2555  -6.8632  -6.8355  -4.1878  -3.3693
     1.7873   2.5950   6.8505   7.0589

     occupation numbers 
     1.0000   1.0000   1.0000   1.0000   1.0000   1.0000   1.0000   1.0000
     0.0000   0.0000   0.0000   0.0000

          k = 0.0000-0.5774 0.0000 ( 11848 PWs)   bands (ev):

   -14.8979 -14.7832 -13.8424 -13.7485  -7.0258  -6.9977  -3.3033  -2.5639
     0.6381   1.5499   6.7716   6.9772

     occupation numbers 
     1.0000   1.0000   1.0000   1.0000   1.0000   1.0000   1.0000   1.0000
     0.0000   0.0000   0.0000   0.0000

          k = 0.0833 0.1443 0.0000 ( 11917 PWs)   bands (ev):

   -19.6461 -19.4961  -8.1031  -7.1149  -5.3339  -5.3012  -4.6617  -4.6376
     3.2154   3.6578   4.8472   5.9617

     occupation numbers 
     1.0000   1.0000   1.0000   1.0000   1.0000   1.0000   1.0000   1.0000
     0.0000   0.0000   0.0000   0.0000

          k = 0.0833 0.2406 0.0000 ( 11911 PWs)   bands (ev):

   -18.9951 -18.8510  -7.3240  -7.0444  -6.9985  -6.3601  -5.6582  -5.6289
     4.0934   4.5411   5.7502   6.8569

     occupation numbers 
     1.0000   1.0000   1.0000   1.0000   1.0000   1.0000   1.0000   1.0000
     0.0000   0.0000   0.0000   0.0000

          k = 0.0833 0.3368 0.0000 ( 11906 PWs)   bands (ev):

   -18.0293 -17.8937  -9.1184  -9.0561  -6.5449  -6.5122  -6.1890  -5.2658
     5.0593   5.4080   5.5563   5.9426

     occupation numbers 
     1.0000   1.0000   1.0000   1.0000   1.0000   1.0000   1.0000   1.0000
     0.0000   0.0000   0.0000   0.0000

          k = 0.0833 0.4330 0.0000 ( 11870 PWs)   bands (ev):

   -16.7681 -16.6429 -11.2421 -11.1638  -7.1803  -7.1459  -4.7791  -3.9199
     2.7854   3.4889   7.1184   7.7031

     occupation numbers 
     1.0000   1.0000   1.0000   1.0000   1.0000   1.0000   1.0000   1.0000
     0.0000   0.0000   0.0000   0.0000

          k = 0.0833 0.5292 0.0000 ( 11831 PWs)   bands (ev):

   -15.2899 -15.1753 -13.1823 -13.0906  -7.5092  -7.4739  -3.4232  -2.6585
     0.9482   1.7938   7.4957   7.7148

     occupation numbers 
     1.0000   1.0000   1.0000   1.0000   1.0000   1.0000   1.0000   1.0000
     0.0000   0.0000   0.0000   0.0000

          k = 0.1667 0.2887 0.0000 ( 11913 PWs)   bands (ev):

   -18.1897 -18.0526  -8.3782  -8.3229  -7.0175  -6.9770  -6.3713  -5.4404
     5.1879   5.5404   5.6392   6.0351

     occupation numbers 
     1.0000   1.0000   1.0000   1.0000   1.0000   1.0000   1.0000   1.0000
     0.0000   0.0000   0.0000   0.0000

          k = 0.1667 0.3849 0.0000 ( 11881 PWs)   bands (ev):

   -17.0809 -16.9533 -10.1062 -10.0373  -8.0742  -8.0273  -5.0944  -4.2146
     3.5541   4.1402   6.7070   7.1600

     occupation numbers 
     1.0000   1.0000   1.0000   1.0000   1.0000   1.0000   1.0000   1.0000
     0.0000   0.0000   0.0000   0.0000

          k = 0.1667 0.4811 0.0000 ( 11834 PWs)   bands (ev):

   -15.7047 -15.5882 -12.0162 -11.9325  -8.6517  -8.6021  -3.6307  -2.8276
     1.5870   2.2901   8.6141   9.0628

     occupation numbers 
     1.0000   1.0000   1.0000   1.0000   1.0000   1.0000   1.0000   1.0000
     0.0000   0.0000   0.0000   0.0000

          k = 0.1667 0.5774 0.0000 ( 11838 PWs)   bands (ev):

   -14.4757 -14.3658 -13.4455 -13.3537  -8.8371  -8.7867  -2.7003  -1.9721
     0.4732   1.2681   9.2306   9.5317

     occupation numbers 
     1.0000   1.0000   1.0000   1.0000   1.0000   1.0000   1.0000   1.0000
     0.0000   0.0000   0.0000   0.0000

          k = 0.2500 0.4330 0.0000 ( 11877 PWs)   bands (ev):

   -15.8521 -15.7347 -11.1462 -11.0689  -9.5537  -9.4951  -3.7224  -2.9041
     1.9286   2.5481   8.4085   8.8100

     occupation numbers 
     1.0000   1.0000   1.0000   1.0000   1.0000   1.0000   1.0000   1.0000
     0.0000   0.0000   0.0000   0.0000

          k = 0.2500 0.5292 0.0000 ( 11810 PWs)   bands (ev):

   -14.4310 -14.3246 -12.5657 -12.4772 -10.2623 -10.1989  -2.2982  -1.5586
     0.3789   1.0627   9.4155  10.4245

     occupation numbers 
     1.0000   1.0000   1.0000   1.0000   1.0000   1.0000   1.0000   1.0000
     0.0000   0.0000   0.0000   0.0000

          k = 0.3333 0.5774 0.0000 ( 11808 PWs)   bands (ev):

   -13.2152 -13.2151 -13.1187 -13.1186 -11.1503 -11.0820  -0.9197  -0.9197
    -0.2282  -0.2282   8.9547  10.8163

     occupation numbers 
     1.0000   1.0000   1.0000   1.0000   1.0000   1.0000   1.0000   1.0000
     0.0000   0.0000   0.0000   0.0000

     the Fermi energy is    -0.6029 ev

!    total energy              =     -48.25454678 Ry
     estimated scf accuracy    <          2.4E-10 Ry
     smearing contrib. (-TS)   =       0.00000000 Ry
     internal energy E=F+TS    =     -48.25454678 Ry

     The total energy is F=E-TS. E is the sum of the following terms:
     one-electron contribution =    -524.01101407 Ry
     hartree contribution      =     265.67845339 Ry
     xc contribution           =     -17.21461659 Ry
     ewald contribution        =     227.29263049 Ry

     convergence has been achieved in   7 iterations


     -----------------------------------------------
     Non-local corr. energy    =       0.19506610 Ry
     -----------------------------------------------


     Forces acting on atoms (cartesian axes, Ry/au):

     atom    1 type  1   force =     0.00000000    0.00000000   -0.00127304
     atom    2 type  1   force =     0.00000000   -0.00000000   -0.00127304
     atom    3 type  1   force =     0.00000000   -0.00000000    0.00127304
     atom    4 type  1   force =     0.00000000    0.00000000    0.00127304
     The non-local contrib.  to forces
     atom    1 type  1   force =     0.00000000   -0.00000000   -0.00159481
     atom    2 type  1   force =     0.00000000    0.00000000   -0.00159481
     atom    3 type  1   force =     0.00000000   -0.00000000    0.00159559
     atom    4 type  1   force =     0.00000000    0.00000000    0.00159559
     The ionic contribution  to forces
     atom    1 type  1   force =     0.00000852   -0.00000492  -14.08135172
     atom    2 type  1   force =    -0.00000852    0.00000492  -14.08135172
     atom    3 type  1   force =     0.00000852   -0.00000492   14.08135172
     atom    4 type  1   force =    -0.00000852    0.00000492   14.08135172
     The local contribution  to forces
     atom    1 type  1   force =     0.00000000    0.00000000   14.08161673
     atom    2 type  1   force =    -0.00000679    0.00000392   14.08161672
     atom    3 type  1   force =    -0.00000000    0.00000000  -14.08161588
     atom    4 type  1   force =    -0.00000679    0.00000392  -14.08161587
     The core correction contribution to forces
     atom    1 type  1   force =    -0.00000000    0.00000000    0.00002713
     atom    2 type  1   force =     0.00000053   -0.00000031    0.00002713
     atom    3 type  1   force =    -0.00000000    0.00000000   -0.00002703
     atom    4 type  1   force =     0.00000053   -0.00000031   -0.00002703
     The Hubbard contrib.    to forces
     atom    1 type  1   force =     0.00000000    0.00000000    0.00000000
     atom    2 type  1   force =     0.00000000    0.00000000    0.00000000
     atom    3 type  1   force =     0.00000000    0.00000000    0.00000000
     atom    4 type  1   force =     0.00000000    0.00000000    0.00000000
     The SCF correction term to forces
     atom    1 type  1   force =    -0.00000000    0.00000000    0.00000000
     atom    2 type  1   force =    -0.00000000    0.00000000    0.00000000
     atom    3 type  1   force =     0.00000000   -0.00000000   -0.00003000
     atom    4 type  1   force =    -0.00000000    0.00000000   -0.00003000

     Total force =     0.001800     Total SCF correction =     0.000042


     Computing stress (Cartesian axis) and pressure



     -----------------------------------------------
     Non-local corr. energy    =       0.19506610 Ry
     -----------------------------------------------

          total   stress  (Ry/bohr**3)                   (kbar)     P=        1.09
  -0.00000023  -0.00000000   0.00000000           -0.03       -0.00        0.00
  -0.00000000  -0.00000023   0.00000000           -0.00       -0.03        0.00
   0.00000000   0.00000000   0.00002263            0.00        0.00        3.33

     kinetic stress (kbar)   4523.54      0.00      0.00
                                0.00   4523.54      0.00
                                0.00      0.00   4983.51

     local   stress (kbar)-113986.69      0.00      0.00
                                0.00-113986.68     -0.00
                                0.00     -0.00 115329.96

     nonloc. stress (kbar)   -460.41      0.00      0.00
                                0.00   -460.41     -0.00
                                0.00     -0.00   -385.28

     hartree stress (kbar)  55194.50     -0.00      0.00
                               -0.00  55194.50      0.00
                                0.00      0.00 -54844.56

     exc-cor stress (kbar)   -360.07     -0.00     -0.00
                               -0.00   -360.07      0.00
                               -0.00      0.00   -419.70

     corecor stress (kbar)   -686.04      0.00      0.00
                                0.00   -686.04     -0.00
                                0.00     -0.00   -667.31

     ewald   stress (kbar)  55772.03     -0.01     -0.00
                               -0.01  55772.02     -0.00
                               -0.00     -0.00 -64024.79

     hubbard stress (kbar)      0.00      0.00      0.00
                                0.00      0.00      0.00
                                0.00      0.00      0.00

     DFT-D   stress (kbar)      0.00      0.00      0.00
                                0.00      0.00      0.00
                                0.00      0.00      0.00

     XDM     stress (kbar)      0.00      0.00      0.00
                                0.00      0.00      0.00
                                0.00      0.00      0.00

     dft-nl  stress (kbar)      3.10      0.00      0.00
                                0.00      3.10     -0.00
                                0.00     -0.00     31.49

     TS-vdW  stress (kbar)      0.00      0.00      0.00
                                0.00      0.00      0.00
                                0.00      0.00      0.00

     MDB     stress (kbar)      0.00      0.00      0.00
                                0.00      0.00      0.00
                                0.00      0.00      0.00

     3D-RISM stress (kbar)      0.00      0.00      0.00
                                0.00      0.00      0.00
                                0.00      0.00      0.00

     Energy error            =      1.3E-05 Ry
     Gradient error          =      1.3E-03 Ry/Bohr
     Cell gradient error     =      3.3E+00 kbar

     number of scf cycles    =   3
     number of bfgs steps    =   2

     enthalpy           old  =     -48.2545337446 Ry
     enthalpy           new  =     -48.2545467780 Ry

     CASE: enthalpy          _new < enthalpy          _old


     WARNING: info= 21 for Hessian

     WARNING: bfgs curvature condition failed, Theta= 0.793
     new trust radius        =       0.0040245368 bohr
     new conv_thr            =       0.0000000100 Ry

     new unit-cell volume =    703.79314 a.u.^3 (   104.29138 Ang^3 )
     density =      0.76496 g/cm^3

CELL_PARAMETERS (alat=  4.66447000)
   1.000000000   0.000000000   0.000000000
  -0.500000000   0.866025404   0.000000000
   0.000000000   0.000000000   8.007694326

ATOMIC_POSITIONS (crystal)
C             0.0000000000        0.0000000000        0.0000000000    0   0   0
C             0.6666670000        0.3333330000        0.0000000000    0   0   0
C            -0.0000000000       -0.0000000000        0.1702405549
C             0.6666670000        0.3333330000        0.1702405549



     Writing config-only to output data dir ./tmp/C2L_AA_PBE_vdW.save/
     NEW-OLD atomic charge density approx. for the potential

     negative rho (up, down):  5.260E-08 0.000E+00


     -----------------------------------------------
     Non-local corr. energy    =       0.19513838 Ry
     -----------------------------------------------

     extrapolated charge   16.00374, renormalised to   16.00000

     total cpu time spent up to now is       43.1 secs

     Self-consistent Calculation

     iteration #  1     ecut=   100.00 Ry     beta= 0.70
     Davidson diagonalization with overlap

---- Real-time Memory Report at c_bands before calling an iterative solver
             0 MiB given to the printing process from OS
             0 MiB allocation reported by mallinfo(arena+hblkhd)
             0 MiB available memory on the node where the printing process lives
------------------
     ethr =  1.00E-06,  avg # of iterations =  3.0

     negative rho (up, down):  1.304E-08 0.000E+00


     -----------------------------------------------
     Non-local corr. energy    =       0.19506473 Ry
     -----------------------------------------------


     total cpu time spent up to now is       44.3 secs

     total energy              =     -48.25453699 Ry
     estimated scf accuracy    <       0.00002382 Ry

     iteration #  2     ecut=   100.00 Ry     beta= 0.70
     Davidson diagonalization with overlap

---- Real-time Memory Report at c_bands before calling an iterative solver
             0 MiB given to the printing process from OS
             0 MiB allocation reported by mallinfo(arena+hblkhd)
             0 MiB available memory on the node where the printing process lives
------------------
     ethr =  1.49E-07,  avg # of iterations =  3.5


     -----------------------------------------------
     Non-local corr. energy    =       0.19507515 Ry
     -----------------------------------------------


     total cpu time spent up to now is       45.6 secs

     total energy              =     -48.25455332 Ry
     estimated scf accuracy    <       0.00007450 Ry

     iteration #  3     ecut=   100.00 Ry     beta= 0.70
     Davidson diagonalization with overlap

---- Real-time Memory Report at c_bands before calling an iterative solver
             0 MiB given to the printing process from OS
             0 MiB allocation reported by mallinfo(arena+hblkhd)
             0 MiB available memory on the node where the printing process lives
------------------
     ethr =  1.49E-07,  avg # of iterations =  2.0


     -----------------------------------------------
     Non-local corr. energy    =       0.19509604 Ry
     -----------------------------------------------


     total cpu time spent up to now is       46.7 secs

     total energy              =     -48.25456010 Ry
     estimated scf accuracy    <       0.00000467 Ry

     iteration #  4     ecut=   100.00 Ry     beta= 0.70
     Davidson diagonalization with overlap

---- Real-time Memory Report at c_bands before calling an iterative solver
             0 MiB given to the printing process from OS
             0 MiB allocation reported by mallinfo(arena+hblkhd)
             0 MiB available memory on the node where the printing process lives
------------------
     ethr =  2.92E-08,  avg # of iterations =  2.0


     -----------------------------------------------
     Non-local corr. energy    =       0.19510179 Ry
     -----------------------------------------------


     total cpu time spent up to now is       47.7 secs

     total energy              =     -48.25456037 Ry
     estimated scf accuracy    <       0.00000078 Ry

     iteration #  5     ecut=   100.00 Ry     beta= 0.70
     Davidson diagonalization with overlap

---- Real-time Memory Report at c_bands before calling an iterative solver
             0 MiB given to the printing process from OS
             0 MiB allocation reported by mallinfo(arena+hblkhd)
             0 MiB available memory on the node where the printing process lives
------------------
     ethr =  4.89E-09,  avg # of iterations =  2.3


     -----------------------------------------------
     Non-local corr. energy    =       0.19510386 Ry
     -----------------------------------------------


[...]

     iteration #  3     ecut=   100.00 Ry     beta= 0.70
     Davidson diagonalization with overlap

---- Real-time Memory Report at c_bands before calling an iterative solver
             0 MiB given to the printing process from OS
             0 MiB allocation reported by mallinfo(arena+hblkhd)
             0 MiB available memory on the node where the printing process lives
------------------
     ethr =  3.51E-05,  avg # of iterations =  8.4


     -----------------------------------------------
     Non-local corr. energy    =       0.19628139 Ry
     -----------------------------------------------


     total cpu time spent up to now is      222.8 secs

     total energy              =     -48.25449107 Ry
     estimated scf accuracy    <       0.00101702 Ry

     iteration #  4     ecut=   100.00 Ry     beta= 0.70
     Davidson diagonalization with overlap

---- Real-time Memory Report at c_bands before calling an iterative solver
             0 MiB given to the printing process from OS
             0 MiB allocation reported by mallinfo(arena+hblkhd)
             0 MiB available memory on the node where the printing process lives
------------------
     ethr =  6.36E-06,  avg # of iterations =  4.6


     -----------------------------------------------
     Non-local corr. energy    =       0.19636047 Ry
     -----------------------------------------------


     total cpu time spent up to now is      224.1 secs

     total energy              =     -48.25468553 Ry
     estimated scf accuracy    <       0.00078994 Ry

     iteration #  5     ecut=   100.00 Ry     beta= 0.70
     Davidson diagonalization with overlap

---- Real-time Memory Report at c_bands before calling an iterative solver
             0 MiB given to the printing process from OS
             0 MiB allocation reported by mallinfo(arena+hblkhd)
             0 MiB available memory on the node where the printing process lives
------------------
     ethr =  4.94E-06,  avg # of iterations =  2.6


     -----------------------------------------------
     Non-local corr. energy    =       0.19645617 Ry
     -----------------------------------------------


     total cpu time spent up to now is      225.2 secs

     total energy              =     -48.25483684 Ry
     estimated scf accuracy    <       0.00000278 Ry

     iteration #  6     ecut=   100.00 Ry     beta= 0.70
     Davidson diagonalization with overlap

---- Real-time Memory Report at c_bands before calling an iterative solver
             0 MiB given to the printing process from OS
             0 MiB allocation reported by mallinfo(arena+hblkhd)
             0 MiB available memory on the node where the printing process lives
------------------
     ethr =  1.74E-08,  avg # of iterations =  4.3


     -----------------------------------------------
     Non-local corr. energy    =       0.19645521 Ry
     -----------------------------------------------


     total cpu time spent up to now is      226.6 secs

     total energy              =     -48.25483898 Ry
     estimated scf accuracy    <       0.00000027 Ry

     iteration #  7     ecut=   100.00 Ry     beta= 0.70
     Davidson diagonalization with overlap

---- Real-time Memory Report at c_bands before calling an iterative solver
             0 MiB given to the printing process from OS
             0 MiB allocation reported by mallinfo(arena+hblkhd)
             0 MiB available memory on the node where the printing process lives
------------------
     ethr =  1.70E-09,  avg # of iterations =  2.5


     -----------------------------------------------
     Non-local corr. energy    =       0.19645375 Ry
     -----------------------------------------------


     total cpu time spent up to now is      227.6 secs

     total energy              =     -48.25483902 Ry
     estimated scf accuracy    <       0.00000015 Ry

     iteration #  8     ecut=   100.00 Ry     beta= 0.70
     Davidson diagonalization with overlap

---- Real-time Memory Report at c_bands before calling an iterative solver
             0 MiB given to the printing process from OS
             0 MiB allocation reported by mallinfo(arena+hblkhd)
             0 MiB available memory on the node where the printing process lives
------------------
     ethr =  9.25E-10,  avg # of iterations =  2.0


     -----------------------------------------------
     Non-local corr. energy    =       0.19645598 Ry
     -----------------------------------------------


     total cpu time spent up to now is      228.6 secs

     End of self-consistent calculation

          k = 0.0000 0.0000 0.0000 ( 12127 PWs)   bands (ev):

   -20.1576 -20.0393  -8.6601  -7.8107  -3.6876  -3.6876  -3.6748  -3.6747
     2.4778   2.9306   4.0929   5.3535

     occupation numbers 
     1.0000   1.0000   1.0000   1.0000   1.0000   1.0000   1.0000   1.0000
     0.0000   0.0000   0.0000   0.0000

          k = 0.0000 0.0962 0.0000 ( 12097 PWs)   bands (ev):

   -19.9936 -19.8765  -8.4616  -7.6173  -4.3370  -4.3196  -4.0246  -4.0106
     2.6973   3.1525   4.3185   5.5623

     occupation numbers 
     1.0000   1.0000   1.0000   1.0000   1.0000   1.0000   1.0000   1.0000
     0.0000   0.0000   0.0000   0.0000

          k = 0.0000 0.1925 0.0000 ( 12083 PWs)   bands (ev):

   -19.5035 -19.3899  -7.8713  -7.0427  -5.9725  -5.9447  -4.8148  -4.7986
     3.3558   3.8171   4.9951   6.1832

     occupation numbers 
     1.0000   1.0000   1.0000   1.0000   1.0000   1.0000   1.0000   1.0000
     0.0000   0.0000   0.0000   0.0000

          k = 0.0000 0.2887 0.0000 ( 12047 PWs)   bands (ev):

   -18.6929 -18.5852  -8.0693  -8.0291  -6.9070  -6.1069  -5.6935  -5.6755
     4.4497   4.9130   6.1104   6.3734

     occupation numbers 
     1.0000   1.0000   1.0000   1.0000   1.0000   1.0000   1.0000   1.0000
     0.0000   0.0000   0.0000   0.0000

          k = 0.0000 0.3849 0.0000 ( 12041 PWs)   bands (ev):

   -17.5744 -17.4742 -10.2716 -10.2187  -6.4268  -6.4076  -5.6166  -4.8626
     4.0142   4.5514   5.9676   6.4923

     occupation numbers 
     1.0000   1.0000   1.0000   1.0000   1.0000   1.0000   1.0000   1.0000
     0.0000   0.0000   0.0000   0.0000

          k = 0.0000 0.4811 0.0000 ( 11999 PWs)   bands (ev):

   -16.1795 -16.0882 -12.3704 -12.3056  -6.9000  -6.8801  -4.1577  -3.4771
     1.8133   2.4929   6.8348   6.9990

     occupation numbers 
     1.0000   1.0000   1.0000   1.0000   1.0000   1.0000   1.0000   1.0000
     0.0000   0.0000   0.0000   0.0000

          k = 0.0000-0.5774 0.0000 ( 11992 PWs)   bands (ev):

   -14.9227 -14.8364 -13.8698 -13.7989  -7.0624  -7.0424  -3.2761  -2.6674
     0.6688   1.4419   6.7572   6.9172

     occupation numbers 
     1.0000   1.0000   1.0000   1.0000   1.0000   1.0000   1.0000   1.0000
     0.0000   0.0000   0.0000   0.0000

          k = 0.0833 0.1443 0.0000 ( 12091 PWs)   bands (ev):

   -19.6666 -19.5518  -8.0671  -7.2332  -5.3700  -5.3465  -4.6991  -4.6820
     3.1366   3.5959   4.7698   5.9795

     occupation numbers 
     1.0000   1.0000   1.0000   1.0000   1.0000   1.0000   1.0000   1.0000
     0.0000   0.0000   0.0000   0.0000

          k = 0.0833 0.2406 0.0000 ( 12069 PWs)   bands (ev):

   -19.0162 -18.9062  -7.2888  -7.0786  -7.0451  -6.4767  -5.6948  -5.6737
     4.0139   4.4794   5.6711   6.7908

     occupation numbers 
     1.0000   1.0000   1.0000   1.0000   1.0000   1.0000   1.0000   1.0000
     0.0000   0.0000   0.0000   0.0000

          k = 0.0833 0.3368 0.0000 ( 12056 PWs)   bands (ev):

   -18.0515 -17.9482  -9.1502  -9.1042  -6.5809  -6.5573  -6.1552  -5.3798
     5.0723   5.3266   5.4757   5.8740

     occupation numbers 
     1.0000   1.0000   1.0000   1.0000   1.0000   1.0000   1.0000   1.0000
     0.0000   0.0000   0.0000   0.0000

          k = 0.0833 0.4330 0.0000 ( 12022 PWs)   bands (ev):

   -16.7915 -16.6966 -11.2716 -11.2132  -7.2161  -7.1911  -4.7476  -4.0300
     2.8070   3.3925   7.0390   7.6839

     occupation numbers 
     1.0000   1.0000   1.0000   1.0000   1.0000   1.0000   1.0000   1.0000
     0.0000   0.0000   0.0000   0.0000

          k = 0.0833 0.5292 0.0000 ( 11969 PWs)   bands (ev):

   -15.3147 -15.2282 -13.2101 -13.1411  -7.5448  -7.5192  -3.3950  -2.7633
     0.9765   1.6890   7.4814   7.6545

     occupation numbers 
     1.0000   1.0000   1.0000   1.0000   1.0000   1.0000   1.0000   1.0000
     0.0000   0.0000   0.0000   0.0000

          k = 0.1667 0.2887 0.0000 ( 12071 PWs)   bands (ev):

   -18.2117 -18.1072  -8.4110  -8.3705  -7.0523  -7.0227  -6.3373  -5.5550
     5.1076   5.5527   5.5779   5.9507

     occupation numbers 
     1.0000   1.0000   1.0000   1.0000   1.0000   1.0000   1.0000   1.0000
     0.0000   0.0000   0.0000   0.0000

          k = 0.1667 0.3849 0.0000 ( 12033 PWs)   bands (ev):

   -17.1040 -17.0072 -10.1371 -10.0861  -8.1081  -8.0736  -5.0621  -4.3259
     3.5718   4.0494   6.6256   7.0993

     occupation numbers 
     1.0000   1.0000   1.0000   1.0000   1.0000   1.0000   1.0000   1.0000
     0.0000   0.0000   0.0000   0.0000

          k = 0.1667 0.4811 0.0000 ( 12002 PWs)   bands (ev):

   -15.7292 -15.6411 -12.0450 -11.9825  -8.6852  -8.6487  -3.6012  -2.9343
     1.6104   2.1922   8.5339   9.3453

     occupation numbers 
     1.0000   1.0000   1.0000   1.0000   1.0000   1.0000   1.0000   1.0000
     0.0000   0.0000   0.0000   0.0000

          k = 0.1667 0.5774 0.0000 ( 11978 PWs)   bands (ev):

   -14.5011 -14.4185 -13.4732 -13.4041  -8.8705  -8.8334  -2.6737  -2.0747
     0.5006   1.1651   9.2231   9.4701

     occupation numbers 
     1.0000   1.0000   1.0000   1.0000   1.0000   1.0000   1.0000   1.0000
     0.0000   0.0000   0.0000   0.0000

          k = 0.2500 0.4330 0.0000 ( 12007 PWs)   bands (ev):

   -15.8766 -15.7878 -11.1759 -11.1186  -9.5858  -9.5422  -3.6924  -3.0116
     1.9491   2.4540   8.3281   8.7502

     occupation numbers 
     1.0000   1.0000   1.0000   1.0000   1.0000   1.0000   1.0000   1.0000
     0.0000   0.0000   0.0000   0.0000

          k = 0.2500 0.5292 0.0000 ( 11980 PWs)   bands (ev):

   -14.4569 -14.3768 -12.5938 -12.5277 -10.2938 -10.2464  -2.2712  -1.6615
     0.4026   0.9644   9.4206  10.3347

     occupation numbers 
     1.0000   1.0000   1.0000   1.0000   1.0000   1.0000   1.0000   1.0000
     0.0000   0.0000   0.0000   0.0000

          k = 0.3333 0.5774 0.0000 ( 11928 PWs)   bands (ev):

   -13.2423 -13.2423 -13.1702 -13.1701 -11.1811 -11.1296  -0.8950  -0.8949
    -0.3279  -0.3278   8.9808  10.7163

     occupation numbers 
     1.0000   1.0000   1.0000   1.0000   1.0000   1.0000   1.0000   1.0000
     0.0000   0.0000   0.0000   0.0000

     the Fermi energy is    -0.5748 ev

!    total energy              =     -48.25483904 Ry
     estimated scf accuracy    <          4.7E-09 Ry
     smearing contrib. (-TS)   =       0.00000000 Ry
     internal energy E=F+TS    =     -48.25483904 Ry

     The total energy is F=E-TS. E is the sum of the following terms:
     one-electron contribution =    -523.48471585 Ry
     hartree contribution      =     265.38954675 Ry
     xc contribution           =     -17.21069168 Ry
     ewald contribution        =     227.05102174 Ry

     convergence has been achieved in   8 iterations


     -----------------------------------------------
     Non-local corr. energy    =       0.19645598 Ry
     -----------------------------------------------


     Forces acting on atoms (cartesian axes, Ry/au):

     atom    1 type  1   force =     0.00000000    0.00000000   -0.00015105
     atom    2 type  1   force =     0.00000000    0.00000000   -0.00015105
     atom    3 type  1   force =     0.00000000    0.00000000    0.00015105
     atom    4 type  1   force =     0.00000000    0.00000000    0.00015105
     The non-local contrib.  to forces
     atom    1 type  1   force =     0.00000000   -0.00000000   -0.00051713
     atom    2 type  1   force =     0.00000000    0.00000000   -0.00051713
     atom    3 type  1   force =     0.00000000    0.00000000    0.00051155
     atom    4 type  1   force =     0.00000000   -0.00000000    0.00051155
     The ionic contribution  to forces
     atom    1 type  1   force =     0.00000851   -0.00000492  -13.92113946
     atom    2 type  1   force =    -0.00000851    0.00000492  -13.92113946
     atom    3 type  1   force =     0.00000851   -0.00000492   13.92113946
     atom    4 type  1   force =    -0.00000851    0.00000492   13.92113946
     The local contribution  to forces
     atom    1 type  1   force =     0.00000000    0.00000000   13.92141526
     atom    2 type  1   force =    -0.00000679    0.00000392   13.92141526
     atom    3 type  1   force =     0.00000000    0.00000000  -13.92138412
     atom    4 type  1   force =    -0.00000679    0.00000392  -13.92138411
     The core correction contribution to forces
     atom    1 type  1   force =    -0.00000000    0.00000000   -0.00003555
     atom    2 type  1   force =     0.00000053   -0.00000031   -0.00003555
     atom    3 type  1   force =    -0.00000000    0.00000000    0.00003570
     atom    4 type  1   force =     0.00000053   -0.00000031    0.00003570
     The Hubbard contrib.    to forces
     atom    1 type  1   force =     0.00000000    0.00000000    0.00000000
     atom    2 type  1   force =     0.00000000    0.00000000    0.00000000
     atom    3 type  1   force =     0.00000000    0.00000000    0.00000000
     atom    4 type  1   force =     0.00000000    0.00000000    0.00000000
     The SCF correction term to forces
     atom    1 type  1   force =    -0.00000000    0.00000000    0.00000000
     atom    2 type  1   force =     0.00000000   -0.00000000    0.00000000
     atom    3 type  1   force =    -0.00000000    0.00000000   -0.00015626
     atom    4 type  1   force =     0.00000000   -0.00000000   -0.00015626

     Total force =     0.000214     Total SCF correction =     0.000221
     SCF correction compared to forces is large: reduce conv_thr to get better values


     Computing stress (Cartesian axis) and pressure



     -----------------------------------------------
     Non-local corr. energy    =       0.19645598 Ry
     -----------------------------------------------

          total   stress  (Ry/bohr**3)                   (kbar)     P=        0.41
   0.00000285   0.00000000   0.00000000            0.42        0.00        0.00
   0.00000000   0.00000285   0.00000000            0.00        0.42        0.00
   0.00000000   0.00000000   0.00000275            0.00        0.00        0.40

     kinetic stress (kbar)   4469.25     -0.00      0.00
                               -0.00   4469.25      0.00
                               -0.00     -0.00   4920.32

     local   stress (kbar)-112510.12      0.00      0.00
                                0.00-112510.12     -0.00
                                0.00     -0.00 113838.47

     nonloc. stress (kbar)   -454.88      0.00      0.00
                                0.00   -454.88     -0.00
                                0.00     -0.00   -380.20

     hartree stress (kbar)  54472.96     -0.00     -0.00
                               -0.00  54472.96      0.00
                               -0.00      0.00 -54127.66

     exc-cor stress (kbar)   -355.53     -0.00     -0.00
                               -0.00   -355.53      0.00
                               -0.00      0.00   -414.87

     corecor stress (kbar)   -677.82      0.00     -0.00
                                0.00   -677.82      0.00
                               -0.00      0.00   -659.26

     ewald   stress (kbar)  55053.52     -0.01      0.00
                               -0.01  55053.51     -0.00
                                0.00     -0.00 -63207.89

     hubbard stress (kbar)      0.00      0.00      0.00
                                0.00      0.00      0.00
                                0.00      0.00      0.00

     DFT-D   stress (kbar)      0.00      0.00      0.00
                                0.00      0.00      0.00
                                0.00      0.00      0.00

     XDM     stress (kbar)      0.00      0.00      0.00
                                0.00      0.00      0.00
                                0.00      0.00      0.00

     dft-nl  stress (kbar)      3.03      0.00     -0.00
                                0.00      3.03      0.00
                               -0.00      0.00     31.49

     TS-vdW  stress (kbar)      0.00      0.00      0.00
                                0.00      0.00      0.00
                                0.00      0.00      0.00

     MDB     stress (kbar)      0.00      0.00      0.00
                                0.00      0.00      0.00
                                0.00      0.00      0.00

     3D-RISM stress (kbar)      0.00      0.00      0.00
                                0.00      0.00      0.00
                                0.00      0.00      0.00


     Writing all to output data dir ./tmp/C2L_AA_PBE_vdW.save/

     init_run     :     12.14s CPU     12.23s WALL (       2 calls)
     electrons    :    166.12s CPU    166.04s WALL (      18 calls)
     update_pot   :     11.30s CPU     11.62s WALL (      16 calls)
     forces       :      9.86s CPU     10.21s WALL (      18 calls)
     stress       :     28.73s CPU     30.72s WALL (      18 calls)

     Called by init_run:
     wfcinit      :      0.86s CPU      0.87s WALL (       2 calls)
     wfcinit:atom :      0.02s CPU      0.02s WALL (      38 calls)
     wfcinit:wfcr :      0.76s CPU      0.75s WALL (      38 calls)
     potinit      :     10.12s CPU     10.20s WALL (       2 calls)
     hinit0       :      0.93s CPU      0.93s WALL (       2 calls)

     Called by electrons:
     c_bands      :    132.07s CPU    129.39s WALL (     137 calls)
     sum_band     :     17.92s CPU     18.33s WALL (     137 calls)
     v_of_rho     :     26.90s CPU     28.90s WALL (     153 calls)
     v_h          :      0.21s CPU      0.21s WALL (     153 calls)
     v_xc         :     30.76s CPU     33.21s WALL (     189 calls)
     mix_rho      :      0.60s CPU      0.98s WALL (     137 calls)
     vdW_kernel   :      9.59s CPU      9.65s WALL (       1 calls)

     Called by c_bands:
     init_us_2    :      2.60s CPU      2.64s WALL (    5928 calls)
     init_us_2:cp :      2.59s CPU      2.62s WALL (    5928 calls)
     cegterg      :    127.45s CPU    124.59s WALL (    2603 calls)

     Called by sum_band:
     sum_band:wei :      0.03s CPU      0.03s WALL (     137 calls)
     sum_band:loo :     17.39s CPU     17.79s WALL (     137 calls)
     sum_band:buf :      0.41s CPU      0.41s WALL (    2603 calls)
     sum_band:ini :      1.16s CPU      1.18s WALL (    2603 calls)

     Called by *egterg:
     cdiaghg      :      2.36s CPU      2.41s WALL (   11671 calls)
     cegterg:over :      6.94s CPU      7.13s WALL (    9410 calls)
     cegterg:upda :      4.95s CPU      4.45s WALL (    9410 calls)
     cegterg:last :      6.97s CPU      5.01s WALL (    6047 calls)
     h_psi        :    102.80s CPU    101.65s WALL (   12051 calls)
     g_psi        :      0.58s CPU      0.72s WALL (    9410 calls)

     Called by h_psi:
     h_psi:calbec :      8.76s CPU      8.31s WALL (   12051 calls)
     vloc_psi     :     84.60s CPU     86.61s WALL (   12051 calls)
     add_vuspsi   :      8.63s CPU      5.82s WALL (   12051 calls)

     General routines
     calbec       :     11.18s CPU     10.73s WALL (   13761 calls)
     fft          :     10.08s CPU     10.31s WALL (   12222 calls)
     ffts         :      0.09s CPU      0.09s WALL (     137 calls)
     fftw         :     90.12s CPU     91.94s WALL (  206054 calls)

     Parallel routines

     PWSCF        :   3m48.37s CPU   3m51.13s WALL


   This run was terminated on:  13:43:41   4Apr2024            

=------------------------------------------------------------------------------=
   JOB DONE.
=------------------------------------------------------------------------------=
