
     Program PWSCF v.7.2 starts on  8Apr2024 at 13:47:55 

     This program is part of the open-source Quantum ESPRESSO suite
     for quantum simulation of materials; please cite
         "P. Giannozzi et al., J. Phys.:Condens. Matter 21 395502 (2009);
         "P. Giannozzi et al., J. Phys.:Condens. Matter 29 465901 (2017);
         "P. Giannozzi et al., J. Chem. Phys. 152 154105 (2020);
          URL http://www.quantum-espresso.org", 
     in publications or presentations arising from this work. More details at
     http://www.quantum-espresso.org/quote

     Parallel version (MPI & OpenMP), running on       8 processor cores
     Number of MPI processes:                 8
     Threads/MPI process:                     1

     MPI processes distributed on     1 nodes
     0 MiB available memory on the printing compute node when the environment starts

     Waiting for input...
     Reading input from standard input

     Current dimensions of program PWSCF are:
     Max number of different atomic species (ntypx) = 10
     Max number of k-points (npk) =  40000
     Max angular momentum in pseudopotentials (lmaxx) =  4

     IMPORTANT: XC functional enforced from input :
     Exchange-correlation= VDW-DF2-B86R
                           (   1   4  26   0   2   0   0)
     Any further DFT definition will be discarded
     Please, verify this is what you really want


     R & G space division:  proc/nbgrp/npool/nimage =       8
     Subspace diagonalization in iterative solution of the eigenvalue problem:
     a serial algorithm will be used


     Parallelization info
     --------------------
     sticks:   dense  smooth     PW     G-vecs:    dense   smooth      PW
     Min          93      93     26                16393    16393    2566
     Max          94      94     27                16428    16428    2595
     Sum         745     745    211               131209   131209   20621

     Using Slab Decomposition



     bravais-lattice index     =            4
     lattice parameter (alat)  =       4.7400  a.u.
     unit-cell volume          =     737.8289 (a.u.)^3
     number of atoms/cell      =            4
     number of atomic types    =            2
     number of electrons       =        16.00
     number of Kohn-Sham states=           12
     kinetic-energy cutoff     =     120.0000  Ry
     charge density cutoff     =     480.0000  Ry
     scf convergence threshold =      1.0E-06
     mixing beta               =       0.7000
     number of iterations used =            8  plain     mixing
     energy convergence thresh.=      1.0E-04
     force convergence thresh. =      1.0E-03
     press convergence thresh. =      5.0E-01
     Exchange-correlation= VDW-DF2-B86R
                           (   1   4  26   0   2   0   0)
     nstep                     =           50


     celldm(1)=   4.740000  celldm(2)=   0.000000  celldm(3)=   8.000000
     celldm(4)=   0.000000  celldm(5)=   0.000000  celldm(6)=   0.000000

     crystal axes: (cart. coord. in units of alat)
               a(1) = (   1.000000   0.000000   0.000000 )  
               a(2) = (  -0.500000   0.866025   0.000000 )  
               a(3) = (   0.000000   0.000000   8.000000 )  

     reciprocal axes: (cart. coord. in units 2 pi/alat)
               b(1) = (  1.000000  0.577350 -0.000000 )  
               b(2) = (  0.000000  1.154701  0.000000 )  
               b(3) = (  0.000000 -0.000000  0.125000 )  


     PseudoPot. # 1 for B  read from file:
     ../../../Pseudo/PBE/B.upf
     MD5 check sum: 72f82fc31bc892420d0cab7e25c88ab8
     Pseudo is Norm-conserving + core correction, Zval =  3.0
     Generated using ONCVPSP code by D. R. Hamann
     Using radial grid of 1534 points,  4 beta functions with: 
                l(1) =   0
                l(2) =   0
                l(3) =   1
                l(4) =   1

     PseudoPot. # 2 for N  read from file:
     ../../../Pseudo/PBE/N.upf
     MD5 check sum: d34365f73bb0e2ee98afc20ec3e87676
     Pseudo is Norm-conserving + core correction, Zval =  5.0
     Generated using ONCVPSP code by D. R. Hamann
     Using radial grid of 1058 points,  4 beta functions with: 
                l(1) =   0
                l(2) =   0
                l(3) =   1
                l(4) =   1

     atomic species   valence    mass     pseudopotential
        B              3.00    10.00000     B ( 1.00)
        N              5.00    14.01100     N ( 1.00)

      6 Sym. Ops. (no inversion) found


                                    s                        frac. trans.

      isym =  1     identity                                     

 cryst.   s( 1) = (     1          0          0      )
                  (     0          1          0      )
                  (     0          0          1      )

 cart.    s( 1) = (  1.0000000  0.0000000  0.0000000 )
                  (  0.0000000  1.0000000  0.0000000 )
                  (  0.0000000  0.0000000  1.0000000 )


      isym =  2     120 deg rotation - cryst. axis [0,0,1]       

 cryst.   s( 2) = (     0          1          0      )
                  (    -1         -1          0      )
                  (     0          0          1      )

 cart.    s( 2) = ( -0.5000000 -0.8660254  0.0000000 )
                  (  0.8660254 -0.5000000  0.0000000 )
                  (  0.0000000  0.0000000  1.0000000 )


      isym =  3     120 deg rotation - cryst. axis [0,0,-1]      

 cryst.   s( 3) = (    -1         -1          0      )
                  (     1          0          0      )
                  (     0          0          1      )

 cart.    s( 3) = ( -0.5000000  0.8660254  0.0000000 )
                  ( -0.8660254 -0.5000000  0.0000000 )
                  (  0.0000000  0.0000000  1.0000000 )


      isym =  4     inv. 180 deg rotation - cart. axis [1,0,0]   

 cryst.   s( 4) = (    -1          0          0      )
                  (     1          1          0      )
                  (     0          0          1      )

 cart.    s( 4) = ( -1.0000000  0.0000000  0.0000000 )
                  (  0.0000000  1.0000000  0.0000000 )
                  (  0.0000000  0.0000000  1.0000000 )


      isym =  5     inv. 180 deg rotation - cryst. axis [0,1,0]  

 cryst.   s( 5) = (     1          1          0      )
                  (     0         -1          0      )
                  (     0          0          1      )

 cart.    s( 5) = (  0.5000000  0.8660254  0.0000000 )
                  (  0.8660254 -0.5000000  0.0000000 )
                  (  0.0000000  0.0000000  1.0000000 )


      isym =  6     inv. 180 deg rotation - cryst. axis [1,1,0]  

 cryst.   s( 6) = (     0         -1          0      )
                  (    -1          0          0      )
                  (     0          0          1      )

 cart.    s( 6) = (  0.5000000 -0.8660254  0.0000000 )
                  ( -0.8660254 -0.5000000  0.0000000 )
                  (  0.0000000  0.0000000  1.0000000 )


     point group C_3v (3m)  
     there are  3 classes
     the character table:

       E     2C3   3s_v 
A_1    1.00  1.00  1.00
A_2    1.00  1.00 -1.00
E      2.00 -1.00  0.00

     the symmetry operations in each class and the name of the first element:

     E        1
          identity                                               
     2C3      2    3
          120 deg rotation - cryst. axis [0,0,1]                 
     3s_v     4    5    6
          inv. 180 deg rotation - cart. axis [1,0,0]             

   Cartesian axes

     site n.     atom                  positions (alat units)
         1           B   tau(   1) = (   0.0000000   0.0000000   0.0000000  )
         2           N   tau(   2) = (   0.5000005   0.2886748   0.0000000  )
         3           B   tau(   3) = (   0.0000000   0.0000000   1.3600000  )
         4           N   tau(   4) = (   0.5000005   0.2886748   1.3600000  )

   Crystallographic axes

     site n.     atom                  positions (cryst. coord.)
         1           B   tau(   1) = (  0.0000000  0.0000000  0.0000000  )
         2           N   tau(   2) = (  0.6666670  0.3333330  0.0000000  )
         3           B   tau(   3) = (  0.0000000  0.0000000  0.1700000  )
         4           N   tau(   4) = (  0.6666670  0.3333330  0.1700000  )

     number of k points=    19  Marzari-Vanderbilt smearing, width (Ry)=  0.0050
                       cart. coord. in units 2pi/alat
        k(    1) = (   0.0000000   0.0000000   0.0000000), wk =   0.0138889
        k(    2) = (   0.0000000   0.0962250   0.0000000), wk =   0.0833333
        k(    3) = (   0.0000000   0.1924501   0.0000000), wk =   0.0833333
        k(    4) = (   0.0000000   0.2886751   0.0000000), wk =   0.0833333
        k(    5) = (   0.0000000   0.3849002   0.0000000), wk =   0.0833333
        k(    6) = (   0.0000000   0.4811252   0.0000000), wk =   0.0833333
        k(    7) = (   0.0000000  -0.5773503   0.0000000), wk =   0.0416667
        k(    8) = (   0.0833333   0.1443376   0.0000000), wk =   0.0833333
        k(    9) = (   0.0833333   0.2405626   0.0000000), wk =   0.1666667
        k(   10) = (   0.0833333   0.3367877   0.0000000), wk =   0.1666667
        k(   11) = (   0.0833333   0.4330127   0.0000000), wk =   0.1666667
        k(   12) = (   0.0833333   0.5292377   0.0000000), wk =   0.1666667
        k(   13) = (   0.1666667   0.2886751   0.0000000), wk =   0.0833333
        k(   14) = (   0.1666667   0.3849002   0.0000000), wk =   0.1666667
        k(   15) = (   0.1666667   0.4811252   0.0000000), wk =   0.1666667
        k(   16) = (   0.1666667   0.5773503   0.0000000), wk =   0.0833333
        k(   17) = (   0.2500000   0.4330127   0.0000000), wk =   0.0833333
        k(   18) = (   0.2500000   0.5292377   0.0000000), wk =   0.1666667
        k(   19) = (   0.3333333   0.5773503   0.0000000), wk =   0.0277778

                       cryst. coord.
        k(    1) = (   0.0000000   0.0000000   0.0000000), wk =   0.0138889
        k(    2) = (   0.0000000   0.0833333   0.0000000), wk =   0.0833333
        k(    3) = (   0.0000000   0.1666667   0.0000000), wk =   0.0833333
        k(    4) = (   0.0000000   0.2500000   0.0000000), wk =   0.0833333
        k(    5) = (   0.0000000   0.3333333   0.0000000), wk =   0.0833333
        k(    6) = (   0.0000000   0.4166667   0.0000000), wk =   0.0833333
        k(    7) = (   0.0000000  -0.5000000   0.0000000), wk =   0.0416667
        k(    8) = (   0.0833333   0.0833333   0.0000000), wk =   0.0833333
        k(    9) = (   0.0833333   0.1666667   0.0000000), wk =   0.1666667
        k(   10) = (   0.0833333   0.2500000   0.0000000), wk =   0.1666667
        k(   11) = (   0.0833333   0.3333333   0.0000000), wk =   0.1666667
        k(   12) = (   0.0833333   0.4166667   0.0000000), wk =   0.1666667
        k(   13) = (   0.1666667   0.1666667   0.0000000), wk =   0.0833333
        k(   14) = (   0.1666667   0.2500000   0.0000000), wk =   0.1666667
        k(   15) = (   0.1666667   0.3333333   0.0000000), wk =   0.1666667
        k(   16) = (   0.1666667   0.4166667   0.0000000), wk =   0.0833333
        k(   17) = (   0.2500000   0.2500000   0.0000000), wk =   0.0833333
        k(   18) = (   0.2500000   0.3333333   0.0000000), wk =   0.1666667
        k(   19) = (   0.3333333   0.3333333   0.0000000), wk =   0.0277778

     Dense  grid:   131209 G-vectors     FFT dimensions: (  36,  36, 270)

     Dynamical RAM for                 wfc:       0.37 MB

     Dynamical RAM for     wfc (w. buffer):       7.50 MB

     Dynamical RAM for           str. fact:       0.50 MB

     Dynamical RAM for           local pot:       0.00 MB

     Dynamical RAM for          nlocal pot:       1.00 MB

     Dynamical RAM for                qrad:       2.01 MB

     Dynamical RAM for          rho,v,vnew:       1.76 MB

     Dynamical RAM for               rhoin:       0.59 MB

     Dynamical RAM for            rho*nmix:       4.00 MB

     Dynamical RAM for           G-vectors:       1.06 MB

     Dynamical RAM for          h,s,v(r/c):       0.03 MB

     Dynamical RAM for          <psi|beta>:       0.01 MB

     Dynamical RAM for                 psi:       0.75 MB

     Dynamical RAM for                hpsi:       0.75 MB

     Dynamical RAM for      wfcinit/wfcrot:       1.01 MB

     Estimated static dynamical RAM per process >      16.84 MB

     Estimated max dynamical RAM per process >      22.38 MB

     Estimated total dynamical RAM >     179.03 MB

     Initial potential from superposition of free atoms

     starting charge      15.9995, renormalised to      16.0000

     negative rho (up, down):  3.886E-06 0.000E+00


     %%%%%%%%%%%%%%%%%%%%%%%%%%%%%%%%%%%%%%%%%%%%%%%%%%%%%%%%%%%%%%%%%%%%%%%%
     %                                                                      %
     % You are using vdW-DF, which was implemented by the Thonhauser group. %
     % Please cite the following two papers that made this development      %
     % possible and the two reviews that describe the various versions:     %
     %                                                                      %
     %   T. Thonhauser et al., PRL 115, 136402 (2015).                      %
     %   T. Thonhauser et al., PRB 76, 125112 (2007).                       %
     %   K. Berland et al., Rep. Prog. Phys. 78, 066501 (2015).             %
     %   D.C. Langreth et al., J. Phys.: Condens. Matter 21, 084203 (2009). %
     %                                                                      %
     % If you are calculating stress with vdW-DF, please also cite:         %
     %                                                                      %
     %   R. Sabatini et al., J. Phys.: Condens. Matter 24, 424209 (2012).   %
     %                                                                      %
     %%%%%%%%%%%%%%%%%%%%%%%%%%%%%%%%%%%%%%%%%%%%%%%%%%%%%%%%%%%%%%%%%%%%%%%%

     %%%%%%%%%%%%%%%%%%%%%%%%%%%%%%%%%%%%%%%%%%%%%%%%%%%%%%%%%%%%%%%%%%%%%%%%
     %                                                                      %
     %  vdW-DF NEWS:                                                        %
     %                                                                      %
     %  * vdW-DF3 is now available. DOI: 10.1021/acs.jctc.0c00471           %
     %    use with input_dft = 'vdW-DF3-opt1' or 'vdW-DF3-opt2'             %
     %                                                                      %
     %  * Unscreened and range-separated hybrid vdW-DF-cx functionals       %
     %    DOI: 10.1063/1.4986522 and 10.1088/1361-648X/ac2ad2               %
     %    use with input_dft = 'vdW-DF-cx0'    and 'vdW-DF-ahcx'            %
     %  * Unscreened and range-separated hybrid vdW-DF2-b86r functionals    %
     %    DOI: 10.1063/1.4986522 and DOI: 10.1103/PhysRevX.12.041003        %
     %    use with input_dft = 'vdW-DF2-br0' and 'vdW-DF2-ahbr'             %
     %                                                                      %
     %%%%%%%%%%%%%%%%%%%%%%%%%%%%%%%%%%%%%%%%%%%%%%%%%%%%%%%%%%%%%%%%%%%%%%%%


     Carrying out vdW-DF run using the following parameters:
     Nqs    =  20  Npoints =  1024  r_max =  100.000
     q_mesh =  0.00001000  0.04494208  0.09755937  0.15916263
               0.23128650  0.31572767  0.41458969  0.53033537
               0.66584808  0.82450364  1.01025438  1.22772762
               1.48234092  1.78043706  2.12944203  2.53805004
               3.01644009  3.57652955  4.23227104  5.00000000


     -----------------------------------------------
     Non-local corr. energy    =       0.17617464 Ry
     -----------------------------------------------

     Starting wfcs are   16 randomized atomic wfcs

     total cpu time spent up to now is       10.4 secs

     Self-consistent Calculation

     iteration #  1     ecut=   120.00 Ry     beta= 0.70
     Davidson diagonalization with overlap

---- Real-time Memory Report at c_bands before calling an iterative solver
             0 MiB given to the printing process from OS
             0 MiB allocation reported by mallinfo(arena+hblkhd)
             0 MiB available memory on the node where the printing process lives
------------------
     ethr =  1.00E-02,  avg # of iterations =  4.1


     -----------------------------------------------
     Non-local corr. energy    =       0.20634045 Ry
     -----------------------------------------------


     total cpu time spent up to now is       11.9 secs

     total energy              =     -53.44175211 Ry
     estimated scf accuracy    <       0.76932615 Ry

     iteration #  2     ecut=   120.00 Ry     beta= 0.70
     Davidson diagonalization with overlap

---- Real-time Memory Report at c_bands before calling an iterative solver
             0 MiB given to the printing process from OS
             0 MiB allocation reported by mallinfo(arena+hblkhd)
             0 MiB available memory on the node where the printing process lives
------------------
     ethr =  4.81E-03,  avg # of iterations =  3.7


     -----------------------------------------------
     Non-local corr. energy    =       0.20026038 Ry
     -----------------------------------------------


     total cpu time spent up to now is       13.6 secs

     total energy              =     -53.64277807 Ry
     estimated scf accuracy    <       0.33413165 Ry

     iteration #  3     ecut=   120.00 Ry     beta= 0.70
     Davidson diagonalization with overlap

---- Real-time Memory Report at c_bands before calling an iterative solver
             0 MiB given to the printing process from OS
             0 MiB allocation reported by mallinfo(arena+hblkhd)
             0 MiB available memory on the node where the printing process lives
------------------
     ethr =  2.09E-03,  avg # of iterations =  1.9


     -----------------------------------------------
     Non-local corr. energy    =       0.20222483 Ry
     -----------------------------------------------


     total cpu time spent up to now is       14.7 secs

     total energy              =     -53.69645835 Ry
     estimated scf accuracy    <       0.00561560 Ry

     iteration #  4     ecut=   120.00 Ry     beta= 0.70
     Davidson diagonalization with overlap

---- Real-time Memory Report at c_bands before calling an iterative solver
             0 MiB given to the printing process from OS
             0 MiB allocation reported by mallinfo(arena+hblkhd)
             0 MiB available memory on the node where the printing process lives
------------------
     ethr =  3.51E-05,  avg # of iterations = 10.2


     -----------------------------------------------
     Non-local corr. energy    =       0.20237678 Ry
     -----------------------------------------------


     total cpu time spent up to now is       17.0 secs

     total energy              =     -53.70129508 Ry
     estimated scf accuracy    <       0.00560985 Ry

     iteration #  5     ecut=   120.00 Ry     beta= 0.70
     Davidson diagonalization with overlap

---- Real-time Memory Report at c_bands before calling an iterative solver
             0 MiB given to the printing process from OS
             0 MiB allocation reported by mallinfo(arena+hblkhd)
             0 MiB available memory on the node where the printing process lives
------------------
     ethr =  3.51E-05,  avg # of iterations =  2.9


     -----------------------------------------------
     Non-local corr. energy    =       0.20235246 Ry
     -----------------------------------------------


     total cpu time spent up to now is       18.1 secs

     total energy              =     -53.70141983 Ry
     estimated scf accuracy    <       0.00107631 Ry

     iteration #  6     ecut=   120.00 Ry     beta= 0.70
     Davidson diagonalization with overlap

---- Real-time Memory Report at c_bands before calling an iterative solver
             0 MiB given to the printing process from OS
             0 MiB allocation reported by mallinfo(arena+hblkhd)
             0 MiB available memory on the node where the printing process lives
------------------
     ethr =  6.73E-06,  avg # of iterations =  4.7

     negative rho (up, down):  2.728E-07 0.000E+00


     -----------------------------------------------
     Non-local corr. energy    =       0.20237776 Ry
     -----------------------------------------------


     total cpu time spent up to now is       19.5 secs

     total energy              =     -53.70174087 Ry
     estimated scf accuracy    <       0.00001930 Ry

     iteration #  7     ecut=   120.00 Ry     beta= 0.70
     Davidson diagonalization with overlap

---- Real-time Memory Report at c_bands before calling an iterative solver
             0 MiB given to the printing process from OS
             0 MiB allocation reported by mallinfo(arena+hblkhd)
             0 MiB available memory on the node where the printing process lives
------------------
     c_bands:  1 eigenvalues not converged
     c_bands:  1 eigenvalues not converged
     ethr =  1.21E-07,  avg # of iterations =  7.4


     -----------------------------------------------
     Non-local corr. energy    =       0.20239351 Ry
     -----------------------------------------------


     total cpu time spent up to now is       21.3 secs

     total energy              =     -53.70174209 Ry
     estimated scf accuracy    <       0.00002375 Ry

     iteration #  8     ecut=   120.00 Ry     beta= 0.70
     Davidson diagonalization with overlap

---- Real-time Memory Report at c_bands before calling an iterative solver
             0 MiB given to the printing process from OS
             0 MiB allocation reported by mallinfo(arena+hblkhd)
             0 MiB available memory on the node where the printing process lives
------------------
     ethr =  1.21E-07,  avg # of iterations =  2.4


     -----------------------------------------------
     Non-local corr. energy    =       0.20239520 Ry
     -----------------------------------------------


     total cpu time spent up to now is       22.3 secs

     total energy              =     -53.70174407 Ry
     estimated scf accuracy    <       0.00000120 Ry

     iteration #  9     ecut=   120.00 Ry     beta= 0.70
     Davidson diagonalization with overlap

---- Real-time Memory Report at c_bands before calling an iterative solver
             0 MiB given to the printing process from OS
             0 MiB allocation reported by mallinfo(arena+hblkhd)
             0 MiB available memory on the node where the printing process lives
------------------
     ethr =  7.53E-09,  avg # of iterations =  4.0


     -----------------------------------------------
     Non-local corr. energy    =       0.20240112 Ry
     -----------------------------------------------


     total cpu time spent up to now is       23.7 secs

     End of self-consistent calculation

          k = 0.0000 0.0000 0.0000 ( 16399 PWs)   bands (ev):

   -20.1387 -20.0142  -8.1851  -7.2297  -3.8531  -3.8530  -3.8374  -3.8373
     2.0107   2.5660   3.7066   4.7895

     occupation numbers 
     1.0000   1.0000   1.0000   1.0000   1.0000   1.0000   1.0000   1.0000
     0.0000   0.0000   0.0000   0.0000

          k = 0.0000 0.0962 0.0000 ( 16391 PWs)   bands (ev):

   -20.0049 -19.8823  -8.0022  -7.0551  -4.4117  -4.3830  -4.1094  -4.0924
     2.2434   2.7800   3.9288   5.0042

     occupation numbers 
     1.0000   1.0000   1.0000   1.0000   1.0000   1.0000   1.0000   1.0000
     0.0000   0.0000   0.0000   0.0000

          k = 0.0000 0.1925 0.0000 ( 16390 PWs)   bands (ev):

   -19.6110 -19.4941  -7.4620  -6.5429  -5.8162  -5.7636  -4.7346  -4.7148
     2.9034   3.4034   4.5794   5.4107

     occupation numbers 
     1.0000   1.0000   1.0000   1.0000   1.0000   1.0000   1.0000   1.0000
     0.0000   0.0000   0.0000   0.0000

          k = 0.0000 0.2887 0.0000 ( 16370 PWs)   bands (ev):

   -18.9841 -18.8767  -7.6040  -7.5306  -6.5810  -5.7121  -5.4606  -5.4381
     3.9440   4.3653   5.3596   5.8201

     occupation numbers 
     1.0000   1.0000   1.0000   1.0000   1.0000   1.0000   1.0000   1.0000
     0.0000   0.0000   0.0000   0.0000

          k = 0.0000 0.3849 0.0000 ( 16376 PWs)   bands (ev):

   -18.1930 -18.0990  -9.3741  -9.2845  -6.0850  -6.0606  -5.4536  -4.6637
     4.1649   4.8522   5.3020   6.4917

     occupation numbers 
     1.0000   1.0000   1.0000   1.0000   1.0000   1.0000   1.0000   1.0000
     0.0000   0.0000   0.0000   0.0000

          k = 0.0000 0.4811 0.0000 ( 16402 PWs)   bands (ev):

   -17.4146 -17.3368 -10.7952 -10.6871  -6.4949  -6.4694  -4.2740  -3.6074
     2.5398   3.6093   6.6129   7.5064

     occupation numbers 
     1.0000   1.0000   1.0000   1.0000   1.0000   1.0000   1.0000   1.0000
     0.0000   0.0000   0.0000   0.0000

          k = 0.0000-0.5774 0.0000 ( 16394 PWs)   bands (ev):

   -17.0475 -16.9792 -11.3846 -11.2663  -6.6368  -6.6109  -3.6663  -3.0920
     1.7439   2.9315   7.0281   7.6695

     occupation numbers 
     1.0000   1.0000   1.0000   1.0000   1.0000   1.0000   1.0000   1.0000
     0.0000   0.0000   0.0000   0.0000

          k = 0.0833 0.1443 0.0000 ( 16405 PWs)   bands (ev):

   -19.7409 -19.6221  -7.6403  -6.7110  -5.3259  -5.2817  -4.6176  -4.5964
     2.6906   3.1994   4.3667   5.2720

     occupation numbers 
     1.0000   1.0000   1.0000   1.0000   1.0000   1.0000   1.0000   1.0000
     0.0000   0.0000   0.0000   0.0000

          k = 0.0833 0.2406 0.0000 ( 16381 PWs)   bands (ev):

   -19.2292 -19.1180  -6.9632  -6.7763  -6.7544  -6.0321  -5.4050  -5.3773
     3.5484   4.0032   5.1927   5.6966

     occupation numbers 
     1.0000   1.0000   1.0000   1.0000   1.0000   1.0000   1.0000   1.0000
     0.0000   0.0000   0.0000   0.0000

          k = 0.0833 0.3368 0.0000 ( 16367 PWs)   bands (ev):

   -18.5138 -18.4140  -8.5237  -8.4448  -6.1528  -6.1190  -5.9160  -5.0908
     4.7649   4.8845   4.9364   6.5270

     occupation numbers 
     1.0000   1.0000   1.0000   1.0000   1.0000   1.0000   1.0000   1.0000
     0.0000   0.0000   0.0000   0.0000

          k = 0.0833 0.4330 0.0000 ( 16378 PWs)   bands (ev):

   -17.7052 -17.6204 -10.1086 -10.0118  -6.7016  -6.6670  -4.7304  -4.0065
     3.3042   4.2434   6.2708   7.2157

     occupation numbers 
     1.0000   1.0000   1.0000   1.0000   1.0000   1.0000   1.0000   1.0000
     0.0000   0.0000   0.0000   0.0000

          k = 0.0833 0.5292 0.0000 ( 16379 PWs)   bands (ev):

   -17.0796 -17.0095 -11.1523 -11.0395  -6.9903  -6.9545  -3.7329  -3.1393
     1.9899   3.1212   7.4023   8.1869

     occupation numbers 
     1.0000   1.0000   1.0000   1.0000   1.0000   1.0000   1.0000   1.0000
     0.0000   0.0000   0.0000   0.0000

          k = 0.1667 0.2887 0.0000 ( 16366 PWs)   bands (ev):

   -18.6248 -18.5231  -8.0212  -7.9500  -6.4241  -6.3806  -6.0743  -5.2377
     4.6064   4.8625   5.1480   6.3939

     occupation numbers 
     1.0000   1.0000   1.0000   1.0000   1.0000   1.0000   1.0000   1.0000
     0.0000   0.0000   0.0000   0.0000

          k = 0.1667 0.3849 0.0000 ( 16360 PWs)   bands (ev):

   -17.8700 -17.7814  -9.3694  -9.2865  -7.2884  -7.2359  -4.9841  -4.2308
     3.9065   4.7006   6.0410   6.9470

     occupation numbers 
     1.0000   1.0000   1.0000   1.0000   1.0000   1.0000   1.0000   1.0000
     0.0000   0.0000   0.0000   0.0000

          k = 0.1667 0.4811 0.0000 ( 16379 PWs)   bands (ev):

   -17.1410 -17.0677 -10.5570 -10.4584  -7.8093  -7.7519  -3.8566  -3.2292
     2.5194   3.5232   7.7031   8.5406

     occupation numbers 
     1.0000   1.0000   1.0000   1.0000   1.0000   1.0000   1.0000   1.0000
     0.0000   0.0000   0.0000   0.0000

          k = 0.1667 0.5774 0.0000 ( 16386 PWs)   bands (ev):

   -16.8047 -16.7400 -11.0637 -10.9561  -7.9807  -7.9220  -3.2841  -2.7475
     1.8334   2.9389   8.6926   9.6157

     occupation numbers 
     1.0000   1.0000   1.0000   1.0000   1.0000   1.0000   1.0000   1.0000
     0.0000   0.0000   0.0000   0.0000

          k = 0.2500 0.4330 0.0000 ( 16348 PWs)   bands (ev):

   -17.1705 -17.0957 -10.0946 -10.0087  -8.3757  -8.3024  -3.9144  -3.2721
     2.8118   3.7391   7.6534   8.3897

     occupation numbers 
     1.0000   1.0000   1.0000   1.0000   1.0000   1.0000   1.0000   1.0000
     0.0000   0.0000   0.0000   0.0000

          k = 0.2500 0.5292 0.0000 ( 16377 PWs)   bands (ev):

   -16.6611 -16.5982 -10.6086 -10.5181  -8.9860  -8.9005  -3.0561  -2.5398
     1.9453   2.9717   9.2626   9.3935

     occupation numbers 
     1.0000   1.0000   1.0000   1.0000   1.0000   1.0000   1.0000   1.0000
     0.0000   0.0000   0.0000   0.0000

          k = 0.3333 0.5774 0.0000 ( 16404 PWs)   bands (ev):

   -16.4672 -16.4086 -10.3864 -10.3195  -9.6755  -9.5587  -2.7061  -2.2480
     1.7192   2.7563   8.8545  10.2475

     occupation numbers 
     1.0000   1.0000   1.0000   1.0000   1.0000   1.0000   1.0000   1.0000
     0.0000   0.0000   0.0000   0.0000

     the Fermi energy is    -0.9773 ev

!    total energy              =     -53.70174476 Ry
     estimated scf accuracy    <       0.00000020 Ry
     smearing contrib. (-TS)   =       0.00000000 Ry
     internal energy E=F+TS    =     -53.70174476 Ry

     The total energy is F=E-TS. E is the sum of the following terms:
     one-electron contribution =    -523.63920768 Ry
     hartree contribution      =     265.99068181 Ry
     xc contribution           =     -17.38851160 Ry
     ewald contribution        =     221.33529271 Ry

     convergence has been achieved in   9 iterations


     -----------------------------------------------
     Non-local corr. energy    =       0.20240112 Ry
     -----------------------------------------------


     Forces acting on atoms (cartesian axes, Ry/au):

     atom    1 type  1   force =     0.00000000    0.00000000   -0.00077954
     atom    2 type  2   force =     0.00000000    0.00000000   -0.00134988
     atom    3 type  1   force =     0.00000000    0.00000000    0.00076760
     atom    4 type  2   force =     0.00000000    0.00000000    0.00136181
     The non-local contrib.  to forces
     atom    1 type  1   force =     0.00000000    0.00000000   -0.00158796
     atom    2 type  2   force =     0.00000000    0.00000000   -0.00339641
     atom    3 type  1   force =     0.00000000    0.00000000    0.00157255
     atom    4 type  2   force =    -0.00000000   -0.00000000    0.00345165
     The ionic contribution  to forces
     atom    1 type  1   force =     0.00000773   -0.00000446  -10.23035423
     atom    2 type  2   force =    -0.00000773    0.00000446  -17.05360460
     atom    3 type  1   force =     0.00000773   -0.00000446   10.23035423
     atom    4 type  2   force =    -0.00000773    0.00000446   17.05360460
     The local contribution  to forces
     atom    1 type  1   force =     0.00000000    0.00000000   10.23119153
     atom    2 type  2   force =    -0.00003349    0.00001934   17.05571292
     atom    3 type  1   force =    -0.00000000    0.00000000  -10.23107812
     atom    4 type  2   force =    -0.00003349    0.00001934  -17.05552494
     The core correction contribution to forces
     atom    1 type  1   force =     0.00000000   -0.00000000    0.00005081
     atom    2 type  2   force =     0.00000139   -0.00000080    0.00010733
     atom    3 type  1   force =     0.00000000   -0.00000000   -0.00004955
     atom    4 type  2   force =     0.00000139   -0.00000080   -0.00010736
     The Hubbard contrib.    to forces
     atom    1 type  1   force =     0.00000000    0.00000000    0.00000000
     atom    2 type  2   force =     0.00000000    0.00000000    0.00000000
     atom    3 type  1   force =     0.00000000    0.00000000    0.00000000
     atom    4 type  2   force =     0.00000000    0.00000000    0.00000000
     The SCF correction term to forces
     atom    1 type  1   force =    -0.00000000    0.00000000   -0.00000000
     atom    2 type  2   force =     0.00000000   -0.00000000   -0.00000000
     atom    3 type  1   force =    -0.00000000    0.00000000   -0.00002544
     atom    4 type  2   force =     0.00000000   -0.00000000   -0.00005607

     Total force =     0.001563     Total SCF correction =     0.000062


     Computing stress (Cartesian axis) and pressure



     -----------------------------------------------
     Non-local corr. energy    =       0.20240112 Ry
     -----------------------------------------------

          total   stress  (Ry/bohr**3)                   (kbar)     P=        4.45
   0.00003559   0.00000000   0.00000000            5.23        0.00        0.00
   0.00000000   0.00003559   0.00000000            0.00        5.23        0.00
   0.00000000   0.00000000   0.00001953            0.00        0.00        2.87

     kinetic stress (kbar)   4828.69      0.00      0.00
                                0.00   4828.69     -0.00
                                0.00     -0.00   5255.98

     local   stress (kbar)-107297.17      0.00      0.00
                                0.00-107297.17     -0.00
                                0.00     -0.00 107977.62

     nonloc. stress (kbar)   -797.09      0.00      0.00
                                0.00   -797.09     -0.00
                                0.00     -0.00   -769.84

     hartree stress (kbar)  52195.44      0.00     -0.00
                                0.00  52195.44     -0.00
                               -0.00     -0.00 -51358.82

     exc-cor stress (kbar)   -485.20     -0.00      0.00
                               -0.00   -485.20     -0.00
                                0.00     -0.00   -532.89

     corecor stress (kbar)   -541.72      0.00     -0.00
                                0.00   -541.72      0.00
                               -0.00      0.00   -529.93

     ewald   stress (kbar)  52097.94     -0.01      0.00
                               -0.01  52097.93     -0.00
                                0.00     -0.00 -60067.01

     hubbard stress (kbar)      0.00      0.00      0.00
                                0.00      0.00      0.00
                                0.00      0.00      0.00

     DFT-D   stress (kbar)      0.00      0.00      0.00
                                0.00      0.00      0.00
                                0.00      0.00      0.00

     XDM     stress (kbar)      0.00      0.00      0.00
                                0.00      0.00      0.00
                                0.00      0.00      0.00

     dft-nl  stress (kbar)      4.36      0.00     -0.00
                                0.00      4.36      0.00
                               -0.00      0.00     27.77

     TS-vdW  stress (kbar)      0.00      0.00      0.00
                                0.00      0.00      0.00
                                0.00      0.00      0.00

     MDB     stress (kbar)      0.00      0.00      0.00
                                0.00      0.00      0.00
                                0.00      0.00      0.00

     3D-RISM stress (kbar)      0.00      0.00      0.00
                                0.00      0.00      0.00
                                0.00      0.00      0.00


     BFGS Geometry Optimization
     Energy error            =      0.0E+00 Ry
     Gradient error          =      1.4E-03 Ry/Bohr
     Cell gradient error     =      2.9E+00 kbar

     number of scf cycles    =   1
     number of bfgs steps    =   0

     enthalpy           new  =     -53.7017447582 Ry

     new trust radius        =       0.0026523629 bohr
     new conv_thr            =       0.0000010000 Ry

     new unit-cell volume =    738.18910 a.u.^3 (   109.38834 Ang^3 )
     density =      0.72898 g/cm^3

CELL_PARAMETERS (alat=  4.74000000)
   1.000000000   0.000000000   0.000000000
  -0.500000000   0.866025404   0.000000000
   0.000000000   0.000000000   8.003905846

ATOMIC_POSITIONS (crystal)
B             0.0000000000        0.0000000000        0.0000000000    0   0   0
N             0.6666670000        0.3333330000        0.0000000000    0   0   0
B             0.0000000000        0.0000000000        0.1700202427
N             0.6666670000        0.3333330000        0.1700359128



     Writing config-only to output data dir ./tmp/BN2L_AA_PBE_vdW.save/
     NEW-OLD atomic charge density approx. for the potential

     negative rho (up, down):  5.806E-08 0.000E+00


     -----------------------------------------------
     Non-local corr. energy    =       0.20249332 Ry
     -----------------------------------------------

     extrapolated charge   16.00781, renormalised to   16.00000

     total cpu time spent up to now is       29.2 secs

     Self-consistent Calculation

     iteration #  1     ecut=   120.00 Ry     beta= 0.70
     Davidson diagonalization with overlap

---- Real-time Memory Report at c_bands before calling an iterative solver
             0 MiB given to the printing process from OS
             0 MiB allocation reported by mallinfo(arena+hblkhd)
             0 MiB available memory on the node where the printing process lives
------------------
     ethr =  1.00E-06,  avg # of iterations =  5.7

     negative rho (up, down):  1.274E-08 0.000E+00


     -----------------------------------------------
     Non-local corr. energy    =       0.20230193 Ry
     -----------------------------------------------


     total cpu time spent up to now is       30.8 secs

     total energy              =     -53.70166188 Ry
     estimated scf accuracy    <       0.00007213 Ry

     iteration #  2     ecut=   120.00 Ry     beta= 0.70
     Davidson diagonalization with overlap

---- Real-time Memory Report at c_bands before calling an iterative solver
             0 MiB given to the printing process from OS
             0 MiB allocation reported by mallinfo(arena+hblkhd)
             0 MiB available memory on the node where the printing process lives
------------------
     c_bands:  1 eigenvalues not converged
     ethr =  4.51E-07,  avg # of iterations =  7.4


     -----------------------------------------------
     Non-local corr. energy    =       0.20235262 Ry
     -----------------------------------------------


     total cpu time spent up to now is       32.5 secs

     total energy              =     -53.70173735 Ry
     estimated scf accuracy    <       0.00027500 Ry

     iteration #  3     ecut=   120.00 Ry     beta= 0.70
     Davidson diagonalization with overlap

---- Real-time Memory Report at c_bands before calling an iterative solver
             0 MiB given to the printing process from OS
             0 MiB allocation reported by mallinfo(arena+hblkhd)
             0 MiB available memory on the node where the printing process lives
------------------
     ethr =  4.51E-07,  avg # of iterations =  2.0


     -----------------------------------------------
     Non-local corr. energy    =       0.20237417 Ry
     -----------------------------------------------


     total cpu time spent up to now is       33.7 secs

     total energy              =     -53.70175765 Ry
     estimated scf accuracy    <       0.00003096 Ry

     iteration #  4     ecut=   120.00 Ry     beta= 0.70
     Davidson diagonalization with overlap

---- Real-time Memory Report at c_bands before calling an iterative solver
             0 MiB given to the printing process from OS
             0 MiB allocation reported by mallinfo(arena+hblkhd)
             0 MiB available memory on the node where the printing process lives
------------------
     ethr =  1.94E-07,  avg # of iterations =  1.0


     -----------------------------------------------
     Non-local corr. energy    =       0.20239305 Ry
     -----------------------------------------------


     total cpu time spent up to now is       34.6 secs

     total energy              =     -53.70175431 Ry
     estimated scf accuracy    <       0.00001600 Ry

     iteration #  5     ecut=   120.00 Ry     beta= 0.70
     Davidson diagonalization with overlap

---- Real-time Memory Report at c_bands before calling an iterative solver
             0 MiB given to the printing process from OS
             0 MiB allocation reported by mallinfo(arena+hblkhd)
             0 MiB available memory on the node where the printing process lives
------------------
     ethr =  1.00E-07,  avg # of iterations =  1.0


     -----------------------------------------------
     Non-local corr. energy    =       0.20241220 Ry
     -----------------------------------------------


     total cpu time spent up to now is       35.6 secs

     total energy              =     -53.70175319 Ry
     estimated scf accuracy    <       0.00000498 Ry

     iteration #  6     ecut=   120.00 Ry     beta= 0.70
     Davidson diagonalization with overlap

---- Real-time Memory Report at c_bands before calling an iterative solver
             0 MiB given to the printing process from OS
             0 MiB allocation reported by mallinfo(arena+hblkhd)
             0 MiB available memory on the node where the printing process lives
------------------
     ethr =  3.11E-08,  avg # of iterations =  2.0


     -----------------------------------------------
     Non-local corr. energy    =       0.20242563 Ry
     -----------------------------------------------


     total cpu time spent up to now is       36.7 secs

     End of self-consistent calculation

          k = 0.0000 0.0000 0.0000 ( 16399 PWs)   bands (ev):

   -20.1439 -20.0200  -8.1892  -7.2363  -3.8586  -3.8586  -3.8430  -3.8429
     2.0079   2.5650   3.7244   4.7970

     occupation numbers 
     1.0000   1.0000   1.0000   1.0000   1.0000   1.0000   1.0000   1.0000
     0.0000   0.0000   0.0000   0.0000

          k = 0.0000 0.0962 0.0000 ( 16391 PWs)   bands (ev):

   -20.0101 -19.8881  -8.0063  -7.0617  -4.4172  -4.3886  -4.1150  -4.0980
     2.2406   2.7789   3.9463   4.9235

     occupation numbers 
     1.0000   1.0000   1.0000   1.0000   1.0000   1.0000   1.0000   1.0000
     0.0000   0.0000   0.0000   0.0000

          k = 0.0000 0.1925 0.0000 ( 16390 PWs)   bands (ev):

   -19.6162 -19.4998  -7.4660  -6.5495  -5.8217  -5.7693  -4.7402  -4.7204
     2.9006   3.4024   4.5957   5.4111

     occupation numbers 
     1.0000   1.0000   1.0000   1.0000   1.0000   1.0000   1.0000   1.0000
     0.0000   0.0000   0.0000   0.0000

          k = 0.0000 0.2887 0.0000 ( 16370 PWs)   bands (ev):

   -18.9893 -18.8824  -7.6095  -7.5364  -6.5851  -5.7186  -5.4662  -5.4438
     3.9410   4.3642   5.3546   5.8388

     occupation numbers 
     1.0000   1.0000   1.0000   1.0000   1.0000   1.0000   1.0000   1.0000
     0.0000   0.0000   0.0000   0.0000

          k = 0.0000 0.3849 0.0000 ( 16376 PWs)   bands (ev):

   -18.1983 -18.1047  -9.3796  -9.2905  -6.0906  -6.0663  -5.4577  -4.6700
     4.1597   4.8482   5.2984   6.4880

     occupation numbers 
     1.0000   1.0000   1.0000   1.0000   1.0000   1.0000   1.0000   1.0000
     0.0000   0.0000   0.0000   0.0000

          k = 0.0000 0.4811 0.0000 ( 16402 PWs)   bands (ev):

   -17.4199 -17.3424 -10.8007 -10.6931  -6.5006  -6.4752  -4.2780  -3.6136
     2.5351   3.6028   6.6083   7.5011

     occupation numbers 
     1.0000   1.0000   1.0000   1.0000   1.0000   1.0000   1.0000   1.0000
     0.0000   0.0000   0.0000   0.0000

          k = 0.0000-0.5774 0.0000 ( 16394 PWs)   bands (ev):

   -17.0528 -16.9848 -11.3901 -11.2724  -6.6424  -6.6167  -3.6703  -3.0980
     1.7393   2.9246   7.0229   7.6631

     occupation numbers 
     1.0000   1.0000   1.0000   1.0000   1.0000   1.0000   1.0000   1.0000
     0.0000   0.0000   0.0000   0.0000

          k = 0.0833 0.1443 0.0000 ( 16405 PWs)   bands (ev):

   -19.7462 -19.6279  -7.6444  -6.7175  -5.3314  -5.2874  -4.6232  -4.6020
     2.6877   3.1984   4.3836   5.2721

     occupation numbers 
     1.0000   1.0000   1.0000   1.0000   1.0000   1.0000   1.0000   1.0000
     0.0000   0.0000   0.0000   0.0000

          k = 0.0833 0.2406 0.0000 ( 16381 PWs)   bands (ev):

   -19.2344 -19.1237  -6.9674  -6.7817  -6.7601  -6.0387  -5.4106  -5.3830
     3.5455   4.0022   5.2031   5.7009

     occupation numbers 
     1.0000   1.0000   1.0000   1.0000   1.0000   1.0000   1.0000   1.0000
     0.0000   0.0000   0.0000   0.0000

          k = 0.0833 0.3368 0.0000 ( 16367 PWs)   bands (ev):

   -18.5190 -18.4197  -8.5292  -8.4506  -6.1584  -6.1248  -5.9201  -5.0972
     4.7630   4.8771   4.9346   6.5233

     occupation numbers 
     1.0000   1.0000   1.0000   1.0000   1.0000   1.0000   1.0000   1.0000
     0.0000   0.0000   0.0000   0.0000

          k = 0.0833 0.4330 0.0000 ( 16378 PWs)   bands (ev):

   -17.7104 -17.6261 -10.1141 -10.0178  -6.7073  -6.6728  -4.7344  -4.0128
     3.2993   4.2375   6.2671   7.2131

     occupation numbers 
     1.0000   1.0000   1.0000   1.0000   1.0000   1.0000   1.0000   1.0000
     0.0000   0.0000   0.0000   0.0000

          k = 0.0833 0.5292 0.0000 ( 16379 PWs)   bands (ev):

   -17.0848 -17.0151 -11.1578 -11.0455  -6.9959  -6.9603  -3.7369  -3.1453
     1.9852   3.1144   7.3972   8.1810

     occupation numbers 
     1.0000   1.0000   1.0000   1.0000   1.0000   1.0000   1.0000   1.0000
     0.0000   0.0000   0.0000   0.0000

          k = 0.1667 0.2887 0.0000 ( 16366 PWs)   bands (ev):

   -18.6301 -18.5288  -8.0267  -7.9558  -6.4297  -6.3864  -6.0784  -5.2442
     4.6038   4.8613   5.1409   6.4140

     occupation numbers 
     1.0000   1.0000   1.0000   1.0000   1.0000   1.0000   1.0000   1.0000
     0.0000   0.0000   0.0000   0.0000

          k = 0.1667 0.3849 0.0000 ( 16360 PWs)   bands (ev):

   -17.8753 -17.7871  -9.3749  -9.2924  -7.2940  -7.2418  -4.9882  -4.2371
     3.9014   4.6953   6.0377   6.9444

     occupation numbers 
     1.0000   1.0000   1.0000   1.0000   1.0000   1.0000   1.0000   1.0000
     0.0000   0.0000   0.0000   0.0000

          k = 0.1667 0.4811 0.0000 ( 16379 PWs)   bands (ev):

   -17.1462 -17.0733 -10.5626 -10.4644  -7.8149  -7.7578  -3.8607  -3.2353
     2.5147   3.5166   7.6993   8.5384

     occupation numbers 
     1.0000   1.0000   1.0000   1.0000   1.0000   1.0000   1.0000   1.0000
     0.0000   0.0000   0.0000   0.0000

          k = 0.1667 0.5774 0.0000 ( 16386 PWs)   bands (ev):

   -16.8100 -16.7455 -11.0692 -10.9622  -7.9863  -7.9279  -3.2881  -2.7534
     1.8288   2.9319   8.6875   9.6106

     occupation numbers 
     1.0000   1.0000   1.0000   1.0000   1.0000   1.0000   1.0000   1.0000
     0.0000   0.0000   0.0000   0.0000

          k = 0.2500 0.4330 0.0000 ( 16348 PWs)   bands (ev):

   -17.1757 -17.1013 -10.1001 -10.0147  -8.3813  -8.3083  -3.9185  -3.2783
     2.8070   3.7325   7.6500   8.3877

     occupation numbers 
     1.0000   1.0000   1.0000   1.0000   1.0000   1.0000   1.0000   1.0000
     0.0000   0.0000   0.0000   0.0000

          k = 0.2500 0.5292 0.0000 ( 16377 PWs)   bands (ev):

   -16.6664 -16.6037 -10.6142 -10.5241  -8.9916  -8.9065  -3.0601  -2.5457
     1.9405   2.9646   9.2570   9.3892

     occupation numbers 
     1.0000   1.0000   1.0000   1.0000   1.0000   1.0000   1.0000   1.0000
     0.0000   0.0000   0.0000   0.0000

          k = 0.3333 0.5774 0.0000 ( 16404 PWs)   bands (ev):

   -16.4724 -16.4141 -10.3920 -10.3254  -9.6811  -9.5648  -2.7101  -2.2538
     1.7144   2.7491   8.8494  10.2430

     occupation numbers 
     1.0000   1.0000   1.0000   1.0000   1.0000   1.0000   1.0000   1.0000
     0.0000   0.0000   0.0000   0.0000

     the Fermi energy is    -0.9820 ev

!    total energy              =     -53.70175338 Ry
     estimated scf accuracy    <       0.00000047 Ry
     smearing contrib. (-TS)   =       0.00000000 Ry
     internal energy E=F+TS    =     -53.70175338 Ry

     The total energy is F=E-TS. E is the sum of the following terms:
     one-electron contribution =    -523.87463041 Ry
     hartree contribution      =     266.11009858 Ry
     xc contribution           =     -17.38851490 Ry
     ewald contribution        =     221.45129335 Ry

     convergence has been achieved in   6 iterations


     -----------------------------------------------
     Non-local corr. energy    =       0.20242563 Ry
     -----------------------------------------------


     Forces acting on atoms (cartesian axes, Ry/au):

     atom    1 type  1   force =     0.00000000    0.00000000   -0.00074489
     atom    2 type  2   force =     0.00000000    0.00000000   -0.00109019
     atom    3 type  1   force =     0.00000000    0.00000000    0.00092050
     atom    4 type  2   force =     0.00000000    0.00000000    0.00091458
     The non-local contrib.  to forces
     atom    1 type  1   force =     0.00000000    0.00000000   -0.00167352
     atom    2 type  2   force =     0.00000000    0.00000000   -0.00308971
     atom    3 type  1   force =     0.00000000   -0.00000000    0.00163638
     atom    4 type  2   force =     0.00000000    0.00000000    0.00216680
     The ionic contribution  to forces
     atom    1 type  1   force =     0.00000773   -0.00000446  -10.22942261
     atom    2 type  2   force =    -0.00000773    0.00000446  -17.05202708
     atom    3 type  1   force =     0.00000773   -0.00000446   10.22615144
     atom    4 type  2   force =    -0.00000773    0.00000446   17.05529826
     The local contribution  to forces
     atom    1 type  1   force =     0.00000000    0.00000000   10.23114212
     atom    2 type  2   force =    -0.00003349    0.00001934   17.05560102
     atom    3 type  1   force =     0.00000000    0.00000000  -10.22770357
     atom    4 type  2   force =    -0.00003349    0.00001934  -17.05820796
     The core correction contribution to forces
     atom    1 type  1   force =     0.00000000   -0.00000000    0.00005808
     atom    2 type  2   force =     0.00000139   -0.00000080    0.00010404
     atom    3 type  1   force =     0.00000000   -0.00000000   -0.00005046
     atom    4 type  2   force =     0.00000139   -0.00000080   -0.00008000
     The Hubbard contrib.    to forces
     atom    1 type  1   force =     0.00000000    0.00000000    0.00000000
     atom    2 type  2   force =     0.00000000    0.00000000    0.00000000
     atom    3 type  1   force =     0.00000000    0.00000000    0.00000000
     atom    4 type  2   force =     0.00000000    0.00000000    0.00000000
     The SCF correction term to forces
     atom    1 type  1   force =    -0.00000000    0.00000000   -0.00000000
     atom    2 type  2   force =     0.00000000   -0.00000000   -0.00000000
     atom    3 type  1   force =    -0.00000000    0.00000000    0.00088096
     atom    4 type  2   force =     0.00000000   -0.00000000    0.00173173

     Total force =     0.001298     Total SCF correction =     0.001943
     SCF correction compared to forces is large: reduce conv_thr to get better values


     Computing stress (Cartesian axis) and pressure



     -----------------------------------------------
     Non-local corr. energy    =       0.20242563 Ry
     -----------------------------------------------

          total   stress  (Ry/bohr**3)                   (kbar)     P=        4.47
   0.00003557   0.00000000   0.00000000            5.23        0.00        0.00
   0.00000000   0.00003557  -0.00000000            0.00        5.23       -0.00
   0.00000000   0.00000000   0.00001997            0.00        0.00        2.94

     kinetic stress (kbar)   4826.38     -0.00      0.00
                               -0.00   4826.38     -0.00
                                0.00     -0.00   5253.46

     local   stress (kbar)-107291.76      0.00      0.00
                                0.00-107291.76     -0.00
                                0.00     -0.00 107971.94

     nonloc. stress (kbar)   -796.74      0.00      0.00
                                0.00   -796.74      0.00
                                0.00      0.00   -769.49

     hartree stress (kbar)  52193.77      0.00     -0.00
                                0.00  52193.77      0.00
                               -0.00      0.00 -51357.57

     exc-cor stress (kbar)   -484.96     -0.00     -0.00
                               -0.00   -484.96      0.00
                               -0.00      0.00   -532.64

     corecor stress (kbar)   -541.46      0.00      0.00
                                0.00   -541.46     -0.00
                                0.00     -0.00   -529.68

     ewald   stress (kbar)  52095.65     -0.01     -0.00
                               -0.01  52095.64      0.00
                               -0.00      0.00 -60060.85

     hubbard stress (kbar)      0.00      0.00      0.00
                                0.00      0.00      0.00
                                0.00      0.00      0.00

     DFT-D   stress (kbar)      0.00      0.00      0.00
                                0.00      0.00      0.00
                                0.00      0.00      0.00

     XDM     stress (kbar)      0.00      0.00      0.00
                                0.00      0.00      0.00
                                0.00      0.00      0.00

     dft-nl  stress (kbar)      4.36      0.00     -0.00
                                0.00      4.36      0.00
                               -0.00      0.00     27.76

     TS-vdW  stress (kbar)      0.00      0.00      0.00
                                0.00      0.00      0.00
                                0.00      0.00      0.00

     MDB     stress (kbar)      0.00      0.00      0.00
                                0.00      0.00      0.00
                                0.00      0.00      0.00

     3D-RISM stress (kbar)      0.00      0.00      0.00
                                0.00      0.00      0.00
                                0.00      0.00      0.00

     Energy error            =      8.6E-06 Ry
     Gradient error          =      9.2E-04 Ry/Bohr
     Cell gradient error     =      2.9E+00 kbar

     number of scf cycles    =   2
     number of bfgs steps    =   1

     enthalpy           old  =     -53.7017447582 Ry
     enthalpy           new  =     -53.7017533776 Ry

     CASE: enthalpy          _new < enthalpy          _old


     WARNING: bfgs curvature condition failed, Theta= 0.829
     new trust radius        =       0.0039775735 bohr
     new conv_thr            =       0.0000000100 Ry

     new unit-cell volume =    738.72945 a.u.^3 (   109.46841 Ang^3 )
     density =      0.72845 g/cm^3

CELL_PARAMETERS (alat=  4.74000000)
   1.000000000   0.000000000   0.000000000
  -0.500000000   0.866025404   0.000000000
   0.000000000   0.000000000   8.009764615

ATOMIC_POSITIONS (crystal)
B             0.0000000000        0.0000000000        0.0000000000    0   0   0
N             0.6666670000        0.3333330000        0.0000000000    0   0   0
B             0.0000000000        0.0000000000        0.1700526488
N             0.6666670000        0.3333330000        0.1700826275



     Writing config-only to output data dir ./tmp/BN2L_AA_PBE_vdW.save/
     NEW-OLD atomic charge density approx. for the potential

     negative rho (up, down):  9.205E-08 0.000E+00


     -----------------------------------------------
     Non-local corr. energy    =       0.20256333 Ry
     -----------------------------------------------

     extrapolated charge   16.01170, renormalised to   16.00000

     total cpu time spent up to now is       42.0 secs

     Self-consistent Calculation

     iteration #  1     ecut=   120.00 Ry     beta= 0.70
     Davidson diagonalization with overlap

---- Real-time Memory Report at c_bands before calling an iterative solver
             0 MiB given to the printing process from OS
             0 MiB allocation reported by mallinfo(arena+hblkhd)
             0 MiB available memory on the node where the printing process lives
------------------
     c_bands:  1 eigenvalues not converged
     ethr =  1.00E-06,  avg # of iterations =  7.4

     negative rho (up, down):  1.778E-08 0.000E+00


     -----------------------------------------------
     Non-local corr. energy    =       0.20228172 Ry
     -----------------------------------------------


     total cpu time spent up to now is       43.8 secs

     total energy              =     -53.70153677 Ry
     estimated scf accuracy    <       0.00018956 Ry

     iteration #  2     ecut=   120.00 Ry     beta= 0.70
     Davidson diagonalization with overlap

---- Real-time Memory Report at c_bands before calling an iterative solver
             0 MiB given to the printing process from OS
             0 MiB allocation reported by mallinfo(arena+hblkhd)
             0 MiB available memory on the node where the printing process lives
------------------
     c_bands:  1 eigenvalues not converged
     ethr =  1.18E-06,  avg # of iterations =  8.1

     negative rho (up, down):  1.152E-08 0.000E+00


     -----------------------------------------------
     Non-local corr. energy    =       0.20235741 Ry
     -----------------------------------------------


     total cpu time spent up to now is       45.8 secs

     total energy              =     -53.70172037 Ry
     estimated scf accuracy    <       0.00068554 Ry

     iteration #  3     ecut=   120.00 Ry     beta= 0.70
     Davidson diagonalization with overlap

---- Real-time Memory Report at c_bands before calling an iterative solver
             0 MiB given to the printing process from OS
             0 MiB allocation reported by mallinfo(arena+hblkhd)
             0 MiB available memory on the node where the printing process lives
------------------
     ethr =  1.18E-06,  avg # of iterations =  3.5


     -----------------------------------------------
     Non-local corr. energy    =       0.20238553 Ry
     -----------------------------------------------


     total cpu time spent up to now is       47.1 secs

     total energy              =     -53.70177624 Ry
     estimated scf accuracy    <       0.00006998 Ry

     iteration #  4     ecut=   120.00 Ry     beta= 0.70
     Davidson diagonalization with overlap

---- Real-time Memory Report at c_bands before calling an iterative solver
             0 MiB given to the printing process from OS
             0 MiB allocation reported by mallinfo(arena+hblkhd)
             0 MiB available memory on the node where the printing process lives
------------------
     ethr =  4.37E-07,  avg # of iterations =  1.0


     -----------------------------------------------
     Non-local corr. energy    =       0.20241625 Ry
     -----------------------------------------------


     total cpu time spent up to now is       48.1 secs

     total energy              =     -53.70176760 Ry
     estimated scf accuracy    <       0.00003880 Ry

     iteration #  5     ecut=   120.00 Ry     beta= 0.70
     Davidson diagonalization with overlap

---- Real-time Memory Report at c_bands before calling an iterative solver
             0 MiB given to the printing process from OS
             0 MiB allocation reported by mallinfo(arena+hblkhd)
             0 MiB available memory on the node where the printing process lives
------------------
     ethr =  2.43E-07,  avg # of iterations =  1.1


     -----------------------------------------------
     Non-local corr. energy    =       0.20244952 Ry
     -----------------------------------------------


     total cpu time spent up to now is       49.0 secs

     total energy              =     -53.70176440 Ry
     estimated scf accuracy    <       0.00001150 Ry

     iteration #  6     ecut=   120.00 Ry     beta= 0.70
     Davidson diagonalization with overlap

---- Real-time Memory Report at c_bands before calling an iterative solver
             0 MiB given to the printing process from OS
             0 MiB allocation reported by mallinfo(arena+hblkhd)
             0 MiB available memory on the node where the printing process lives
------------------
     ethr =  7.19E-08,  avg # of iterations =  2.1


     -----------------------------------------------
     Non-local corr. energy    =       0.20245381 Ry
     -----------------------------------------------


     total cpu time spent up to now is       50.1 secs

     total energy              =     -53.70176627 Ry
     estimated scf accuracy    <       0.00000028 Ry

     iteration #  7     ecut=   120.00 Ry     beta= 0.70
     Davidson diagonalization with overlap

---- Real-time Memory Report at c_bands before calling an iterative solver
             0 MiB given to the printing process from OS
             0 MiB allocation reported by mallinfo(arena+hblkhd)
             0 MiB available memory on the node where the printing process lives
------------------
     ethr =  1.75E-09,  avg # of iterations =  4.1


     -----------------------------------------------
     Non-local corr. energy    =       0.20245369 Ry
     -----------------------------------------------


     total cpu time spent up to now is       51.5 secs

     total energy              =     -53.70176649 Ry
     estimated scf accuracy    <       0.00000003 Ry

     iteration #  8     ecut=   120.00 Ry     beta= 0.70
     Davidson diagonalization with overlap

---- Real-time Memory Report at c_bands before calling an iterative solver
             0 MiB given to the printing process from OS
             0 MiB allocation reported by mallinfo(arena+hblkhd)
             0 MiB available memory on the node where the printing process lives
------------------
     ethr =  2.15E-10,  avg # of iterations =  1.8


     -----------------------------------------------
     Non-local corr. energy    =       0.20245524 Ry
     -----------------------------------------------


     total cpu time spent up to now is       52.6 secs

     total energy              =     -53.70176648 Ry
     estimated scf accuracy    <       0.00000005 Ry

     iteration #  9     ecut=   120.00 Ry     beta= 0.70
     Davidson diagonalization with overlap

---- Real-time Memory Report at c_bands before calling an iterative solver
             0 MiB given to the printing process from OS
             0 MiB allocation reported by mallinfo(arena+hblkhd)
             0 MiB available memory on the node where the printing process lives
------------------
     ethr =  2.15E-10,  avg # of iterations =  1.0


     -----------------------------------------------
     Non-local corr. energy    =       0.20245534 Ry
     -----------------------------------------------


     total cpu time spent up to now is       53.6 secs

     total energy              =     -53.70176647 Ry
     estimated scf accuracy    <       0.00000003 Ry

     iteration # 10     ecut=   120.00 Ry     beta= 0.70
     Davidson diagonalization with overlap

---- Real-time Memory Report at c_bands before calling an iterative solver
             0 MiB given to the printing process from OS
             0 MiB allocation reported by mallinfo(arena+hblkhd)
             0 MiB available memory on the node where the printing process lives
------------------
     ethr =  1.77E-10,  avg # of iterations =  1.3


     -----------------------------------------------
     Non-local corr. energy    =       0.20245569 Ry
     -----------------------------------------------


     total cpu time spent up to now is       54.6 secs

     End of self-consistent calculation

          k = 0.0000 0.0000 0.0000 ( 16399 PWs)   bands (ev):

   -20.1427 -20.0197  -8.1866  -7.2382  -3.8577  -3.8577  -3.8422  -3.8421
     2.0051   2.5621   3.7215   4.7223

     occupation numbers 
     1.0000   1.0000   1.0000   1.0000   1.0000   1.0000   1.0000   1.0000
     0.0000   0.0000   0.0000   0.0000

          k = 0.0000 0.0962 0.0000 ( 16391 PWs)   bands (ev):

   -20.0089 -19.8878  -8.0037  -7.0636  -4.4163  -4.3878  -4.1141  -4.0972
     2.2378   2.7761   3.9436   4.9174

     occupation numbers 
     1.0000   1.0000   1.0000   1.0000   1.0000   1.0000   1.0000   1.0000
     0.0000   0.0000   0.0000   0.0000

          k = 0.0000 0.1925 0.0000 ( 16390 PWs)   bands (ev):

   -19.6150 -19.4995  -7.4635  -6.5513  -5.8208  -5.7687  -4.7393  -4.7197
     2.8979   3.3997   4.5928   5.4054

     occupation numbers 
     1.0000   1.0000   1.0000   1.0000   1.0000   1.0000   1.0000   1.0000
     0.0000   0.0000   0.0000   0.0000

          k = 0.0000 0.2887 0.0000 ( 16370 PWs)   bands (ev):

   -18.9882 -18.8821  -7.6083  -7.5359  -6.5827  -5.7204  -5.4653  -5.4430
     3.9384   4.3618   5.3521   5.8371

     occupation numbers 
     1.0000   1.0000   1.0000   1.0000   1.0000   1.0000   1.0000   1.0000
     0.0000   0.0000   0.0000   0.0000

          k = 0.0000 0.3849 0.0000 ( 16376 PWs)   bands (ev):

   -18.1971 -18.1043  -9.3785  -9.2900  -6.0897  -6.0656  -5.4553  -4.6716
     4.1612   4.8470   5.2960   6.4845

     occupation numbers 
     1.0000   1.0000   1.0000   1.0000   1.0000   1.0000   1.0000   1.0000
     0.0000   0.0000   0.0000   0.0000

          k = 0.0000 0.4811 0.0000 ( 16402 PWs)   bands (ev):

   -17.4188 -17.3420 -10.7995 -10.6928  -6.4997  -6.4745  -4.2757  -3.6148
     2.5374   3.6010   6.6077   7.4990

     occupation numbers 
     1.0000   1.0000   1.0000   1.0000   1.0000   1.0000   1.0000   1.0000
     0.0000   0.0000   0.0000   0.0000

          k = 0.0000-0.5774 0.0000 ( 16394 PWs)   bands (ev):

   -17.0517 -16.9842 -11.3889 -11.2721  -6.6416  -6.6160  -3.6681  -3.0991
     1.7419   2.9224   7.0239   7.6623

     occupation numbers 
     1.0000   1.0000   1.0000   1.0000   1.0000   1.0000   1.0000   1.0000
     0.0000   0.0000   0.0000   0.0000

          k = 0.0833 0.1443 0.0000 ( 16405 PWs)   bands (ev):

   -19.7449 -19.6276  -7.6419  -6.7194  -5.3305  -5.2867  -4.6223  -4.6013
     2.6850   3.1957   4.3809   5.2660

     occupation numbers 
     1.0000   1.0000   1.0000   1.0000   1.0000   1.0000   1.0000   1.0000
     0.0000   0.0000   0.0000   0.0000

          k = 0.0833 0.2406 0.0000 ( 16381 PWs)   bands (ev):

   -19.2332 -19.1234  -6.9647  -6.7809  -6.7596  -6.0405  -5.4097  -5.3823
     3.5428   3.9996   5.2000   5.6975

     occupation numbers 
     1.0000   1.0000   1.0000   1.0000   1.0000   1.0000   1.0000   1.0000
     0.0000   0.0000   0.0000   0.0000

          k = 0.0833 0.3368 0.0000 ( 16367 PWs)   bands (ev):

   -18.5179 -18.4193  -8.5281  -8.4501  -6.1574  -6.1241  -5.9177  -5.0988
     4.7611   4.8769   4.9330   6.6019

     occupation numbers 
     1.0000   1.0000   1.0000   1.0000   1.0000   1.0000   1.0000   1.0000
     0.0000   0.0000   0.0000   0.0000

          k = 0.0833 0.4330 0.0000 ( 16378 PWs)   bands (ev):

   -17.7093 -17.6256 -10.1129 -10.0174  -6.7063  -6.6721  -4.7321  -4.0142
     3.3014   4.2360   6.2650   7.2098

     occupation numbers 
     1.0000   1.0000   1.0000   1.0000   1.0000   1.0000   1.0000   1.0000
     0.0000   0.0000   0.0000   0.0000

          k = 0.0833 0.5292 0.0000 ( 16379 PWs)   bands (ev):

   -17.0837 -17.0146 -11.1566 -11.0452  -6.9950  -6.9597  -3.7347  -3.1464
     1.9878   3.1123   7.3975   8.1798

     occupation numbers 
     1.0000   1.0000   1.0000   1.0000   1.0000   1.0000   1.0000   1.0000
     0.0000   0.0000   0.0000   0.0000

          k = 0.1667 0.2887 0.0000 ( 16366 PWs)   bands (ev):

   -18.6289 -18.5284  -8.0256  -7.9552  -6.4287  -6.3857  -6.0761  -5.2458
     4.6012   4.8592   5.1405   6.4119

     occupation numbers 
     1.0000   1.0000   1.0000   1.0000   1.0000   1.0000   1.0000   1.0000
     0.0000   0.0000   0.0000   0.0000

          k = 0.1667 0.3849 0.0000 ( 16360 PWs)   bands (ev):

   -17.8741 -17.7866  -9.3738  -9.2919  -7.2930  -7.2412  -4.9858  -4.2385
     3.9032   4.6942   6.0350   6.9410

     occupation numbers 
     1.0000   1.0000   1.0000   1.0000   1.0000   1.0000   1.0000   1.0000
     0.0000   0.0000   0.0000   0.0000

          k = 0.1667 0.4811 0.0000 ( 16379 PWs)   bands (ev):

   -17.1451 -17.0728 -10.5614 -10.4640  -7.8139  -7.7572  -3.8584  -3.2365
     2.5170   3.5148   7.6972   8.5353

     occupation numbers 
     1.0000   1.0000   1.0000   1.0000   1.0000   1.0000   1.0000   1.0000
     0.0000   0.0000   0.0000   0.0000

          k = 0.1667 0.5774 0.0000 ( 16386 PWs)   bands (ev):

   -16.8089 -16.7450 -11.0681 -10.9618  -7.9853  -7.9273  -3.2859  -2.7544
     1.8314   2.9298   8.6879   9.6092

     occupation numbers 
     1.0000   1.0000   1.0000   1.0000   1.0000   1.0000   1.0000   1.0000
     0.0000   0.0000   0.0000   0.0000

          k = 0.2500 0.4330 0.0000 ( 16348 PWs)   bands (ev):

   -17.1746 -17.1008 -10.0990 -10.0142  -8.3802  -8.3079  -3.9162  -3.2795
     2.8093   3.7309   7.6475   8.3845

     occupation numbers 
     1.0000   1.0000   1.0000   1.0000   1.0000   1.0000   1.0000   1.0000
     0.0000   0.0000   0.0000   0.0000

          k = 0.2500 0.5292 0.0000 ( 16377 PWs)   bands (ev):

   -16.6653 -16.6032 -10.6131 -10.5237  -8.9905  -8.9061  -3.0580  -2.5466
     1.9431   2.9626   9.2577   9.3882

     occupation numbers 
     1.0000   1.0000   1.0000   1.0000   1.0000   1.0000   1.0000   1.0000
     0.0000   0.0000   0.0000   0.0000

          k = 0.3333 0.5774 0.0000 ( 16404 PWs)   bands (ev):

   -16.4714 -16.4136 -10.3910 -10.3249  -9.6798  -9.5645  -2.7080  -2.2546
     1.7171   2.7470   8.8511  10.2429

     occupation numbers 
     1.0000   1.0000   1.0000   1.0000   1.0000   1.0000   1.0000   1.0000
     0.0000   0.0000   0.0000   0.0000

     the Fermi energy is    -0.9816 ev

!    total energy              =     -53.70176647 Ry
     estimated scf accuracy    <          5.9E-09 Ry
     smearing contrib. (-TS)   =       0.00000000 Ry
     internal energy E=F+TS    =     -53.70176647 Ry

     The total energy is F=E-TS. E is the sum of the following terms:
     one-electron contribution =    -524.22014140 Ry
     hartree contribution      =     266.27729197 Ry
     xc contribution           =     -17.38799719 Ry
     ewald contribution        =     221.62908015 Ry

     convergence has been achieved in  10 iterations


     -----------------------------------------------
     Non-local corr. energy    =       0.20245569 Ry
     -----------------------------------------------


     Forces acting on atoms (cartesian axes, Ry/au):

     atom    1 type  1   force =     0.00000000    0.00000000   -0.00073280
     atom    2 type  2   force =     0.00000000    0.00000000   -0.00128537
     atom    3 type  1   force =     0.00000000    0.00000000    0.00106561
     atom    4 type  2   force =     0.00000000    0.00000000    0.00095257
     The non-local contrib.  to forces
     atom    1 type  1   force =     0.00000000    0.00000000   -0.00155231
     atom    2 type  2   force =     0.00000000    0.00000000   -0.00330849
     atom    3 type  1   force =     0.00000000    0.00000000    0.00150010
     atom    4 type  2   force =    -0.00000000   -0.00000000    0.00158908
     The ionic contribution  to forces
     atom    1 type  1   force =     0.00000773   -0.00000446  -10.22813924
     atom    2 type  2   force =    -0.00000773    0.00000446  -17.04985484
     atom    3 type  1   force =     0.00000773   -0.00000446   10.22187572
     atom    4 type  2   force =    -0.00000773    0.00000446   17.05611836
     The local contribution  to forces
     atom    1 type  1   force =    -0.00000000    0.00000000   10.22897604
     atom    2 type  2   force =    -0.00003349    0.00001934   17.05191433
     atom    3 type  1   force =     0.00000000    0.00000000  -10.22233546
     atom    4 type  2   force =    -0.00003349    0.00001934  -17.05682254
     The core correction contribution to forces
     atom    1 type  1   force =     0.00000000   -0.00000000    0.00004869
     atom    2 type  2   force =     0.00000139   -0.00000080    0.00010307
     atom    3 type  1   force =     0.00000000   -0.00000000   -0.00003405
     atom    4 type  2   force =     0.00000139   -0.00000080   -0.00005874
     The Hubbard contrib.    to forces
     atom    1 type  1   force =     0.00000000    0.00000000    0.00000000
     atom    2 type  2   force =     0.00000000    0.00000000    0.00000000
     atom    3 type  1   force =     0.00000000    0.00000000    0.00000000
     atom    4 type  2   force =     0.00000000    0.00000000    0.00000000
     The SCF correction term to forces
     atom    1 type  1   force =    -0.00000000    0.00000000   -0.00000000
     atom    2 type  2   force =    -0.00000000    0.00000000   -0.00000000
     atom    3 type  1   force =     0.00000000   -0.00000000    0.00005965
     atom    4 type  2   force =    -0.00000000    0.00000000    0.00012676

     Total force =     0.001429     Total SCF correction =     0.000140


     Computing stress (Cartesian axis) and pressure



     -----------------------------------------------
     Non-local corr. energy    =       0.20245569 Ry
     -----------------------------------------------

          total   stress  (Ry/bohr**3)                   (kbar)     P=        4.27
   0.00003476   0.00000000   0.00000000            5.11        0.00        0.00
   0.00000000   0.00003476   0.00000000            0.00        5.11        0.00
   0.00000000   0.00000000   0.00001751            0.00        0.00        2.58

     kinetic stress (kbar)   4822.58      0.00     -0.00
                                0.00   4822.58      0.00
                               -0.00      0.00   5249.17

     local   stress (kbar)-107282.21      0.00      0.00
                                0.00-107282.20     -0.00
                                0.00     -0.00 107961.98

     nonloc. stress (kbar)   -796.03     -0.00      0.00
                               -0.00   -796.03     -0.00
                                0.00     -0.00   -768.76

     hartree stress (kbar)  52189.08      0.00     -0.00
                                0.00  52189.08      0.00
                               -0.00      0.00 -51353.69

     exc-cor stress (kbar)   -484.57     -0.00     -0.00
                               -0.00   -484.57      0.00
                               -0.00      0.00   -532.23

     corecor stress (kbar)   -541.06      0.00      0.00
                                0.00   -541.06     -0.00
                                0.00     -0.00   -529.28

     ewald   stress (kbar)  52092.97     -0.01     -0.00
                               -0.01  52092.96      0.00
                               -0.00      0.00 -60052.37

     hubbard stress (kbar)      0.00      0.00      0.00
                                0.00      0.00      0.00
                                0.00      0.00      0.00

     DFT-D   stress (kbar)      0.00      0.00      0.00
                                0.00      0.00      0.00
                                0.00      0.00      0.00

     XDM     stress (kbar)      0.00      0.00      0.00
                                0.00      0.00      0.00
                                0.00      0.00      0.00

     dft-nl  stress (kbar)      4.35      0.00     -0.00
                                0.00      4.35      0.00
                               -0.00      0.00     27.75

     TS-vdW  stress (kbar)      0.00      0.00      0.00
                                0.00      0.00      0.00
                                0.00      0.00      0.00

     MDB     stress (kbar)      0.00      0.00      0.00
                                0.00      0.00      0.00
                                0.00      0.00      0.00

     3D-RISM stress (kbar)      0.00      0.00      0.00
                                0.00      0.00      0.00
                                0.00      0.00      0.00

     Energy error            =      1.3E-05 Ry
     Gradient error          =      1.1E-03 Ry/Bohr
     Cell gradient error     =      2.6E+00 kbar

     number of scf cycles    =   3
     number of bfgs steps    =   2

     enthalpy           old  =     -53.7017533776 Ry
     enthalpy           new  =     -53.7017664714 Ry

     CASE: enthalpy          _new < enthalpy          _old

     new trust radius        =       0.0059641779 bohr
     new conv_thr            =       0.0000000100 Ry

     new unit-cell volume =    739.53996 a.u.^3 (   109.58852 Ang^3 )
     density =      0.72765 g/cm^3

CELL_PARAMETERS (alat=  4.74000000)
   1.000000000   0.000000000   0.000000000
  -0.500000000   0.866025404   0.000000000
   0.000000000   0.000000000   8.018552769

ATOMIC_POSITIONS (crystal)
B             0.0000000000        0.0000000000        0.0000000000    0   0   0
N             0.6666670000        0.3333330000        0.0000000000    0   0   0
B             0.0000000000        0.0000000000        0.1701119009
N             0.6666670000        0.3333330000        0.1701590326



     Writing config-only to output data dir ./tmp/BN2L_AA_PBE_vdW.save/
     NEW-OLD atomic charge density approx. for the potential

     negative rho (up, down):  1.799E-07 0.000E+00


     -----------------------------------------------
     Non-local corr. energy    =       0.20266465 Ry
     -----------------------------------------------

     extrapolated charge   16.01754, renormalised to   16.00000

     total cpu time spent up to now is       60.2 secs

     Self-consistent Calculation

     iteration #  1     ecut=   120.00 Ry     beta= 0.70
     Davidson diagonalization with overlap

---- Real-time Memory Report at c_bands before calling an iterative solver
             0 MiB given to the printing process from OS
             0 MiB allocation reported by mallinfo(arena+hblkhd)
             0 MiB available memory on the node where the printing process lives
------------------
     c_bands:  1 eigenvalues not converged
     ethr =  1.00E-06,  avg # of iterations =  9.1

     negative rho (up, down):  3.000E-08 0.000E+00


     -----------------------------------------------
     Non-local corr. energy    =       0.20225682 Ry
     -----------------------------------------------


     total cpu time spent up to now is       62.2 secs

     total energy              =     -53.70132156 Ry
     estimated scf accuracy    <       0.00035569 Ry

     iteration #  2     ecut=   120.00 Ry     beta= 0.70
     Davidson diagonalization with overlap

---- Real-time Memory Report at c_bands before calling an iterative solver
             0 MiB given to the printing process from OS
             0 MiB allocation reported by mallinfo(arena+hblkhd)
             0 MiB available memory on the node where the printing process lives
------------------
     c_bands:  1 eigenvalues not converged
     ethr =  2.22E-06,  avg # of iterations =  9.8

     negative rho (up, down):  2.036E-08 0.000E+00


     -----------------------------------------------
     Non-local corr. energy    =       0.20236385 Ry
     -----------------------------------------------


     total cpu time spent up to now is       64.3 secs

     total energy              =     -53.70170424 Ry
     estimated scf accuracy    <       0.00141134 Ry

     iteration #  3     ecut=   120.00 Ry     beta= 0.70
     Davidson diagonalization with overlap

---- Real-time Memory Report at c_bands before calling an iterative solver
             0 MiB given to the printing process from OS
             0 MiB allocation reported by mallinfo(arena+hblkhd)
             0 MiB available memory on the node where the printing process lives
------------------
     ethr =  2.22E-06,  avg # of iterations =  4.3

     negative rho (up, down):  1.648E-08 0.000E+00


     -----------------------------------------------
     Non-local corr. energy    =       0.20240554 Ry
     -----------------------------------------------


     total cpu time spent up to now is       65.8 secs

     total energy              =     -53.70180886 Ry
     estimated scf accuracy    <       0.00016258 Ry

     iteration #  4     ecut=   120.00 Ry     beta= 0.70
     Davidson diagonalization with overlap

---- Real-time Memory Report at c_bands before calling an iterative solver
             0 MiB given to the printing process from OS
             0 MiB allocation reported by mallinfo(arena+hblkhd)
             0 MiB available memory on the node where the printing process lives
------------------
     ethr =  1.02E-06,  avg # of iterations =  1.1


[...]
     estimated scf accuracy    <       0.00088024 Ry

     iteration #  6     ecut=   120.00 Ry     beta= 0.70
     Davidson diagonalization with overlap

---- Real-time Memory Report at c_bands before calling an iterative solver
             0 MiB given to the printing process from OS
             0 MiB allocation reported by mallinfo(arena+hblkhd)
             0 MiB available memory on the node where the printing process lives
------------------
     ethr =  5.50E-06,  avg # of iterations =  4.5


     -----------------------------------------------
     Non-local corr. energy    =       0.20393399 Ry
     -----------------------------------------------


     total cpu time spent up to now is      239.2 secs

     total energy              =     -53.70201715 Ry
     estimated scf accuracy    <       0.00005032 Ry

     iteration #  7     ecut=   120.00 Ry     beta= 0.70
     Davidson diagonalization with overlap

---- Real-time Memory Report at c_bands before calling an iterative solver
             0 MiB given to the printing process from OS
             0 MiB allocation reported by mallinfo(arena+hblkhd)
             0 MiB available memory on the node where the printing process lives
------------------
     ethr =  3.14E-07,  avg # of iterations =  3.2


     -----------------------------------------------
     Non-local corr. energy    =       0.20394408 Ry
     -----------------------------------------------


     total cpu time spent up to now is      240.5 secs

     total energy              =     -53.70201540 Ry
     estimated scf accuracy    <       0.00001726 Ry

     iteration #  8     ecut=   120.00 Ry     beta= 0.70
     Davidson diagonalization with overlap

---- Real-time Memory Report at c_bands before calling an iterative solver
             0 MiB given to the printing process from OS
             0 MiB allocation reported by mallinfo(arena+hblkhd)
             0 MiB available memory on the node where the printing process lives
------------------
     ethr =  1.08E-07,  avg # of iterations =  2.0


     -----------------------------------------------
     Non-local corr. energy    =       0.20394655 Ry
     -----------------------------------------------


     total cpu time spent up to now is      241.7 secs

     total energy              =     -53.70201753 Ry
     estimated scf accuracy    <       0.00000066 Ry

     iteration #  9     ecut=   120.00 Ry     beta= 0.70
     Davidson diagonalization with overlap

---- Real-time Memory Report at c_bands before calling an iterative solver
             0 MiB given to the printing process from OS
             0 MiB allocation reported by mallinfo(arena+hblkhd)
             0 MiB available memory on the node where the printing process lives
------------------
     ethr =  4.11E-09,  avg # of iterations =  3.5


     -----------------------------------------------
     Non-local corr. energy    =       0.20394744 Ry
     -----------------------------------------------


     total cpu time spent up to now is      243.2 secs

     total energy              =     -53.70201790 Ry
     estimated scf accuracy    <       0.00000002 Ry

     iteration # 10     ecut=   120.00 Ry     beta= 0.70
     Davidson diagonalization with overlap

---- Real-time Memory Report at c_bands before calling an iterative solver
             0 MiB given to the printing process from OS
             0 MiB allocation reported by mallinfo(arena+hblkhd)
             0 MiB available memory on the node where the printing process lives
------------------
     ethr =  9.65E-11,  avg # of iterations =  3.8


     -----------------------------------------------
     Non-local corr. energy    =       0.20394713 Ry
     -----------------------------------------------


     total cpu time spent up to now is      244.7 secs

     total energy              =     -53.70201790 Ry
     estimated scf accuracy    <       0.00000003 Ry

     iteration # 11     ecut=   120.00 Ry     beta= 0.70
     Davidson diagonalization with overlap

---- Real-time Memory Report at c_bands before calling an iterative solver
             0 MiB given to the printing process from OS
             0 MiB allocation reported by mallinfo(arena+hblkhd)
             0 MiB available memory on the node where the printing process lives
------------------
     ethr =  9.65E-11,  avg # of iterations =  1.2


     -----------------------------------------------
     Non-local corr. energy    =       0.20394808 Ry
     -----------------------------------------------


     total cpu time spent up to now is      245.8 secs

     End of self-consistent calculation

          k = 0.0000 0.0000 0.0000 ( 16907 PWs)   bands (ev):

   -20.2202 -20.1312  -8.1995  -7.4203  -3.9522  -3.9522  -3.9419  -3.9418
     1.8614   2.4408   3.5713   4.4162

     occupation numbers 
     1.0000   1.0000   1.0000   1.0000   1.0000   1.0000   1.0000   1.0000
     0.0000   0.0000   0.0000   0.0000

          k = 0.0000 0.0962 0.0000 ( 16931 PWs)   bands (ev):

   -20.0867 -19.9991  -8.0169  -7.2449  -4.5094  -4.4888  -4.2083  -4.1970
     2.0946   2.6556   3.7919   4.6106

     occupation numbers 
     1.0000   1.0000   1.0000   1.0000   1.0000   1.0000   1.0000   1.0000
     0.0000   0.0000   0.0000   0.0000

          k = 0.0000 0.1925 0.0000 ( 16894 PWs)   bands (ev):

   -19.6936 -19.6103  -7.4773  -6.7292  -5.9113  -5.8733  -4.8329  -4.8197
     2.7551   3.2811   4.4337   5.1188

     occupation numbers 
     1.0000   1.0000   1.0000   1.0000   1.0000   1.0000   1.0000   1.0000
     0.0000   0.0000   0.0000   0.0000

          k = 0.0000 0.2887 0.0000 ( 16890 PWs)   bands (ev):

   -19.0682 -18.9919  -7.6928  -7.6403  -6.6016  -5.8969  -5.5584  -5.5433
     3.7961   4.2472   5.1620   5.7138

     occupation numbers 
     1.0000   1.0000   1.0000   1.0000   1.0000   1.0000   1.0000   1.0000
     0.0000   0.0000   0.0000   0.0000

          k = 0.0000 0.3849 0.0000 ( 16896 PWs)   bands (ev):

   -18.2791 -18.2129  -9.4610  -9.3967  -6.1824  -6.1661  -5.4769  -4.8417
     4.1114   4.7103   5.1562   6.3196

     occupation numbers 
     1.0000   1.0000   1.0000   1.0000   1.0000   1.0000   1.0000   1.0000
     0.0000   0.0000   0.0000   0.0000

          k = 0.0000 0.4811 0.0000 ( 16920 PWs)   bands (ev):

   -17.5032 -17.4491 -10.8791 -10.8014  -6.5921  -6.5751  -4.3043  -3.7761
     2.5243   3.4225   6.5006   7.3488

     occupation numbers 
     1.0000   1.0000   1.0000   1.0000   1.0000   1.0000   1.0000   1.0000
     0.0000   0.0000   0.0000   0.0000

          k = 0.0000-0.5774 0.0000 ( 16906 PWs)   bands (ev):

   -17.1376 -17.0905 -11.4668 -11.3817  -6.7339  -6.7166  -3.7025  -3.2542
     1.7404   2.7328   6.9553   7.5208

     occupation numbers 
     1.0000   1.0000   1.0000   1.0000   1.0000   1.0000   1.0000   1.0000
     0.0000   0.0000   0.0000   0.0000

          k = 0.0833 0.1443 0.0000 ( 16925 PWs)   bands (ev):

   -19.8233 -19.7385  -7.6555  -6.8989  -5.4218  -5.3896  -4.7157  -4.7015
     2.5422   3.0765   4.2250   4.9665

     occupation numbers 
     1.0000   1.0000   1.0000   1.0000   1.0000   1.0000   1.0000   1.0000
     0.0000   0.0000   0.0000   0.0000

          k = 0.0833 0.2406 0.0000 ( 16877 PWs)   bands (ev):

   -19.3127 -19.2336  -6.9871  -6.8633  -6.8614  -6.2190  -5.5021  -5.4833
     3.4003   3.8834   5.0151   5.4909

     occupation numbers 
     1.0000   1.0000   1.0000   1.0000   1.0000   1.0000   1.0000   1.0000
     0.0000   0.0000   0.0000   0.0000

          k = 0.0833 0.3368 0.0000 ( 16879 PWs)   bands (ev):

   -18.5990 -18.5285  -8.6123  -8.5556  -6.2478  -6.2253  -5.9387  -5.2719
     4.6287   4.7764   4.8195   6.3525

     occupation numbers 
     1.0000   1.0000   1.0000   1.0000   1.0000   1.0000   1.0000   1.0000
     0.0000   0.0000   0.0000   0.0000

          k = 0.0833 0.4330 0.0000 ( 16880 PWs)   bands (ev):

   -17.7927 -17.7334 -10.1943 -10.1249  -6.7972  -6.7735  -4.7575  -4.1795
     3.2758   4.0707   6.1290   7.0631

     occupation numbers 
     1.0000   1.0000   1.0000   1.0000   1.0000   1.0000   1.0000   1.0000
     0.0000   0.0000   0.0000   0.0000

          k = 0.0833 0.5292 0.0000 ( 16897 PWs)   bands (ev):

   -17.1694 -17.1210 -11.2353 -11.1543  -7.0857  -7.0613  -3.7680  -3.3027
     1.9832   2.9264   7.3108   8.0345

     occupation numbers 
     1.0000   1.0000   1.0000   1.0000   1.0000   1.0000   1.0000   1.0000
     0.0000   0.0000   0.0000   0.0000

          k = 0.1667 0.2887 0.0000 ( 16868 PWs)   bands (ev):

   -18.7098 -18.6377  -8.1110  -8.0598  -6.5174  -6.4878  -6.0969  -5.4200
     4.4608   4.7476   5.0210   6.4846

     occupation numbers 
     1.0000   1.0000   1.0000   1.0000   1.0000   1.0000   1.0000   1.0000
     0.0000   0.0000   0.0000   0.0000

          k = 0.1667 0.3849 0.0000 ( 16866 PWs)   bands (ev):

   -17.9570 -17.8948  -9.4574  -9.3980  -7.3810  -7.3444  -5.0098  -4.4060
     3.8652   4.5425   5.8914   6.7953

     occupation numbers 
     1.0000   1.0000   1.0000   1.0000   1.0000   1.0000   1.0000   1.0000
     0.0000   0.0000   0.0000   0.0000

          k = 0.1667 0.4811 0.0000 ( 16887 PWs)   bands (ev):

   -17.2303 -17.1795 -10.6424 -10.5717  -7.9011  -7.8610  -3.8899  -3.3949
     2.5057   3.3372   7.5626   8.3993

     occupation numbers 
     1.0000   1.0000   1.0000   1.0000   1.0000   1.0000   1.0000   1.0000
     0.0000   0.0000   0.0000   0.0000

          k = 0.1667 0.5774 0.0000 ( 16920 PWs)   bands (ev):

   -16.8954 -16.8510 -11.1475 -11.0704  -8.0724  -8.0312  -3.3236  -2.9067
     1.8306   2.7430   8.6037   9.4650

     occupation numbers 
     1.0000   1.0000   1.0000   1.0000   1.0000   1.0000   1.0000   1.0000
     0.0000   0.0000   0.0000   0.0000

          k = 0.2500 0.4330 0.0000 ( 16828 PWs)   bands (ev):

   -17.2596 -17.2076 -10.1819 -10.1206  -8.4650  -8.4132  -3.9469  -3.4388
     2.7939   3.5582   7.5053   8.2526

     occupation numbers 
     1.0000   1.0000   1.0000   1.0000   1.0000   1.0000   1.0000   1.0000
     0.0000   0.0000   0.0000   0.0000

          k = 0.2500 0.5292 0.0000 ( 16887 PWs)   bands (ev):

   -16.7521 -16.7090 -10.6951 -10.6304  -9.0734  -9.0127  -3.0976  -2.6972
     1.9420   2.7789   9.1716   9.2914

     occupation numbers 
     1.0000   1.0000   1.0000   1.0000   1.0000   1.0000   1.0000   1.0000
     0.0000   0.0000   0.0000   0.0000

          k = 0.3333 0.5774 0.0000 ( 16896 PWs)   bands (ev):

   -16.5589 -16.5190 -10.4765 -10.4291  -9.7579  -9.6744  -2.7525  -2.4012
     1.7209   2.5609   8.8190  10.1460

     occupation numbers 
     1.0000   1.0000   1.0000   1.0000   1.0000   1.0000   1.0000   1.0000
     0.0000   0.0000   0.0000   0.0000

     the Fermi energy is    -1.0713 ev

!    total energy              =     -53.70201790 Ry
     estimated scf accuracy    <          6.2E-09 Ry
     smearing contrib. (-TS)   =       0.00000000 Ry
     internal energy E=F+TS    =     -53.70201790 Ry

     The total energy is F=E-TS. E is the sum of the following terms:
     one-electron contribution =    -538.15249084 Ry
     hartree contribution      =     273.18483599 Ry
     xc contribution           =     -17.38441780 Ry
     ewald contribution        =     228.65005475 Ry

     convergence has been achieved in  11 iterations


     -----------------------------------------------
     Non-local corr. energy    =       0.20394808 Ry
     -----------------------------------------------


     Forces acting on atoms (cartesian axes, Ry/au):

     atom    1 type  1   force =     0.00000000    0.00000000    0.00029693
     atom    2 type  2   force =     0.00000000    0.00000000   -0.00036183
     atom    3 type  1   force =     0.00000000    0.00000000    0.00011017
     atom    4 type  2   force =     0.00000000    0.00000000   -0.00004527
     The non-local contrib.  to forces
     atom    1 type  1   force =     0.00000000   -0.00000000   -0.00067111
     atom    2 type  2   force =     0.00000000    0.00000000   -0.00170750
     atom    3 type  1   force =     0.00000000   -0.00000000    0.00060607
     atom    4 type  2   force =     0.00000000    0.00000000   -0.00040276
     The ionic contribution  to forces
     atom    1 type  1   force =     0.00000773   -0.00000446  -10.17000474
     atom    2 type  2   force =    -0.00000773    0.00000446  -16.95197338
     atom    3 type  1   force =     0.00000773   -0.00000446   10.16229240
     atom    4 type  2   force =    -0.00000773    0.00000446   16.95968572
     The local contribution  to forces
     atom    1 type  1   force =     0.00000000    0.00000000   10.17096102
     atom    2 type  2   force =    -0.00003348    0.00001933   16.95328180
     atom    3 type  1   force =     0.00000000    0.00000000  -10.16279936
     atom    4 type  2   force =    -0.00003348    0.00001933  -16.95935450
     The core correction contribution to forces
     atom    1 type  1   force =     0.00000000   -0.00000000    0.00000549
     atom    2 type  2   force =     0.00000139   -0.00000080    0.00002273
     atom    3 type  1   force =     0.00000000   -0.00000000    0.00001239
     atom    4 type  2   force =     0.00000139   -0.00000080    0.00003142
     The Hubbard contrib.    to forces
     atom    1 type  1   force =     0.00000000    0.00000000    0.00000000
     atom    2 type  2   force =     0.00000000    0.00000000    0.00000000
     atom    3 type  1   force =     0.00000000    0.00000000    0.00000000
     atom    4 type  2   force =     0.00000000    0.00000000    0.00000000
     The SCF correction term to forces
     atom    1 type  1   force =    -0.00000000    0.00000000    0.00000000
     atom    2 type  2   force =     0.00000000   -0.00000000    0.00000000
     atom    3 type  1   force =     0.00000000   -0.00000000   -0.00000196
     atom    4 type  2   force =     0.00000000   -0.00000000   -0.00000579

     Total force =     0.000119     Total SCF correction =     0.000006


     Computing stress (Cartesian axis) and pressure



     -----------------------------------------------
     Non-local corr. energy    =       0.20394808 Ry
     -----------------------------------------------

          total   stress  (Ry/bohr**3)                   (kbar)     P=        3.61
   0.00003655   0.00000000   0.00000000            5.38        0.00        0.00
   0.00000000   0.00003655  -0.00000000            0.00        5.38       -0.00
   0.00000000  -0.00000000   0.00000059            0.00       -0.00        0.09

     kinetic stress (kbar)   4682.87      0.00      0.00
                                0.00   4682.87      0.00
                                0.00      0.00   5093.88

     local   stress (kbar)-106863.78      0.00      0.00
                                0.00-106863.77     -0.00
                                0.00     -0.00 107525.47

     nonloc. stress (kbar)   -773.06     -0.00      0.00
                               -0.00   -773.06     -0.00
                                0.00     -0.00   -746.04

     hartree stress (kbar)  52011.07     -0.00     -0.00
                               -0.00  52011.07      0.00
                               -0.00      0.00 -51200.61

     exc-cor stress (kbar)   -470.33     -0.00     -0.00
                               -0.00   -470.33      0.00
                               -0.00      0.00   -517.01

     corecor stress (kbar)   -525.37      0.00      0.00
                                0.00   -525.37     -0.00
                                0.00     -0.00   -513.89

     ewald   stress (kbar)  51939.78     -0.01     -0.00
                               -0.01  51939.77      0.00
                               -0.00      0.00 -59669.03

     hubbard stress (kbar)      0.00      0.00      0.00
                                0.00      0.00      0.00
                                0.00      0.00      0.00

     DFT-D   stress (kbar)      0.00      0.00      0.00
                                0.00      0.00      0.00
                                0.00      0.00      0.00

     XDM     stress (kbar)      0.00      0.00      0.00
                                0.00      0.00      0.00
                                0.00      0.00      0.00

     dft-nl  stress (kbar)      4.19      0.00      0.00
                                0.00      4.19     -0.00
                                0.00     -0.00     27.32

     TS-vdW  stress (kbar)      0.00      0.00      0.00
                                0.00      0.00      0.00
                                0.00      0.00      0.00

     MDB     stress (kbar)      0.00      0.00      0.00
                                0.00      0.00      0.00
                                0.00      0.00      0.00

     3D-RISM stress (kbar)      0.00      0.00      0.00
                                0.00      0.00      0.00
                                0.00      0.00      0.00


     Writing all to output data dir ./tmp/BN2L_AA_PBE_vdW.save/

     init_run     :     12.53s CPU     12.63s WALL (       2 calls)
     electrons    :    184.32s CPU    179.75s WALL (      11 calls)
     update_pot   :     14.50s CPU     14.73s WALL (       9 calls)
     forces       :     11.40s CPU     11.68s WALL (      11 calls)
     stress       :     29.20s CPU     30.98s WALL (      11 calls)

     Called by init_run:
     wfcinit      :      0.86s CPU      0.85s WALL (       2 calls)
     wfcinit:atom :      0.02s CPU      0.02s WALL (      38 calls)
     wfcinit:wfcr :      0.77s CPU      0.76s WALL (      38 calls)
     potinit      :      9.26s CPU      9.33s WALL (       2 calls)
     hinit0       :      1.93s CPU      1.95s WALL (       2 calls)

     Called by electrons:
     c_bands      :    147.93s CPU    140.80s WALL (     116 calls)
     sum_band     :     16.13s CPU     16.49s WALL (     116 calls)
     v_of_rho     :     29.15s CPU     31.26s WALL (     127 calls)
     v_h          :      0.24s CPU      0.25s WALL (     127 calls)
     v_xc         :     32.44s CPU     34.89s WALL (     149 calls)
     mix_rho      :      0.81s CPU      1.05s WALL (     116 calls)
     vdW_kernel   :      8.22s CPU      8.25s WALL (       1 calls)

     Called by c_bands:
     init_us_2    :      3.14s CPU      3.18s WALL (    4864 calls)
     init_us_2:cp :      3.13s CPU      3.16s WALL (    4864 calls)
     cegterg      :    143.32s CPU    136.04s WALL (    2204 calls)

     Called by sum_band:
     sum_band:wei :      0.00s CPU      0.00s WALL (     116 calls)
     sum_band:loo :     15.65s CPU     15.99s WALL (     116 calls)
     sum_band:buf :      0.55s CPU      0.56s WALL (    2204 calls)
     sum_band:ini :      1.51s CPU      1.54s WALL (    2204 calls)

     Called by *egterg:
     cdiaghg      :      2.52s CPU      2.57s WALL (   13004 calls)
     cegterg:over :      8.27s CPU      8.50s WALL (   10971 calls)
     cegterg:upda :      7.04s CPU      5.52s WALL (   10971 calls)
     cegterg:last :      9.24s CPU      6.04s WALL (    6032 calls)
     h_psi        :    112.57s CPU    109.24s WALL (   13213 calls)
     g_psi        :      0.78s CPU      0.96s WALL (   10971 calls)

     Called by h_psi:
     h_psi:calbec :     10.35s CPU      9.31s WALL (   13213 calls)
     vloc_psi     :     89.00s CPU     90.94s WALL (   13213 calls)
     add_vuspsi   :     12.12s CPU      7.82s WALL (   13213 calls)

     General routines
     calbec       :     11.44s CPU     10.39s WALL (   14258 calls)
     fft          :     10.19s CPU     10.44s WALL (    9477 calls)
     ffts         :      0.13s CPU      0.13s WALL (     116 calls)
     fftw         :     86.61s CPU     88.26s WALL (  197966 calls)

     Parallel routines

     PWSCF        :   4m12.14s CPU   4m 9.99s WALL


   This run was terminated on:  13:52: 5   8Apr2024            

=------------------------------------------------------------------------------=
   JOB DONE.
=------------------------------------------------------------------------------=
