
     Program PWSCF v.7.2 starts on  5Apr2024 at 10:35:14 

     This program is part of the open-source Quantum ESPRESSO suite
     for quantum simulation of materials; please cite
         "P. Giannozzi et al., J. Phys.:Condens. Matter 21 395502 (2009);
         "P. Giannozzi et al., J. Phys.:Condens. Matter 29 465901 (2017);
         "P. Giannozzi et al., J. Chem. Phys. 152 154105 (2020);
          URL http://www.quantum-espresso.org", 
     in publications or presentations arising from this work. More details at
     http://www.quantum-espresso.org/quote

     Parallel version (MPI & OpenMP), running on       1 processor cores
     Number of MPI processes:                 1
     Threads/MPI process:                     1

     MPI processes distributed on     1 nodes
     0 MiB available memory on the printing compute node when the environment starts

     Waiting for input...
     Reading input from standard input

     Current dimensions of program PWSCF are:
     Max number of different atomic species (ntypx) = 10
     Max number of k-points (npk) =  40000
     Max angular momentum in pseudopotentials (lmaxx) =  4

     IMPORTANT: XC functional enforced from input :
     Exchange-correlation= VDW-DF2-B86R
                           (   1   4  26   0   2   0   0)
     Any further DFT definition will be discarded
     Please, verify this is what you really want


     Subspace diagonalization in iterative solution of the eigenvalue problem:
     a serial algorithm will be used


     G-vector sticks info
     --------------------
     sticks:   dense  smooth     PW     G-vecs:    dense   smooth      PW
     Sum         703     703    199                91471    91471   14295

     Using Slab Decomposition



     bravais-lattice index     =            4
     lattice parameter (alat)  =       4.6350  a.u.
     unit-cell volume          =     517.4056 (a.u.)^3
     number of atoms/cell      =            2
     number of atomic types    =            2
     number of electrons       =         8.00
     number of Kohn-Sham states=            8
     kinetic-energy cutoff     =     120.0000  Ry
     charge density cutoff     =     480.0000  Ry
     scf convergence threshold =      1.0E-06
     mixing beta               =       0.7000
     number of iterations used =            8  plain     mixing
     energy convergence thresh.=      1.0E-04
     force convergence thresh. =      1.0E-03
     press convergence thresh. =      5.0E-01
     Exchange-correlation= VDW-DF2-B86R
                           (   1   4  26   0   2   0   0)
     nstep                     =           50


     celldm(1)=   4.635000  celldm(2)=   0.000000  celldm(3)=   6.000000
     celldm(4)=   0.000000  celldm(5)=   0.000000  celldm(6)=   0.000000

     crystal axes: (cart. coord. in units of alat)
               a(1) = (   1.000000   0.000000   0.000000 )  
               a(2) = (  -0.500000   0.866025   0.000000 )  
               a(3) = (   0.000000   0.000000   6.000000 )  

     reciprocal axes: (cart. coord. in units 2 pi/alat)
               b(1) = (  1.000000  0.577350 -0.000000 )  
               b(2) = (  0.000000  1.154701  0.000000 )  
               b(3) = (  0.000000 -0.000000  0.166667 )  


     PseudoPot. # 1 for N  read from file:
     ../../../Pseudo/LDA/N.upf
     MD5 check sum: eaa4f6f5012208d670216a7009287cf2
     Pseudo is Norm-conserving + core correction, Zval =  5.0
     Generated using ONCVPSP code by D. R. Hamann
     Using radial grid of 1054 points,  4 beta functions with: 
                l(1) =   0
                l(2) =   0
                l(3) =   1
                l(4) =   1

     PseudoPot. # 2 for B  read from file:
     ../../../Pseudo/LDA/B.upf
     MD5 check sum: 3e2a19024e57b4f161828f4b68a773bc
     Pseudo is Norm-conserving + core correction, Zval =  3.0
     Generated using ONCVPSP code by D. R. Hamann
     Using radial grid of 1508 points,  4 beta functions with: 
                l(1) =   0
                l(2) =   0
                l(3) =   1
                l(4) =   1

     atomic species   valence    mass     pseudopotential
        N              5.00    14.00670     N ( 1.00)
        B              3.00    10.80100     B ( 1.00)

     12 Sym. Ops. (no inversion) found


                                    s                        frac. trans.

      isym =  1     identity                                     

 cryst.   s( 1) = (     1          0          0      )
                  (     0          1          0      )
                  (     0          0          1      )

 cart.    s( 1) = (  1.0000000  0.0000000  0.0000000 )
                  (  0.0000000  1.0000000  0.0000000 )
                  (  0.0000000  0.0000000  1.0000000 )


      isym =  2     180 deg rotation - cart. axis [0,1,0]        

 cryst.   s( 2) = (    -1          0          0      )
                  (     1          1          0      )
                  (     0          0         -1      )

 cart.    s( 2) = ( -1.0000000  0.0000000  0.0000000 )
                  (  0.0000000  1.0000000  0.0000000 )
                  (  0.0000000  0.0000000 -1.0000000 )


      isym =  3     120 deg rotation - cryst. axis [0,0,1]       

 cryst.   s( 3) = (     0          1          0      )
                  (    -1         -1          0      )
                  (     0          0          1      )

 cart.    s( 3) = ( -0.5000000 -0.8660254  0.0000000 )
                  (  0.8660254 -0.5000000  0.0000000 )
                  (  0.0000000  0.0000000  1.0000000 )


      isym =  4     120 deg rotation - cryst. axis [0,0,-1]      

 cryst.   s( 4) = (    -1         -1          0      )
                  (     1          0          0      )
                  (     0          0          1      )

 cart.    s( 4) = ( -0.5000000  0.8660254  0.0000000 )
                  ( -0.8660254 -0.5000000  0.0000000 )
                  (  0.0000000  0.0000000  1.0000000 )


      isym =  5     180 deg rotation - cryst. axis [1,-1,0]      

 cryst.   s( 5) = (     0         -1          0      )
                  (    -1          0          0      )
                  (     0          0         -1      )

 cart.    s( 5) = (  0.5000000 -0.8660254  0.0000000 )
                  ( -0.8660254 -0.5000000  0.0000000 )
                  (  0.0000000  0.0000000 -1.0000000 )


      isym =  6     180 deg rotation - cryst. axis [2,1,0]       

 cryst.   s( 6) = (     1          1          0      )
                  (     0         -1          0      )
                  (     0          0         -1      )

 cart.    s( 6) = (  0.5000000  0.8660254  0.0000000 )
                  (  0.8660254 -0.5000000  0.0000000 )
                  (  0.0000000  0.0000000 -1.0000000 )


      isym =  7     inv. 180 deg rotation - cart. axis [0,0,1]   

 cryst.   s( 7) = (     1          0          0      )
                  (     0          1          0      )
                  (     0          0         -1      )

 cart.    s( 7) = (  1.0000000  0.0000000  0.0000000 )
                  (  0.0000000  1.0000000  0.0000000 )
                  (  0.0000000  0.0000000 -1.0000000 )


      isym =  8     inv. 180 deg rotation - cart. axis [1,0,0]   

 cryst.   s( 8) = (    -1          0          0      )
                  (     1          1          0      )
                  (     0          0          1      )

 cart.    s( 8) = ( -1.0000000  0.0000000  0.0000000 )
                  (  0.0000000  1.0000000  0.0000000 )
                  (  0.0000000  0.0000000  1.0000000 )


      isym =  9     inv.  60 deg rotation - cryst. axis [0,0,1]  

 cryst.   s( 9) = (    -1         -1          0      )
                  (     1          0          0      )
                  (     0          0         -1      )

 cart.    s( 9) = ( -0.5000000  0.8660254  0.0000000 )
                  ( -0.8660254 -0.5000000  0.0000000 )
                  (  0.0000000  0.0000000 -1.0000000 )


      isym = 10     inv.  60 deg rotation - cryst. axis [0,0,-1] 

 cryst.   s(10) = (     0          1          0      )
                  (    -1         -1          0      )
                  (     0          0         -1      )

 cart.    s(10) = ( -0.5000000 -0.8660254  0.0000000 )
                  (  0.8660254 -0.5000000  0.0000000 )
                  (  0.0000000  0.0000000 -1.0000000 )


      isym = 11     inv. 180 deg rotation - cryst. axis [0,1,0]  

 cryst.   s(11) = (     1          1          0      )
                  (     0         -1          0      )
                  (     0          0          1      )

 cart.    s(11) = (  0.5000000  0.8660254  0.0000000 )
                  (  0.8660254 -0.5000000  0.0000000 )
                  (  0.0000000  0.0000000  1.0000000 )


      isym = 12     inv. 180 deg rotation - cryst. axis [1,1,0]  

 cryst.   s(12) = (     0         -1          0      )
                  (    -1          0          0      )
                  (     0          0          1      )

 cart.    s(12) = (  0.5000000 -0.8660254  0.0000000 )
                  ( -0.8660254 -0.5000000  0.0000000 )
                  (  0.0000000  0.0000000  1.0000000 )


     point group D_3h (-62m)
     there are  6 classes
     the character table:

       E     2C3   3C2   s_h   2S3   3s_v 
A'_1   1.00  1.00  1.00  1.00  1.00  1.00
A'_2   1.00  1.00 -1.00  1.00  1.00 -1.00
E'     2.00 -1.00  0.00  2.00 -1.00  0.00
A''1   1.00  1.00  1.00 -1.00 -1.00 -1.00
A''2   1.00  1.00 -1.00 -1.00 -1.00  1.00
E''    2.00 -1.00  0.00 -2.00  1.00  0.00

     the symmetry operations in each class and the name of the first element:

     E        1
          identity                                               
     2C3      3    4
          120 deg rotation - cryst. axis [0,0,1]                 
     3C2      2    6    5
          180 deg rotation - cart. axis [0,1,0]                  
     s_h      7
          inv. 180 deg rotation - cart. axis [0,0,1]             
     2S3      9   10
          inv.  60 deg rotation - cryst. axis [0,0,1]            
     3s_v     8   11   12
          inv. 180 deg rotation - cart. axis [1,0,0]             

   Cartesian axes

     site n.     atom                  positions (alat units)
         1           B   tau(   1) = (   0.0000000   0.0000000   0.0000000  )
         2           N   tau(   2) = (  -0.0000000   0.5773503   0.0000000  )

   Crystallographic axes

     site n.     atom                  positions (cryst. coord.)
         1           B   tau(   1) = (  0.0000000  0.0000000  0.0000000  )
         2           N   tau(   2) = (  0.3333333  0.6666667  0.0000000  )

     number of k points=    30  Marzari-Vanderbilt smearing, width (Ry)=  0.0050
                       cart. coord. in units 2pi/alat
        k(    1) = (   0.0000000   0.0000000   0.0000000), wk =   0.0078125
        k(    2) = (   0.0000000   0.0721688   0.0000000), wk =   0.0468750
        k(    3) = (   0.0000000   0.1443376   0.0000000), wk =   0.0468750
        k(    4) = (   0.0000000   0.2165064   0.0000000), wk =   0.0468750
        k(    5) = (   0.0000000   0.2886751   0.0000000), wk =   0.0468750
        k(    6) = (   0.0000000   0.3608439   0.0000000), wk =   0.0468750
        k(    7) = (   0.0000000   0.4330127   0.0000000), wk =   0.0468750
        k(    8) = (   0.0000000   0.5051815   0.0000000), wk =   0.0468750
        k(    9) = (   0.0000000  -0.5773503   0.0000000), wk =   0.0234375
        k(   10) = (   0.0625000   0.1082532   0.0000000), wk =   0.0468750
        k(   11) = (   0.0625000   0.1804220   0.0000000), wk =   0.0937500
        k(   12) = (   0.0625000   0.2525907   0.0000000), wk =   0.0937500
        k(   13) = (   0.0625000   0.3247595   0.0000000), wk =   0.0937500
        k(   14) = (   0.0625000   0.3969283   0.0000000), wk =   0.0937500
        k(   15) = (   0.0625000   0.4690971   0.0000000), wk =   0.0937500
        k(   16) = (   0.0625000   0.5412659   0.0000000), wk =   0.0937500
        k(   17) = (   0.1250000   0.2165064   0.0000000), wk =   0.0468750
        k(   18) = (   0.1250000   0.2886751   0.0000000), wk =   0.0937500
        k(   19) = (   0.1250000   0.3608439   0.0000000), wk =   0.0937500
        k(   20) = (   0.1250000   0.4330127   0.0000000), wk =   0.0937500
        k(   21) = (   0.1250000   0.5051815   0.0000000), wk =   0.0937500
        k(   22) = (   0.1250000   0.5773503   0.0000000), wk =   0.0468750
        k(   23) = (   0.1875000   0.3247595   0.0000000), wk =   0.0468750
        k(   24) = (   0.1875000   0.3969283   0.0000000), wk =   0.0937500
        k(   25) = (   0.1875000   0.4690971   0.0000000), wk =   0.0937500
        k(   26) = (   0.1875000   0.5412659   0.0000000), wk =   0.0937500
        k(   27) = (   0.2500000   0.4330127   0.0000000), wk =   0.0468750
        k(   28) = (   0.2500000   0.5051815   0.0000000), wk =   0.0937500
        k(   29) = (   0.2500000   0.5773503   0.0000000), wk =   0.0468750
        k(   30) = (   0.3125000   0.5412659   0.0000000), wk =   0.0468750

                       cryst. coord.
        k(    1) = (   0.0000000   0.0000000   0.0000000), wk =   0.0078125
        k(    2) = (   0.0000000   0.0625000   0.0000000), wk =   0.0468750
        k(    3) = (   0.0000000   0.1250000   0.0000000), wk =   0.0468750
        k(    4) = (   0.0000000   0.1875000   0.0000000), wk =   0.0468750
        k(    5) = (   0.0000000   0.2500000   0.0000000), wk =   0.0468750
        k(    6) = (   0.0000000   0.3125000   0.0000000), wk =   0.0468750
        k(    7) = (   0.0000000   0.3750000   0.0000000), wk =   0.0468750
        k(    8) = (   0.0000000   0.4375000   0.0000000), wk =   0.0468750
        k(    9) = (   0.0000000  -0.5000000   0.0000000), wk =   0.0234375
        k(   10) = (   0.0625000   0.0625000   0.0000000), wk =   0.0468750
        k(   11) = (   0.0625000   0.1250000   0.0000000), wk =   0.0937500
        k(   12) = (   0.0625000   0.1875000   0.0000000), wk =   0.0937500
        k(   13) = (   0.0625000   0.2500000   0.0000000), wk =   0.0937500
        k(   14) = (   0.0625000   0.3125000   0.0000000), wk =   0.0937500
        k(   15) = (   0.0625000   0.3750000   0.0000000), wk =   0.0937500
        k(   16) = (   0.0625000   0.4375000   0.0000000), wk =   0.0937500
        k(   17) = (   0.1250000   0.1250000   0.0000000), wk =   0.0468750
        k(   18) = (   0.1250000   0.1875000   0.0000000), wk =   0.0937500
        k(   19) = (   0.1250000   0.2500000   0.0000000), wk =   0.0937500
        k(   20) = (   0.1250000   0.3125000   0.0000000), wk =   0.0937500
        k(   21) = (   0.1250000   0.3750000   0.0000000), wk =   0.0937500
        k(   22) = (   0.1250000   0.4375000   0.0000000), wk =   0.0468750
        k(   23) = (   0.1875000   0.1875000   0.0000000), wk =   0.0468750
        k(   24) = (   0.1875000   0.2500000   0.0000000), wk =   0.0937500
        k(   25) = (   0.1875000   0.3125000   0.0000000), wk =   0.0937500
        k(   26) = (   0.1875000   0.3750000   0.0000000), wk =   0.0937500
        k(   27) = (   0.2500000   0.2500000   0.0000000), wk =   0.0468750
        k(   28) = (   0.2500000   0.3125000   0.0000000), wk =   0.0937500
        k(   29) = (   0.2500000   0.3750000   0.0000000), wk =   0.0468750
        k(   30) = (   0.3125000   0.3125000   0.0000000), wk =   0.0468750

     Dense  grid:    91471 G-vectors     FFT dimensions: (  36,  36, 200)

     Dynamical RAM for                 wfc:       1.40 MB

     Dynamical RAM for     wfc (w. buffer):      43.47 MB

     Dynamical RAM for           str. fact:       2.79 MB

     Dynamical RAM for           local pot:       0.00 MB

     Dynamical RAM for          nlocal pot:       2.80 MB

     Dynamical RAM for                qrad:       2.01 MB

     Dynamical RAM for          rho,v,vnew:      10.12 MB

     Dynamical RAM for               rhoin:       3.37 MB

     Dynamical RAM for            rho*nmix:      22.33 MB

     Dynamical RAM for           G-vectors:       5.93 MB

     Dynamical RAM for          h,s,v(r/c):       0.01 MB

     Dynamical RAM for          <psi|beta>:       0.00 MB

     Dynamical RAM for                 psi:       2.80 MB

     Dynamical RAM for                hpsi:       2.80 MB

     Dynamical RAM for      wfcinit/wfcrot:       2.81 MB

     Estimated static dynamical RAM per process >      84.57 MB

     Estimated max dynamical RAM per process >     112.52 MB

     Initial potential from superposition of free atoms

     starting charge       7.9998, renormalised to       8.0000

     negative rho (up, down):  2.865E-06 0.000E+00


     %%%%%%%%%%%%%%%%%%%%%%%%%%%%%%%%%%%%%%%%%%%%%%%%%%%%%%%%%%%%%%%%%%%%%%%%
     %                                                                      %
     % You are using vdW-DF, which was implemented by the Thonhauser group. %
     % Please cite the following two papers that made this development      %
     % possible and the two reviews that describe the various versions:     %
     %                                                                      %
     %   T. Thonhauser et al., PRL 115, 136402 (2015).                      %
     %   T. Thonhauser et al., PRB 76, 125112 (2007).                       %
     %   K. Berland et al., Rep. Prog. Phys. 78, 066501 (2015).             %
     %   D.C. Langreth et al., J. Phys.: Condens. Matter 21, 084203 (2009). %
     %                                                                      %
     % If you are calculating stress with vdW-DF, please also cite:         %
     %                                                                      %
     %   R. Sabatini et al., J. Phys.: Condens. Matter 24, 424209 (2012).   %
     %                                                                      %
     %%%%%%%%%%%%%%%%%%%%%%%%%%%%%%%%%%%%%%%%%%%%%%%%%%%%%%%%%%%%%%%%%%%%%%%%

     %%%%%%%%%%%%%%%%%%%%%%%%%%%%%%%%%%%%%%%%%%%%%%%%%%%%%%%%%%%%%%%%%%%%%%%%
     %                                                                      %
     %  vdW-DF NEWS:                                                        %
     %                                                                      %
     %  * vdW-DF3 is now available. DOI: 10.1021/acs.jctc.0c00471           %
     %    use with input_dft = 'vdW-DF3-opt1' or 'vdW-DF3-opt2'             %
     %                                                                      %
     %  * Unscreened and range-separated hybrid vdW-DF-cx functionals       %
     %    DOI: 10.1063/1.4986522 and 10.1088/1361-648X/ac2ad2               %
     %    use with input_dft = 'vdW-DF-cx0'    and 'vdW-DF-ahcx'            %
     %  * Unscreened and range-separated hybrid vdW-DF2-b86r functionals    %
     %    DOI: 10.1063/1.4986522 and DOI: 10.1103/PhysRevX.12.041003        %
     %    use with input_dft = 'vdW-DF2-br0' and 'vdW-DF2-ahbr'             %
     %                                                                      %
     %%%%%%%%%%%%%%%%%%%%%%%%%%%%%%%%%%%%%%%%%%%%%%%%%%%%%%%%%%%%%%%%%%%%%%%%


     Carrying out vdW-DF run using the following parameters:
     Nqs    =  20  Npoints =  1024  r_max =  100.000
     q_mesh =  0.00001000  0.04494208  0.09755937  0.15916263
               0.23128650  0.31572767  0.41458969  0.53033537
               0.66584808  0.82450364  1.01025438  1.22772762
               1.48234092  1.78043706  2.12944203  2.53805004
               3.01644009  3.57652955  4.23227104  5.00000000


     -----------------------------------------------
     Non-local corr. energy    =       0.09447236 Ry
     -----------------------------------------------

     Starting wfcs are    8 randomized atomic wfcs

     total cpu time spent up to now is       62.6 secs

     Self-consistent Calculation

     iteration #  1     ecut=   120.00 Ry     beta= 0.70
     Davidson diagonalization with overlap

---- Real-time Memory Report at c_bands before calling an iterative solver
             0 MiB given to the printing process from OS
             0 MiB allocation reported by mallinfo(arena+hblkhd)
             0 MiB available memory on the node where the printing process lives
------------------
     ethr =  1.00E-02,  avg # of iterations =  7.8


     -----------------------------------------------
     Non-local corr. energy    =       0.10865000 Ry
     -----------------------------------------------


     total cpu time spent up to now is       67.7 secs

     total energy              =     -26.78770478 Ry
     estimated scf accuracy    <       0.47857858 Ry

     iteration #  2     ecut=   120.00 Ry     beta= 0.70
     Davidson diagonalization with overlap

---- Real-time Memory Report at c_bands before calling an iterative solver
             0 MiB given to the printing process from OS
             0 MiB allocation reported by mallinfo(arena+hblkhd)
             0 MiB available memory on the node where the printing process lives
------------------
     ethr =  5.98E-03,  avg # of iterations =  3.7


     -----------------------------------------------
     Non-local corr. energy    =       0.10556999 Ry
     -----------------------------------------------


     total cpu time spent up to now is       71.4 secs

     total energy              =     -26.90251004 Ry
     estimated scf accuracy    <       0.19671369 Ry

     iteration #  3     ecut=   120.00 Ry     beta= 0.70
     Davidson diagonalization with overlap

---- Real-time Memory Report at c_bands before calling an iterative solver
             0 MiB given to the printing process from OS
             0 MiB allocation reported by mallinfo(arena+hblkhd)
             0 MiB available memory on the node where the printing process lives
------------------
     ethr =  2.46E-03,  avg # of iterations =  3.1


     -----------------------------------------------
     Non-local corr. energy    =       0.10655108 Ry
     -----------------------------------------------


     total cpu time spent up to now is       74.8 secs

     total energy              =     -26.93991293 Ry
     estimated scf accuracy    <       0.00185606 Ry

     iteration #  4     ecut=   120.00 Ry     beta= 0.70
     Davidson diagonalization with overlap

---- Real-time Memory Report at c_bands before calling an iterative solver
             0 MiB given to the printing process from OS
             0 MiB allocation reported by mallinfo(arena+hblkhd)
             0 MiB available memory on the node where the printing process lives
------------------
     ethr =  2.32E-05,  avg # of iterations =  9.7


     -----------------------------------------------
     Non-local corr. energy    =       0.10651563 Ry
     -----------------------------------------------


     total cpu time spent up to now is       80.7 secs

     total energy              =     -26.94148304 Ry
     estimated scf accuracy    <       0.00120929 Ry

     iteration #  5     ecut=   120.00 Ry     beta= 0.70
     Davidson diagonalization with overlap

---- Real-time Memory Report at c_bands before calling an iterative solver
             0 MiB given to the printing process from OS
             0 MiB allocation reported by mallinfo(arena+hblkhd)
             0 MiB available memory on the node where the printing process lives
------------------
     ethr =  1.51E-05,  avg # of iterations =  3.0

     negative rho (up, down):  2.258E-07 0.000E+00


     -----------------------------------------------
     Non-local corr. energy    =       0.10656624 Ry
     -----------------------------------------------


     total cpu time spent up to now is       83.9 secs

     total energy              =     -26.94169056 Ry
     estimated scf accuracy    <       0.00001214 Ry

     iteration #  6     ecut=   120.00 Ry     beta= 0.70
     Davidson diagonalization with overlap

---- Real-time Memory Report at c_bands before calling an iterative solver
             0 MiB given to the printing process from OS
             0 MiB allocation reported by mallinfo(arena+hblkhd)
             0 MiB available memory on the node where the printing process lives
------------------
     ethr =  1.52E-07,  avg # of iterations =  6.8


     -----------------------------------------------
     Non-local corr. energy    =       0.10656563 Ry
     -----------------------------------------------


     total cpu time spent up to now is       88.6 secs

     total energy              =     -26.94170289 Ry
     estimated scf accuracy    <       0.00002544 Ry

     iteration #  7     ecut=   120.00 Ry     beta= 0.70
     Davidson diagonalization with overlap

---- Real-time Memory Report at c_bands before calling an iterative solver
             0 MiB given to the printing process from OS
             0 MiB allocation reported by mallinfo(arena+hblkhd)
             0 MiB available memory on the node where the printing process lives
------------------
     ethr =  1.52E-07,  avg # of iterations =  1.9


     -----------------------------------------------
     Non-local corr. energy    =       0.10656835 Ry
     -----------------------------------------------


     total cpu time spent up to now is       91.5 secs

     total energy              =     -26.94170391 Ry
     estimated scf accuracy    <       0.00000225 Ry

     iteration #  8     ecut=   120.00 Ry     beta= 0.70
     Davidson diagonalization with overlap

---- Real-time Memory Report at c_bands before calling an iterative solver
             0 MiB given to the printing process from OS
             0 MiB allocation reported by mallinfo(arena+hblkhd)
             0 MiB available memory on the node where the printing process lives
------------------
     ethr =  2.81E-08,  avg # of iterations =  2.9


     -----------------------------------------------
     Non-local corr. energy    =       0.10657238 Ry
     -----------------------------------------------


     total cpu time spent up to now is       94.7 secs

     End of self-consistent calculation

          k = 0.0000 0.0000 0.0000 ( 11233 PWs)   bands (ev):

   -21.2375  -9.0288  -4.8267  -4.8267   0.9187   1.9950   2.8676   4.6182

     occupation numbers 
     1.0000   1.0000   1.0000   1.0000   0.0000   0.0000   0.0000   0.0000

          k = 0.0000 0.0722 0.0000 ( 11404 PWs)   bands (ev):

   -21.1597  -8.9222  -5.1432  -4.9840   1.0516   2.1175   2.9983   4.7365

     occupation numbers 
     1.0000   1.0000   1.0000   1.0000   0.0000   0.0000   0.0000   0.0000

          k = 0.0000 0.1443 0.0000 ( 11440 PWs)   bands (ev):

   -20.9284  -8.6052  -6.0040  -5.4009   1.4424   2.4818   3.3885   5.0829

     occupation numbers 
     1.0000   1.0000   1.0000   1.0000   0.0000   0.0000   0.0000   0.0000

          k = 0.0000 0.2165 0.0000 ( 11430 PWs)   bands (ev):

   -20.5509  -8.0862  -7.2166  -5.9562   2.0790   3.0722   4.0352   5.6043

     occupation numbers 
     1.0000   1.0000   1.0000   1.0000   0.0000   0.0000   0.0000   0.0000

          k = 0.0000 0.2887 0.0000 ( 11476 PWs)   bands (ev):

   -20.0421  -8.5916  -7.3832  -6.5327   2.9534   3.8105   4.9350   5.9200

     occupation numbers 
     1.0000   1.0000   1.0000   1.0000   0.0000   0.0000   0.0000   0.0000

          k = 0.0000 0.3608 0.0000 ( 11494 PWs)   bands (ev):

   -19.4323  -9.9737  -7.0460  -6.5321   4.0501   4.0546   5.7976   6.0789

     occupation numbers 
     1.0000   1.0000   1.0000   1.0000   0.0000   0.0000   0.0000   0.0000

          k = 0.0000 0.4330 0.0000 ( 11534 PWs)   bands (ev):

   -18.7842 -11.2198  -7.4426  -5.6097   3.0226   5.3450   6.8158   7.3764

     occupation numbers 
     1.0000   1.0000   1.0000   1.0000   0.0000   0.0000   0.0000   0.0000

          k = 0.0000 0.5052 0.0000 ( 11512 PWs)   bands (ev):

   -18.2301 -12.1495  -7.6913  -4.7930   1.9370   6.6138   8.0722   8.3252

     occupation numbers 
     1.0000   1.0000   1.0000   1.0000   0.0000   0.0000   0.0000   0.0000

          k = 0.0000-0.5774 0.0000 ( 11502 PWs)   bands (ev):

   -17.9961 -12.5113  -7.7759  -4.4341   1.4714   7.1005   9.0338   9.5802

     occupation numbers 
     1.0000   1.0000   1.0000   1.0000   0.0000   0.0000   0.0000   0.0000

          k = 0.0625 0.1083 0.0000 ( 11424 PWs)   bands (ev):

   -21.0051  -8.7104  -5.7076  -5.2954   1.3135   2.3610   3.2588   4.9692

     occupation numbers 
     1.0000   1.0000   1.0000   1.0000   0.0000   0.0000   0.0000   0.0000

          k = 0.0625 0.1804 0.0000 ( 11438 PWs)   bands (ev):

   -20.7005  -8.2922  -6.6959  -5.8296   1.8279   2.8396   3.7777   5.4091

     occupation numbers 
     1.0000   1.0000   1.0000   1.0000   0.0000   0.0000   0.0000   0.0000

          k = 0.0625 0.2526 0.0000 ( 11461 PWs)   bands (ev):

   -20.2565  -7.9500  -7.6803  -6.4348   2.5855   3.5171   4.5521   5.8940

     occupation numbers 
     1.0000   1.0000   1.0000   1.0000   0.0000   0.0000   0.0000   0.0000

          k = 0.0625 0.3248 0.0000 ( 11475 PWs)   bands (ev):

   -19.6945  -9.3048  -7.0042  -6.9000   3.5785   4.1404   5.5780   5.7755

     occupation numbers 
     1.0000   1.0000   1.0000   1.0000   0.0000   0.0000   0.0000   0.0000

          k = 0.0625 0.3969 0.0000 ( 11494 PWs)   bands (ev):

   -19.0580 -10.6107  -7.4726  -6.0035   3.5949   4.7900   6.2783   6.8386

     occupation numbers 
     1.0000   1.0000   1.0000   1.0000   0.0000   0.0000   0.0000   0.0000

          k = 0.0625 0.4691 0.0000 ( 11497 PWs)   bands (ev):

   -18.4382 -11.7084  -7.8020  -5.1069   2.4371   6.1525   7.6143   8.0350

     occupation numbers 
     1.0000   1.0000   1.0000   1.0000   0.0000   0.0000   0.0000   0.0000

          k = 0.0625 0.5413 0.0000 ( 11485 PWs)   bands (ev):

   -18.0167 -12.3777  -7.9715  -4.4708   1.6088   7.2413   8.6783   9.2129

     occupation numbers 
     1.0000   1.0000   1.0000   1.0000   0.0000   0.0000   0.0000   0.0000

          k = 0.1250 0.2165 0.0000 ( 11436 PWs)   bands (ev):

   -20.3289  -7.7804  -7.6390  -6.5002   2.4648   3.4113   4.4251   5.8477

     occupation numbers 
     1.0000   1.0000   1.0000   1.0000   0.0000   0.0000   0.0000   0.0000

          k = 0.1250 0.2887 0.0000 ( 11490 PWs)   bands (ev):

   -19.8290  -8.7761  -7.1954  -7.0882   3.3454   4.0683   5.3283   5.8916

     occupation numbers 
     1.0000   1.0000   1.0000   1.0000   0.0000   0.0000   0.0000   0.0000

          k = 0.1250 0.3608 0.0000 ( 11500 PWs)   bands (ev):

   -19.2319  -9.9973  -7.7825  -6.2523   3.9968   4.4598   6.0188   6.4825

     occupation numbers 
     1.0000   1.0000   1.0000   1.0000   0.0000   0.0000   0.0000   0.0000

          k = 0.1250 0.4330 0.0000 ( 11510 PWs)   bands (ev):

   -18.6005 -11.1417  -8.2168  -5.3501   2.9627   5.7866   7.1345   7.8652

     occupation numbers 
     1.0000   1.0000   1.0000   1.0000   0.0000   0.0000   0.0000   0.0000

          k = 0.1250 0.5052 0.0000 ( 11517 PWs)   bands (ev):

   -18.0648 -12.0098  -8.4824  -4.5557   1.9547   7.2324   8.6023   8.9705

     occupation numbers 
     1.0000   1.0000   1.0000   1.0000   0.0000   0.0000   0.0000   0.0000

          k = 0.1250 0.5774 0.0000 ( 11508 PWs)   bands (ev):

   -17.8404 -12.3488  -8.5717  -4.2084   1.5225   8.1044   9.3802   9.8334

     occupation numbers 
     1.0000   1.0000   1.0000   1.0000   0.0000   0.0000   0.0000   0.0000

          k = 0.1875 0.3248 0.0000 ( 11480 PWs)   bands (ev):

   -19.2913  -9.6803  -8.0095  -6.3372   4.1312   4.3494   5.9606   6.3607

     occupation numbers 
     1.0000   1.0000   1.0000   1.0000   0.0000   0.0000   0.0000   0.0000

          k = 0.1875 0.3969 0.0000 ( 11513 PWs)   bands (ev):

   -18.6885 -10.6414  -8.6708  -5.4814   3.3127   5.5845   6.8963   7.6437

     occupation numbers 
     1.0000   1.0000   1.0000   1.0000   0.0000   0.0000   0.0000   0.0000

          k = 0.1875 0.4691 0.0000 ( 11533 PWs)   bands (ev):

   -18.1108 -11.5214  -9.1052  -4.6357   2.3274   7.0223   8.1987   9.1506

     occupation numbers 
     1.0000   1.0000   1.0000   1.0000   0.0000   0.0000   0.0000   0.0000

          k = 0.1875 0.5413 0.0000 ( 11513 PWs)   bands (ev):

   -17.7260 -12.0783  -9.3173  -4.0449   1.6369   8.5284   9.4383   9.9715

     occupation numbers 
     1.0000   1.0000   1.0000   1.0000   0.0000   0.0000   0.0000   0.0000

          k = 0.2500 0.4330 0.0000 ( 11496 PWs)   bands (ev):

   -18.1294 -11.2344  -9.4457  -4.6676   2.4924   6.9310   8.0544   9.0520

     occupation numbers 
     1.0000   1.0000   1.0000   1.0000   0.0000   0.0000   0.0000   0.0000

          k = 0.2500 0.5052 0.0000 ( 11505 PWs)   bands (ev):

   -17.6735 -11.7192  -9.9395  -3.9739   1.7855   8.4476   9.0613  10.6281

     occupation numbers 
     1.0000   1.0000   1.0000   1.0000   0.0000   0.0000   0.0000   0.0000

          k = 0.2500 0.5774 0.0000 ( 11488 PWs)   bands (ev):

   -17.4895 -11.9203 -10.1026  -3.6803   1.4865   9.3300   9.6808  10.4566

     occupation numbers 
     1.0000   1.0000   1.0000   1.0000   0.0000   0.0000   0.0000   0.0000

          k = 0.3125 0.5413 0.0000 ( 11482 PWs)   bands (ev):

   -17.4050 -11.7522 -10.4938  -3.5482   1.4495   9.1239   9.8652  11.1809

     occupation numbers 
     1.0000   1.0000   1.0000   1.0000   0.0000   0.0000   0.0000   0.0000

     the Fermi energy is    -0.8059 ev

!    total energy              =     -26.94170475 Ry
     estimated scf accuracy    <       0.00000035 Ry
     smearing contrib. (-TS)   =       0.00000000 Ry
     internal energy E=F+TS    =     -26.94170475 Ry

     The total energy is F=E-TS. E is the sum of the following terms:
     one-electron contribution =    -158.50361498 Ry
     hartree contribution      =      81.07945444 Ry
     xc contribution           =      -8.80765768 Ry
     ewald contribution        =      59.29011347 Ry

     convergence has been achieved in   8 iterations


     -----------------------------------------------
     Non-local corr. energy    =       0.10657238 Ry
     -----------------------------------------------


     Forces acting on atoms (cartesian axes, Ry/au):

     atom    1 type  2   force =    -0.00000000   -0.00000000    0.00000000
     atom    2 type  1   force =     0.00000000    0.00000000    0.00000000
     The non-local contrib.  to forces
     atom    1 type  2   force =     0.00000000    0.00000000    0.00000000
     atom    2 type  1   force =     0.00000000    0.00000000    0.00000000
     The ionic contribution  to forces
     atom    1 type  2   force =    -0.00000001    0.00000000   -0.00000000
     atom    2 type  1   force =     0.00000001   -0.00000000   -0.00000000
     The local contribution  to forces
     atom    1 type  2   force =     0.00000000   -0.00000000    0.00000000
     atom    2 type  1   force =     0.00000003   -0.00000002    0.00000000
     The core correction contribution to forces
     atom    1 type  2   force =    -0.00000000    0.00000000   -0.00000000
     atom    2 type  1   force =    -0.00000000    0.00000000   -0.00000000
     The Hubbard contrib.    to forces
     atom    1 type  2   force =     0.00000000    0.00000000    0.00000000
     atom    2 type  1   force =     0.00000000    0.00000000    0.00000000
     The SCF correction term to forces
     atom    1 type  2   force =    -0.00000000   -0.00000000    0.00000000
     atom    2 type  1   force =    -0.00000000    0.00000000   -0.00000000

     Total force =     0.000000     Total SCF correction =     0.000000


     Computing stress (Cartesian axis) and pressure



     -----------------------------------------------
     Non-local corr. energy    =       0.10657238 Ry
     -----------------------------------------------

          total   stress  (Ry/bohr**3)                   (kbar)     P=       30.72
   0.00031260   0.00000000   0.00000000           45.98        0.00        0.00
   0.00000000   0.00031260   0.00000000            0.00       45.98        0.00
   0.00000000  -0.00000000   0.00000122            0.00       -0.00        0.18

     kinetic stress (kbar)   3558.26     -0.00      0.00
                               -0.00   3558.26      0.00
                                0.00      0.00   3829.99

     local   stress (kbar) -47260.74      0.00     -0.00
                                0.00 -47260.74     -0.00
                               -0.00     -0.00  47922.10

     nonloc. stress (kbar)   -655.43     -0.00      0.00
                               -0.00   -655.43     -0.00
                                0.00     -0.00   -623.09

     hartree stress (kbar)  22475.08     -0.00      0.00
                               -0.00  22475.08      0.00
                                0.00      0.00 -21898.23

     exc-cor stress (kbar)   -350.51     -0.00      0.00
                               -0.00   -350.51     -0.00
                                0.00     -0.00   -386.83

     corecor stress (kbar)   -393.18      0.00     -0.00
                                0.00   -393.18     -0.00
                               -0.00     -0.00   -383.49

     ewald   stress (kbar)  22669.65     -0.00     -0.00
                               -0.00  22669.65     -0.00
                               -0.00     -0.00 -28482.36

     hubbard stress (kbar)      0.00      0.00      0.00
                                0.00      0.00      0.00
                                0.00      0.00      0.00

     DFT-D   stress (kbar)      0.00      0.00      0.00
                                0.00      0.00      0.00
                                0.00      0.00      0.00

     XDM     stress (kbar)      0.00      0.00      0.00
                                0.00      0.00      0.00
                                0.00      0.00      0.00

     dft-nl  stress (kbar)      2.85      0.00     -0.00
                                0.00      2.85      0.00
                               -0.00      0.00     22.10

     TS-vdW  stress (kbar)      0.00      0.00      0.00
                                0.00      0.00      0.00
                                0.00      0.00      0.00

     MDB     stress (kbar)      0.00      0.00      0.00
                                0.00      0.00      0.00
                                0.00      0.00      0.00

     3D-RISM stress (kbar)      0.00      0.00      0.00
                                0.00      0.00      0.00
                                0.00      0.00      0.00


     BFGS Geometry Optimization
     Energy error            =      0.0E+00 Ry
     Gradient error          =      2.8E-25 Ry/Bohr
     Cell gradient error     =      4.6E+01 kbar

     number of scf cycles    =   1
     number of bfgs steps    =   0

     enthalpy           new  =     -26.9417047499 Ry

     new trust radius        =       0.0355523493 bohr
     new conv_thr            =       0.0000010000 Ry

     new unit-cell volume =    525.54013 a.u.^3 (    77.87701 Ang^3 )
     density =      0.52896 g/cm^3

CELL_PARAMETERS (alat=  4.63500000)
   1.007814888   0.000000000   0.000000000
  -0.503907444   0.872793295  -0.000000000
   0.000000000   0.000000000   6.000183017

ATOMIC_POSITIONS (crystal)
B            -0.0000000000       -0.0000000000        0.0000000000
N             0.3333333330        0.6666666670       -0.0000000000



     Writing config-only to output data dir ./tmp/hBN_1l_LDA.save/
     NEW-OLD atomic charge density approx. for the potential

     negative rho (up, down):  5.987E-07 0.000E+00


     -----------------------------------------------
     Non-local corr. energy    =       0.10802604 Ry
     -----------------------------------------------

     extrapolated charge    8.12382, renormalised to    8.00000

     total cpu time spent up to now is      117.2 secs

     Self-consistent Calculation

     iteration #  1     ecut=   120.00 Ry     beta= 0.70
     Davidson diagonalization with overlap

---- Real-time Memory Report at c_bands before calling an iterative solver
             0 MiB given to the printing process from OS
             0 MiB allocation reported by mallinfo(arena+hblkhd)
             0 MiB available memory on the node where the printing process lives
------------------
     ethr =  1.00E-06,  avg # of iterations = 11.6


     -----------------------------------------------
     Non-local corr. energy    =       0.10451974 Ry
     -----------------------------------------------


     total cpu time spent up to now is      124.4 secs

     total energy              =     -26.92603407 Ry
     estimated scf accuracy    <       0.01083832 Ry

     iteration #  2     ecut=   120.00 Ry     beta= 0.70
     Davidson diagonalization with overlap

---- Real-time Memory Report at c_bands before calling an iterative solver
             0 MiB given to the printing process from OS
             0 MiB allocation reported by mallinfo(arena+hblkhd)
             0 MiB available memory on the node where the printing process lives
------------------
     ethr =  1.35E-04,  avg # of iterations =  8.9


     -----------------------------------------------
     Non-local corr. energy    =       0.10574222 Ry
     -----------------------------------------------


     total cpu time spent up to now is      130.5 secs

     total energy              =     -26.94329660 Ry
     estimated scf accuracy    <       0.02728740 Ry

     iteration #  3     ecut=   120.00 Ry     beta= 0.70
     Davidson diagonalization with overlap

---- Real-time Memory Report at c_bands before calling an iterative solver
             0 MiB given to the printing process from OS
             0 MiB allocation reported by mallinfo(arena+hblkhd)
             0 MiB available memory on the node where the printing process lives
------------------
     ethr =  1.35E-04,  avg # of iterations =  5.3


     -----------------------------------------------
     Non-local corr. energy    =       0.10637628 Ry
     -----------------------------------------------


     total cpu time spent up to now is      134.5 secs

     total energy              =     -26.94303673 Ry
     estimated scf accuracy    <       0.00503371 Ry

     iteration #  4     ecut=   120.00 Ry     beta= 0.70
     Davidson diagonalization with overlap

---- Real-time Memory Report at c_bands before calling an iterative solver
             0 MiB given to the printing process from OS
             0 MiB allocation reported by mallinfo(arena+hblkhd)
             0 MiB available memory on the node where the printing process lives
------------------
     ethr =  6.29E-05,  avg # of iterations =  7.1


     -----------------------------------------------
     Non-local corr. energy    =       0.10636648 Ry
     -----------------------------------------------


     total cpu time spent up to now is      139.9 secs

     total energy              =     -26.94383249 Ry
     estimated scf accuracy    <       0.00043982 Ry

     iteration #  5     ecut=   120.00 Ry     beta= 0.70
     Davidson diagonalization with overlap

---- Real-time Memory Report at c_bands before calling an iterative solver
             0 MiB given to the printing process from OS
             0 MiB allocation reported by mallinfo(arena+hblkhd)
             0 MiB available memory on the node where the printing process lives
------------------
     ethr =  5.50E-06,  avg # of iterations =  4.0


     -----------------------------------------------
     Non-local corr. energy    =       0.10657257 Ry
     -----------------------------------------------


     total cpu time spent up to now is      143.3 secs

     total energy              =     -26.94372308 Ry
     estimated scf accuracy    <       0.00058807 Ry

     iteration #  6     ecut=   120.00 Ry     beta= 0.70
     Davidson diagonalization with overlap

---- Real-time Memory Report at c_bands before calling an iterative solver
             0 MiB given to the printing process from OS
             0 MiB allocation reported by mallinfo(arena+hblkhd)
             0 MiB available memory on the node where the printing process lives
------------------
     ethr =  5.50E-06,  avg # of iterations = 13.5


     -----------------------------------------------
     Non-local corr. energy    =       0.10692060 Ry
     -----------------------------------------------


     total cpu time spent up to now is      149.8 secs

     total energy              =     -26.94360496 Ry
     estimated scf accuracy    <       0.00033648 Ry

     iteration #  7     ecut=   120.00 Ry     beta= 0.70
     Davidson diagonalization with overlap

---- Real-time Memory Report at c_bands before calling an iterative solver
             0 MiB given to the printing process from OS
             0 MiB allocation reported by mallinfo(arena+hblkhd)
             0 MiB available memory on the node where the printing process lives
------------------
     ethr =  4.21E-06,  avg # of iterations = 12.2

     negative rho (up, down):  4.766E-05 0.000E+00


     -----------------------------------------------
     Non-local corr. energy    =       0.10691196 Ry
     -----------------------------------------------


     total cpu time spent up to now is      155.3 secs

     total energy              =     -26.94362520 Ry
     estimated scf accuracy    <       0.00004896 Ry

     iteration #  8     ecut=   120.00 Ry     beta= 0.70
     Davidson diagonalization with overlap

---- Real-time Memory Report at c_bands before calling an iterative solver
             0 MiB given to the printing process from OS
             0 MiB allocation reported by mallinfo(arena+hblkhd)
             0 MiB available memory on the node where the printing process lives
------------------
     ethr =  6.12E-07,  avg # of iterations =  7.2


     -----------------------------------------------
     Non-local corr. energy    =       0.10687206 Ry
     -----------------------------------------------


     total cpu time spent up to now is      159.7 secs

     End of self-consistent calculation

          k = 0.0000 0.0000 0.0000 ( 11233 PWs)   bands (ev):

   -21.1390  -8.9482  -4.8939  -4.8939   0.8903   1.9643   2.6497   4.4926

     occupation numbers 
     1.0000   1.0000   1.0000   1.0000   0.0000   0.0000   0.0000   0.0000

          k =-0.0000 0.0716 0.0000 ( 11404 PWs)   bands (ev):

   -21.0624  -8.8437  -5.2074  -5.0474   1.0217   2.0847   2.7785   4.6088

     occupation numbers 
     1.0000   1.0000   1.0000   1.0000   0.0000   0.0000   0.0000   0.0000

          k =-0.0000 0.1432 0.0000 ( 11440 PWs)   bands (ev):

   -20.8350  -8.5328  -6.0587  -5.4545   1.4074   2.4425   3.1630   4.9484

     occupation numbers 
     1.0000   1.0000   1.0000   1.0000   0.0000   0.0000   0.0000   0.0000

          k =-0.0000 0.2148 0.0000 ( 11430 PWs)   bands (ev):

   -20.4638  -8.0239  -7.2561  -5.9973   2.0348   3.0212   3.8000   5.4565

     occupation numbers 
     1.0000   1.0000   1.0000   1.0000   0.0000   0.0000   0.0000   0.0000

          k =-0.0000 0.2864 0.0000 ( 11476 PWs)   bands (ev):

   -19.9642  -8.6119  -7.3350  -6.5613   2.8952   3.7366   4.6864   5.7478

     occupation numbers 
     1.0000   1.0000   1.0000   1.0000   0.0000   0.0000   0.0000   0.0000

          k =-0.0000 0.3580 0.0000 ( 11494 PWs)   bands (ev):

   -19.3662  -9.9725  -7.0637  -6.5015   3.9135   3.9762   5.6785   5.8135

     occupation numbers 
     1.0000   1.0000   1.0000   1.0000   0.0000   0.0000   0.0000   0.0000

          k =-0.0000 0.4297 0.0000 ( 11534 PWs)   bands (ev):

   -18.7325 -11.1965  -7.4522  -5.5994   2.8885   5.2338   6.7069   7.0964

     occupation numbers 
     1.0000   1.0000   1.0000   1.0000   0.0000   0.0000   0.0000   0.0000

          k =-0.0000 0.5013 0.0000 ( 11512 PWs)   bands (ev):

   -18.1931 -12.1066  -7.6958  -4.8026   1.8297   6.4197   7.8455   8.1944

     occupation numbers 
     1.0000   1.0000   1.0000   1.0000   0.0000   0.0000   0.0000   0.0000

          k = 0.0000-0.5729 0.0000 ( 11502 PWs)   bands (ev):

   -17.9664 -12.4594  -7.7787  -4.4533   1.3770   6.8261   8.8817   9.4028

     occupation numbers 
     1.0000   1.0000   1.0000   1.0000   0.0000   0.0000   0.0000   0.0000

          k = 0.0620 0.1074 0.0000 ( 11424 PWs)   bands (ev):

   -20.9104  -8.6360  -5.7658  -5.3516   1.2803   2.3239   3.0352   4.8370

     occupation numbers 
     1.0000   1.0000   1.0000   1.0000   0.0000   0.0000   0.0000   0.0000

          k = 0.0620 0.1790 0.0000 ( 11438 PWs)   bands (ev):

   -20.6109  -8.2259  -6.7425  -5.8742   1.7876   2.7934   3.5463   5.2671

     occupation numbers 
     1.0000   1.0000   1.0000   1.0000   0.0000   0.0000   0.0000   0.0000

          k = 0.0620 0.2506 0.0000 ( 11461 PWs)   bands (ev):

   -20.1746  -7.9797  -7.6260  -6.4668   2.5338   3.4549   4.3092   5.7310

     occupation numbers 
     1.0000   1.0000   1.0000   1.0000   0.0000   0.0000   0.0000   0.0000

          k = 0.0620 0.3222 0.0000 ( 11475 PWs)   bands (ev):

   -19.6232  -9.3140  -7.0249  -6.8616   3.5102   4.0340   5.3199   5.6216

     occupation numbers 
     1.0000   1.0000   1.0000   1.0000   0.0000   0.0000   0.0000   0.0000

          k = 0.0620 0.3939 0.0000 ( 11494 PWs)   bands (ev):

   -18.9999 -10.5978  -7.4842  -5.9844   3.4493   4.6979   6.1728   6.5620

     occupation numbers 
     1.0000   1.0000   1.0000   1.0000   0.0000   0.0000   0.0000   0.0000

          k = 0.0620 0.4655 0.0000 ( 11497 PWs)   bands (ev):

   -18.3953 -11.6739  -7.8074  -5.1084   2.3156   6.0170   7.4945   7.7588

     occupation numbers 
     1.0000   1.0000   1.0000   1.0000   0.0000   0.0000   0.0000   0.0000

          k = 0.0620 0.5371 0.0000 ( 11485 PWs)   bands (ev):

   -17.9862 -12.3275  -7.9736  -4.4887   1.5094   6.9968   8.4902   9.0665

     occupation numbers 
     1.0000   1.0000   1.0000   1.0000   0.0000   0.0000   0.0000   0.0000

          k = 0.1240 0.2148 0.0000 ( 11436 PWs)   bands (ev):

   -20.2457  -7.7241  -7.6734  -6.5319   2.4153   3.3521   4.1841   5.6890

     occupation numbers 
     1.0000   1.0000   1.0000   1.0000   0.0000   0.0000   0.0000   0.0000

          k = 0.1240 0.2864 0.0000 ( 11490 PWs)   bands (ev):

   -19.7551  -8.7932  -7.2153  -7.0459   3.2823   3.9787   5.0737   5.7205

     occupation numbers 
     1.0000   1.0000   1.0000   1.0000   0.0000   0.0000   0.0000   0.0000

          k = 0.1240 0.3580 0.0000 ( 11500 PWs)   bands (ev):

   -19.1700  -9.9934  -7.7932  -6.2276   3.8474   4.3781   5.9072   6.2108

     occupation numbers 
     1.0000   1.0000   1.0000   1.0000   0.0000   0.0000   0.0000   0.0000

          k = 0.1240 0.4297 0.0000 ( 11510 PWs)   bands (ev):

   -18.5532 -11.1154  -8.2210  -5.3455   2.8250   5.6785   7.0213   7.5741

     occupation numbers 
     1.0000   1.0000   1.0000   1.0000   0.0000   0.0000   0.0000   0.0000

          k = 0.1240 0.5013 0.0000 ( 11517 PWs)   bands (ev):

   -18.0325 -11.9636  -8.4825  -4.5705   1.8425   7.0738   8.4664   8.6952

     occupation numbers 
     1.0000   1.0000   1.0000   1.0000   0.0000   0.0000   0.0000   0.0000

          k = 0.1240 0.5729 0.0000 ( 11508 PWs)   bands (ev):

   -17.8154 -12.2936  -8.5705  -4.2326   1.4225   7.8475   9.2208   9.6716

     occupation numbers 
     1.0000   1.0000   1.0000   1.0000   0.0000   0.0000   0.0000   0.0000

          k = 0.1860 0.3222 0.0000 ( 11480 PWs)   bands (ev):

   -19.2282  -9.6808  -8.0186  -6.3106   3.9829   4.2708   5.8431   6.0908

     occupation numbers 
     1.0000   1.0000   1.0000   1.0000   0.0000   0.0000   0.0000   0.0000

          k = 0.1860 0.3939 0.0000 ( 11513 PWs)   bands (ev):

   -18.6390 -10.6208  -8.6729  -5.4735   3.1635   5.4853   6.7856   7.3549

     occupation numbers 
     1.0000   1.0000   1.0000   1.0000   0.0000   0.0000   0.0000   0.0000

          k = 0.1860 0.4655 0.0000 ( 11533 PWs)   bands (ev):

   -18.0770 -11.4789  -9.1034  -4.6478   2.2006   6.8947   8.0696   8.8412

     occupation numbers 
     1.0000   1.0000   1.0000   1.0000   0.0000   0.0000   0.0000   0.0000

          k = 0.1860 0.5371 0.0000 ( 11513 PWs)   bands (ev):

   -17.7045 -12.0199  -9.3135  -4.0724   1.5288   8.3450   9.2872   9.7284

     occupation numbers 
     1.0000   1.0000   1.0000   1.0000   0.0000   0.0000   0.0000   0.0000

          k = 0.2481 0.4297 0.0000 ( 11496 PWs)   bands (ev):

   -18.0949 -11.1925  -9.4439  -4.6786   2.3588   6.8092   7.9280   8.7429

     occupation numbers 
     1.0000   1.0000   1.0000   1.0000   0.0000   0.0000   0.0000   0.0000

          k = 0.2481 0.5013 0.0000 ( 11505 PWs)   bands (ev):

   -17.6536 -11.6558  -9.9379  -4.0025   1.6688   8.2936   8.9213  10.3089

     occupation numbers 
     1.0000   1.0000   1.0000   1.0000   0.0000   0.0000   0.0000   0.0000

          k = 0.2481 0.5729 0.0000 ( 11488 PWs)   bands (ev):

   -17.4764 -11.8473 -10.1016  -3.7170   1.3778   9.1905   9.4650  10.2805

     occupation numbers 
     1.0000   1.0000   1.0000   1.0000   0.0000   0.0000   0.0000   0.0000

          k = 0.3101 0.5371 0.0000 ( 11482 PWs)   bands (ev):

   -17.3950 -11.6643 -10.5033  -3.5882   1.3397   8.9935   9.6624  10.9596

     occupation numbers 
     1.0000   1.0000   1.0000   1.0000   0.0000   0.0000   0.0000   0.0000

     the Fermi energy is    -0.9073 ev

!    total energy              =     -26.94363670 Ry
     estimated scf accuracy    <       0.00000092 Ry
     smearing contrib. (-TS)   =       0.00000000 Ry
     internal energy E=F+TS    =     -26.94363670 Ry

     The total energy is F=E-TS. E is the sum of the following terms:
     one-electron contribution =    -156.07140988 Ry
     hartree contribution      =      79.84057025 Ry
     xc contribution           =      -8.77536821 Ry
     ewald contribution        =      58.06257113 Ry

     convergence has been achieved in   8 iterations


     -----------------------------------------------
     Non-local corr. energy    =       0.10687206 Ry
     -----------------------------------------------


     Forces acting on atoms (cartesian axes, Ry/au):

     atom    1 type  2   force =     0.00000000    0.00000000    0.00000000
     atom    2 type  1   force =     0.00000000    0.00000000    0.00000000
     The non-local contrib.  to forces
     atom    1 type  2   force =     0.00000000   -0.00000000    0.00000000
     atom    2 type  1   force =    -0.00000000   -0.00000000    0.00000000
     The ionic contribution  to forces
     atom    1 type  2   force =    -0.00000001    0.00000000   -0.00000000
     atom    2 type  1   force =     0.00000001   -0.00000000    0.00000000
     The local contribution  to forces
     atom    1 type  2   force =     0.00000000   -0.00000000    0.00000000
     atom    2 type  1   force =     0.00000003   -0.00000002    0.00000000
     The core correction contribution to forces
     atom    1 type  2   force =    -0.00000000    0.00000000   -0.00000000
     atom    2 type  1   force =    -0.00000000    0.00000000    0.00000000
     The Hubbard contrib.    to forces
     atom    1 type  2   force =     0.00000000    0.00000000    0.00000000
     atom    2 type  1   force =     0.00000000    0.00000000    0.00000000
     The SCF correction term to forces
     atom    1 type  2   force =     0.00000000    0.00000000   -0.00000000
     atom    2 type  1   force =     0.00000000   -0.00000000   -0.00000000

     Total force =     0.000000     Total SCF correction =     0.000000


     Computing stress (Cartesian axis) and pressure



     -----------------------------------------------
     Non-local corr. energy    =       0.10687206 Ry
     -----------------------------------------------

          total   stress  (Ry/bohr**3)                   (kbar)     P=       16.18
   0.00016757  -0.00000000  -0.00000000           24.65       -0.00       -0.00
  -0.00000000   0.00016757  -0.00000000           -0.00       24.65       -0.00
  -0.00000000   0.00000000  -0.00000510           -0.00        0.00       -0.75

     kinetic stress (kbar)   3475.78     -0.00     -0.00
                               -0.00   3475.78      0.00
                               -0.00      0.00   3754.84

     local   stress (kbar) -45791.28      0.00      0.00
                                0.00 -45791.28      0.00
                                0.00      0.00  46393.88

     nonloc. stress (kbar)   -637.34     -0.00     -0.00
                               -0.00   -637.34     -0.00
                               -0.00     -0.00   -609.17

     hartree stress (kbar)  21772.92     -0.00     -0.00
                               -0.00  21772.92     -0.00
                               -0.00     -0.00 -21197.50

     exc-cor stress (kbar)   -342.65     -0.00     -0.00
                               -0.00   -342.65     -0.00
                               -0.00     -0.00   -378.09

     corecor stress (kbar)   -386.39      0.00      0.00
                                0.00   -386.39     -0.00
                                0.00     -0.00   -377.23

     ewald   stress (kbar)  21930.79     -0.00     -0.00
                               -0.00  21930.79     -0.00
                               -0.00     -0.00 -27609.15

     hubbard stress (kbar)      0.00      0.00      0.00
                                0.00      0.00      0.00
                                0.00      0.00      0.00

     DFT-D   stress (kbar)      0.00      0.00      0.00
                                0.00      0.00      0.00
                                0.00      0.00      0.00

     XDM     stress (kbar)      0.00      0.00      0.00
                                0.00      0.00      0.00
                                0.00      0.00      0.00

     dft-nl  stress (kbar)      2.82      0.00     -0.00
                                0.00      2.82      0.00
                               -0.00      0.00     21.65

     TS-vdW  stress (kbar)      0.00      0.00      0.00
                                0.00      0.00      0.00
                                0.00      0.00      0.00

     MDB     stress (kbar)      0.00      0.00      0.00
                                0.00      0.00      0.00
                                0.00      0.00      0.00

     3D-RISM stress (kbar)      0.00      0.00      0.00
                                0.00      0.00      0.00
                                0.00      0.00      0.00

     Energy error            =      1.9E-03 Ry
     Gradient error          =      0.0E+00 Ry/Bohr
     Cell gradient error     =      2.5E+01 kbar

     number of scf cycles    =   2
     number of bfgs steps    =   1

     enthalpy           old  =     -26.9417047499 Ry
     enthalpy           new  =     -26.9436367008 Ry

     CASE: enthalpy          _new < enthalpy          _old

     new trust radius        =       0.0391081807 bohr
     new conv_thr            =       0.0000000100 Ry

     new unit-cell volume =    534.40284 a.u.^3 (    79.19033 Ang^3 )
     density =      0.52019 g/cm^3

CELL_PARAMETERS (alat=  4.63500000)
   1.016411265   0.000000000  -0.000000000
  -0.508205632   0.880237976   0.000000000
  -0.000000000  -0.000000000   5.998600883

ATOMIC_POSITIONS (crystal)
B            -0.0000000000       -0.0000000000        0.0000000000
N             0.3333333330        0.6666666670       -0.0000000000



     Writing config-only to output data dir ./tmp/hBN_1l_LDA.save/
     NEW-OLD atomic charge density approx. for the potential

     negative rho (up, down):  6.419E-07 0.000E+00


     -----------------------------------------------
     Non-local corr. energy    =       0.10844771 Ry
     -----------------------------------------------

     extrapolated charge    8.13267, renormalised to    8.00000

     total cpu time spent up to now is      180.9 secs

     Self-consistent Calculation

     iteration #  1     ecut=   120.00 Ry     beta= 0.70
     Davidson diagonalization with overlap

---- Real-time Memory Report at c_bands before calling an iterative solver
             0 MiB given to the printing process from OS
             0 MiB allocation reported by mallinfo(arena+hblkhd)
             0 MiB available memory on the node where the printing process lives
------------------
     c_bands:  1 eigenvalues not converged
     c_bands:  2 eigenvalues not converged
     ethr =  1.00E-06,  avg # of iterations = 12.0


     -----------------------------------------------
     Non-local corr. energy    =       0.10454157 Ry
     -----------------------------------------------


     total cpu time spent up to now is      188.4 secs

     total energy              =     -26.89820434 Ry
     estimated scf accuracy    <       0.02520936 Ry

     iteration #  2     ecut=   120.00 Ry     beta= 0.70
     Davidson diagonalization with overlap

---- Real-time Memory Report at c_bands before calling an iterative solver
             0 MiB given to the printing process from OS
             0 MiB allocation reported by mallinfo(arena+hblkhd)
             0 MiB available memory on the node where the printing process lives
------------------
     ethr =  3.15E-04,  avg # of iterations =  8.3


     -----------------------------------------------
     Non-local corr. energy    =       0.10596637 Ry
     -----------------------------------------------


     total cpu time spent up to now is      193.5 secs

     total energy              =     -26.94409299 Ry
     estimated scf accuracy    <       0.05211574 Ry

     iteration #  3     ecut=   120.00 Ry     beta= 0.70
     Davidson diagonalization with overlap

---- Real-time Memory Report at c_bands before calling an iterative solver
             0 MiB given to the printing process from OS
             0 MiB allocation reported by mallinfo(arena+hblkhd)
             0 MiB available memory on the node where the printing process lives
------------------
     ethr =  3.15E-04,  avg # of iterations =  5.8


     -----------------------------------------------
     Non-local corr. energy    =       0.10675992 Ry
     -----------------------------------------------


     total cpu time spent up to now is      197.4 secs

     total energy              =     -26.94409676 Ry
     estimated scf accuracy    <       0.00870752 Ry

     iteration #  4     ecut=   120.00 Ry     beta= 0.70
     Davidson diagonalization with overlap

---- Real-time Memory Report at c_bands before calling an iterative solver
             0 MiB given to the printing process from OS
             0 MiB allocation reported by mallinfo(arena+hblkhd)
             0 MiB available memory on the node where the printing process lives
------------------
     ethr =  1.09E-04,  avg # of iterations = 10.4


     -----------------------------------------------
     Non-local corr. energy    =       0.10682002 Ry
     -----------------------------------------------


     total cpu time spent up to now is      203.2 secs

     total energy              =     -26.94455987 Ry
     estimated scf accuracy    <       0.00222846 Ry

     iteration #  5     ecut=   120.00 Ry     beta= 0.70
     Davidson diagonalization with overlap

---- Real-time Memory Report at c_bands before calling an iterative solver
             0 MiB given to the printing process from OS
             0 MiB allocation reported by mallinfo(arena+hblkhd)
             0 MiB available memory on the node where the printing process lives
------------------
     ethr =  2.79E-05,  avg # of iterations =  9.4


     -----------------------------------------------
     Non-local corr. energy    =       0.10697613 Ry
     -----------------------------------------------


     total cpu time spent up to now is      208.5 secs

     total energy              =     -26.94506727 Ry
     estimated scf accuracy    <       0.00185390 Ry

     iteration #  6     ecut=   120.00 Ry     beta= 0.70
     Davidson diagonalization with overlap

---- Real-time Memory Report at c_bands before calling an iterative solver
             0 MiB given to the printing process from OS
             0 MiB allocation reported by mallinfo(arena+hblkhd)
             0 MiB available memory on the node where the printing process lives
------------------
     c_bands:  1 eigenvalues not converged
     ethr =  2.32E-05,  avg # of iterations = 11.2


     -----------------------------------------------
     Non-local corr. energy    =       0.10696046 Ry
     -----------------------------------------------


     total cpu time spent up to now is      213.6 secs

     total energy              =     -26.94492282 Ry
     estimated scf accuracy    <       0.00090096 Ry

     iteration #  7     ecut=   120.00 Ry     beta= 0.70
     Davidson diagonalization with overlap

---- Real-time Memory Report at c_bands before calling an iterative solver
             0 MiB given to the printing process from OS
             0 MiB allocation reported by mallinfo(arena+hblkhd)
             0 MiB available memory on the node where the printing process lives
------------------
     ethr =  1.13E-05,  avg # of iterations =  4.2

     negative rho (up, down):  3.453E-06 0.000E+00


     -----------------------------------------------
     Non-local corr. energy    =       0.10719884 Ry
     -----------------------------------------------


     total cpu time spent up to now is      217.3 secs

     total energy              =     -26.94438819 Ry
     estimated scf accuracy    <       0.00060951 Ry

     iteration #  8     ecut=   120.00 Ry     beta= 0.70
     Davidson diagonalization with overlap

---- Real-time Memory Report at c_bands before calling an iterative solver
             0 MiB given to the printing process from OS
             0 MiB allocation reported by mallinfo(arena+hblkhd)
             0 MiB available memory on the node where the printing process lives
------------------
     ethr =  7.62E-06,  avg # of iterations =  7.3


     -----------------------------------------------
     Non-local corr. energy    =       0.10716000 Ry
     -----------------------------------------------


     total cpu time spent up to now is      221.8 secs

     total energy              =     -26.94445553 Ry
     estimated scf accuracy    <       0.00003784 Ry

     iteration #  9     ecut=   120.00 Ry     beta= 0.70
     Davidson diagonalization with overlap

---- Real-time Memory Report at c_bands before calling an iterative solver
             0 MiB given to the printing process from OS
             0 MiB allocation reported by mallinfo(arena+hblkhd)
             0 MiB available memory on the node where the printing process lives
------------------
     ethr =  4.73E-07,  avg # of iterations =  5.1


     -----------------------------------------------
     Non-local corr. energy    =       0.10719388 Ry
     -----------------------------------------------


     total cpu time spent up to now is      225.6 secs

     total energy              =     -26.94444491 Ry
     estimated scf accuracy    <       0.00001934 Ry

     iteration # 10     ecut=   120.00 Ry     beta= 0.70
     Davidson diagonalization with overlap

---- Real-time Memory Report at c_bands before calling an iterative solver
             0 MiB given to the printing process from OS
             0 MiB allocation reported by mallinfo(arena+hblkhd)
             0 MiB available memory on the node where the printing process lives
------------------
     c_bands:  1 eigenvalues not converged
     ethr =  2.42E-07,  avg # of iterations = 11.8


     -----------------------------------------------
     Non-local corr. energy    =       0.10723135 Ry
     -----------------------------------------------


     total cpu time spent up to now is      231.5 secs

     total energy              =     -26.94445817 Ry
     estimated scf accuracy    <       0.00000674 Ry

     iteration # 11     ecut=   120.00 Ry     beta= 0.70
     Davidson diagonalization with overlap

---- Real-time Memory Report at c_bands before calling an iterative solver
             0 MiB given to the printing process from OS
             0 MiB allocation reported by mallinfo(arena+hblkhd)
             0 MiB available memory on the node where the printing process lives
------------------
     c_bands:  1 eigenvalues not converged
     ethr =  8.43E-08,  avg # of iterations = 13.1

     negative rho (up, down):  1.542E-08 0.000E+00


     -----------------------------------------------
     Non-local corr. energy    =       0.10723187 Ry
     -----------------------------------------------


     total cpu time spent up to now is      237.1 secs

     total energy              =     -26.94445967 Ry
     estimated scf accuracy    <       0.00000057 Ry

     iteration # 12     ecut=   120.00 Ry     beta= 0.70
     Davidson diagonalization with overlap

---- Real-time Memory Report at c_bands before calling an iterative solver
             0 MiB given to the printing process from OS
             0 MiB allocation reported by mallinfo(arena+hblkhd)
             0 MiB available memory on the node where the printing process lives
------------------
     ethr =  7.15E-09,  avg # of iterations =  7.4


     -----------------------------------------------
     Non-local corr. energy    =       0.10723231 Ry
     -----------------------------------------------


     total cpu time spent up to now is      241.3 secs

     total energy              =     -26.94445973 Ry
     estimated scf accuracy    <       0.00000007 Ry

     iteration # 13     ecut=   120.00 Ry     beta= 0.70
     Davidson diagonalization with overlap

---- Real-time Memory Report at c_bands before calling an iterative solver
             0 MiB given to the printing process from OS
             0 MiB allocation reported by mallinfo(arena+hblkhd)
             0 MiB available memory on the node where the printing process lives
------------------
     ethr =  8.46E-10,  avg # of iterations =  1.6

     negative rho (up, down):  8.560E-07 0.000E+00


     -----------------------------------------------
     Non-local corr. energy    =       0.10723158 Ry
     -----------------------------------------------


     total cpu time spent up to now is      244.1 secs

     total energy              =     -26.94445978 Ry
     estimated scf accuracy    <       0.00000008 Ry

     iteration # 14     ecut=   120.00 Ry     beta= 0.70
     Davidson diagonalization with overlap

---- Real-time Memory Report at c_bands before calling an iterative solver
             0 MiB given to the printing process from OS
             0 MiB allocation reported by mallinfo(arena+hblkhd)
             0 MiB available memory on the node where the printing process lives
------------------
     ethr =  8.46E-10,  avg # of iterations =  2.0


     -----------------------------------------------
     Non-local corr. energy    =       0.10723029 Ry
     -----------------------------------------------


     total cpu time spent up to now is      247.3 secs

     End of self-consistent calculation

          k = 0.0000 0.0000 0.0000 ( 11233 PWs)   bands (ev):

   -21.0619  -8.8865  -4.9970  -4.9970   0.8588   1.9426   2.7836   4.5555

     occupation numbers 
     1.0000   1.0000   1.0000   1.0000   0.0000   0.0000   0.0000   0.0000

          k =-0.0000 0.0710 0.0000 ( 11404 PWs)   bands (ev):

   -20.9868  -8.7842  -5.3071  -5.1464   0.9886   2.0603   2.9103   4.6678

     occupation numbers 
     1.0000   1.0000   1.0000   1.0000   0.0000   0.0000   0.0000   0.0000

          k =-0.0000 0.1420 0.0000 ( 11440 PWs)   bands (ev):

   -20.7635  -8.4800  -6.1480  -5.5429   1.3691   2.4099   3.2885   4.9938

     occupation numbers 
     1.0000   1.0000   1.0000   1.0000   0.0000   0.0000   0.0000   0.0000

          k =-0.0000 0.2130 0.0000 ( 11430 PWs)   bands (ev):

   -20.3995  -7.9822  -7.3288  -6.0720   1.9862   2.9730   3.9144   5.4627

     occupation numbers 
     1.0000   1.0000   1.0000   1.0000   0.0000   0.0000   0.0000   0.0000

          k =-0.0000 0.2840 0.0000 ( 11476 PWs)   bands (ev):

   -19.9099  -8.6635  -7.3087  -6.6224   2.8304   3.6546   4.7835   5.6254

     occupation numbers 
     1.0000   1.0000   1.0000   1.0000   0.0000   0.0000   0.0000   0.0000

          k =-0.0000 0.3550 0.0000 ( 11494 PWs)   bands (ev):

   -19.3251 -10.0004  -7.1131  -6.4946   3.7441   3.8871   5.5750   5.8809

     occupation numbers 
     1.0000   1.0000   1.0000   1.0000   0.0000   0.0000   0.0000   0.0000

          k =-0.0000 0.4260 0.0000 ( 11534 PWs)   bands (ev):

   -18.7073 -11.2000  -7.4927  -5.6152   2.7214   5.1025   6.6048   7.0112

     occupation numbers 
     1.0000   1.0000   1.0000   1.0000   0.0000   0.0000   0.0000   0.0000

          k =-0.0000 0.4970 0.0000 ( 11512 PWs)   bands (ev):

   -18.1840 -12.0884  -7.7309  -4.8405   1.6922   6.1794   7.6199   8.0627

     occupation numbers 
     1.0000   1.0000   1.0000   1.0000   0.0000   0.0000   0.0000   0.0000

          k = 0.0000-0.5680-0.0000 ( 11502 PWs)   bands (ev):

   -17.9652 -12.4315  -7.8119  -4.5019   1.2538   6.5034   8.7127   9.2204

     occupation numbers 
     1.0000   1.0000   1.0000   1.0000   0.0000   0.0000   0.0000   0.0000

          k = 0.0615 0.1065 0.0000 ( 11424 PWs)   bands (ev):

   -20.8376  -8.5810  -5.8591  -5.4428   1.2438   2.2941   3.1629   4.8874

     occupation numbers 
     1.0000   1.0000   1.0000   1.0000   0.0000   0.0000   0.0000   0.0000

          k = 0.0615 0.1775 0.0000 ( 11438 PWs)   bands (ev):

   -20.5437  -8.1797  -6.8229  -5.9525   1.7434   2.7519   3.6655   5.2931

     occupation numbers 
     1.0000   1.0000   1.0000   1.0000   0.0000   0.0000   0.0000   0.0000

          k = 0.0615 0.2485 0.0000 ( 11461 PWs)   bands (ev):

   -20.1160  -8.0415  -7.5931  -6.5315   2.4766   3.3907   4.4146   5.6701

     occupation numbers 
     1.0000   1.0000   1.0000   1.0000   0.0000   0.0000   0.0000   0.0000

          k = 0.0615 0.3195 0.0000 ( 11475 PWs)   bands (ev):

   -19.5762  -9.3534  -7.0773  -6.8462   3.4338   3.9035   5.4045   5.4866

     occupation numbers 
     1.0000   1.0000   1.0000   1.0000   0.0000   0.0000   0.0000   0.0000

          k = 0.0615 0.3905 0.0000 ( 11494 PWs)   bands (ev):

   -18.9676 -10.6128  -7.5268  -5.9901   3.2696   4.5924   6.0773   6.6044

     occupation numbers 
     1.0000   1.0000   1.0000   1.0000   0.0000   0.0000   0.0000   0.0000

          k = 0.0615 0.4615 0.0000 ( 11497 PWs)   bands (ev):

   -18.3798 -11.6652  -7.8431  -5.1373   2.1625   5.8537   7.3770   7.5337

     occupation numbers 
     1.0000   1.0000   1.0000   1.0000   0.0000   0.0000   0.0000   0.0000

          k = 0.0615 0.5325 0.0000 ( 11485 PWs)   bands (ev):

   -17.9841 -12.3016  -8.0058  -4.5358   1.3808   6.7023   8.2951   9.8486

     occupation numbers 
     1.0000   1.0000   1.0000   1.0000   0.0000   0.0000   0.0000   0.0000

          k = 0.1230 0.2130 0.0000 ( 11436 PWs)   bands (ev):

   -20.1857  -7.7406  -7.6890  -6.5961   2.3609   3.2927   4.2924   5.6503

     occupation numbers 
     1.0000   1.0000   1.0000   1.0000   0.0000   0.0000   0.0000   0.0000

          k = 0.1230 0.2840 0.0000 ( 11490 PWs)   bands (ev):

   -19.7052  -8.8416  -7.2664  -7.0262   3.2125   3.8729   5.1660   5.5745

     occupation numbers 
     1.0000   1.0000   1.0000   1.0000   0.0000   0.0000   0.0000   0.0000

          k = 0.1230 0.3550 0.0000 ( 11500 PWs)   bands (ev):

   -19.1335 -10.0186  -7.8342  -6.2272   3.6633   4.2866   5.8082   6.2798

     occupation numbers 
     1.0000   1.0000   1.0000   1.0000   0.0000   0.0000   0.0000   0.0000

          k = 0.1230 0.4260 0.0000 ( 11510 PWs)   bands (ev):

   -18.5329 -11.1162  -8.2548  -5.3675   2.6541   5.5549   6.9119   7.5925

     occupation numbers 
     1.0000   1.0000   1.0000   1.0000   0.0000   0.0000   0.0000   0.0000

          k = 0.1230 0.4970 0.0000 ( 11517 PWs)   bands (ev):

   -18.0285 -11.9426  -8.5119  -4.6143   1.6999   6.8826   8.3255   8.4283

     occupation numbers 
     1.0000   1.0000   1.0000   1.0000   0.0000   0.0000   0.0000   0.0000

          k = 0.1230 0.5680 0.0000 ( 11508 PWs)   bands (ev):

   -17.8193 -12.2628  -8.5984  -4.2869   1.2934   7.5415   9.0427   9.4903

     occupation numbers 
     1.0000   1.0000   1.0000   1.0000   0.0000   0.0000   0.0000   0.0000

          k = 0.1845 0.3195 0.0000 ( 11480 PWs)   bands (ev):

   -19.1903  -9.7113  -8.0573  -6.3082   3.8001   4.1835   5.7392   6.1649

     occupation numbers 
     1.0000   1.0000   1.0000   1.0000   0.0000   0.0000   0.0000   0.0000

          k = 0.1845 0.3905 0.0000 ( 11513 PWs)   bands (ev):

   -18.6162 -10.6286  -8.7036  -5.4919   2.9800   5.3742   6.6794   7.4037

     occupation numbers 
     1.0000   1.0000   1.0000   1.0000   0.0000   0.0000   0.0000   0.0000

          k = 0.1845 0.4615 0.0000 ( 11533 PWs)   bands (ev):

   -18.0711 -11.4629  -9.1295  -4.6885   2.0420   6.7491   7.9357   8.8343

     occupation numbers 
     1.0000   1.0000   1.0000   1.0000   0.0000   0.0000   0.0000   0.0000

          k = 0.1845 0.5325 0.0000 ( 11513 PWs)   bands (ev):

   -17.7122 -11.9867  -9.3375  -4.1305   1.3911   8.1254   9.1171   9.4637

     occupation numbers 
     1.0000   1.0000   1.0000   1.0000   0.0000   0.0000   0.0000   0.0000

          k = 0.2460 0.4260 0.0000 ( 11496 PWs)   bands (ev):

   -18.0883 -11.1779  -9.4692  -4.7181   2.1927   6.6718   7.7965   8.7634

     occupation numbers 
     1.0000   1.0000   1.0000   1.0000   0.0000   0.0000   0.0000   0.0000

          k = 0.2460 0.4970 0.0000 ( 11505 PWs)   bands (ev):

   -17.6628 -11.6185  -9.9629  -4.0618   1.5219   8.1168   8.7619  10.2084

     occupation numbers 
     1.0000   1.0000   1.0000   1.0000   0.0000   0.0000   0.0000   0.0000

          k = 0.2460 0.5680 0.0000 ( 11488 PWs)   bands (ev):

   -17.4928 -11.7997 -10.1269  -3.7855   1.2399   9.0261   9.2099  10.0821

     occupation numbers 
     1.0000   1.0000   1.0000   1.0000   0.0000   0.0000   0.0000   0.0000

          k = 0.3075 0.5325 0.0000 ( 11482 PWs)   bands (ev):

   -17.4148 -11.6008 -10.5399  -3.6604   1.2008   8.8382   9.4240  10.7133

     occupation numbers 
     1.0000   1.0000   1.0000   1.0000   0.0000   0.0000   0.0000   0.0000

     the Fermi energy is    -1.0323 ev

!    total energy              =     -26.94445986 Ry
     estimated scf accuracy    <          3.7E-09 Ry
     smearing contrib. (-TS)   =       0.00000000 Ry
     internal energy E=F+TS    =     -26.94445986 Ry

     The total energy is F=E-TS. E is the sum of the following terms:
     one-electron contribution =    -153.41489079 Ry
     hartree contribution      =      78.49328396 Ry
     xc contribution           =      -8.74162742 Ry
     ewald contribution        =      56.71877439 Ry

     convergence has been achieved in  14 iterations


     -----------------------------------------------
     Non-local corr. energy    =       0.10723029 Ry
     -----------------------------------------------


     Forces acting on atoms (cartesian axes, Ry/au):

     atom    1 type  2   force =    -0.00000000   -0.00000000   -0.00000000
     atom    2 type  1   force =     0.00000000    0.00000000    0.00000000
     The non-local contrib.  to forces
     atom    1 type  2   force =     0.00000000   -0.00000000   -0.00000000
     atom    2 type  1   force =    -0.00000000    0.00000000   -0.00000000
     The ionic contribution  to forces
     atom    1 type  2   force =    -0.00000001    0.00000000    0.00000000
     atom    2 type  1   force =     0.00000001   -0.00000000   -0.00000000
     The local contribution  to forces
     atom    1 type  2   force =     0.00000000   -0.00000000    0.00000000
     atom    2 type  1   force =     0.00000003   -0.00000002    0.00000000
     The core correction contribution to forces
     atom    1 type  2   force =    -0.00000000    0.00000000   -0.00000000
     atom    2 type  1   force =    -0.00000000    0.00000000   -0.00000000
     The Hubbard contrib.    to forces
     atom    1 type  2   force =     0.00000000    0.00000000    0.00000000
     atom    2 type  1   force =     0.00000000    0.00000000    0.00000000
     The SCF correction term to forces
     atom    1 type  2   force =     0.00000000    0.00000000    0.00000000
[...]
     Davidson diagonalization with overlap

---- Real-time Memory Report at c_bands before calling an iterative solver
             0 MiB given to the printing process from OS
             0 MiB allocation reported by mallinfo(arena+hblkhd)
             0 MiB available memory on the node where the printing process lives
------------------
     ethr =  2.34E-05,  avg # of iterations =  9.4


     -----------------------------------------------
     Non-local corr. energy    =       0.10722128 Ry
     -----------------------------------------------


     total cpu time spent up to now is      352.1 secs

     total energy              =     -26.94426493 Ry
     estimated scf accuracy    <       0.00109009 Ry

     iteration #  5     ecut=   120.00 Ry     beta= 0.70
     Davidson diagonalization with overlap

---- Real-time Memory Report at c_bands before calling an iterative solver
             0 MiB given to the printing process from OS
             0 MiB allocation reported by mallinfo(arena+hblkhd)
             0 MiB available memory on the node where the printing process lives
------------------
     ethr =  1.36E-05,  avg # of iterations =  2.1

     negative rho (up, down):  1.160E-08 0.000E+00


     -----------------------------------------------
     Non-local corr. energy    =       0.10727138 Ry
     -----------------------------------------------


     total cpu time spent up to now is      355.4 secs

     total energy              =     -26.94446170 Ry
     estimated scf accuracy    <       0.00001054 Ry

     iteration #  6     ecut=   120.00 Ry     beta= 0.70
     Davidson diagonalization with overlap

---- Real-time Memory Report at c_bands before calling an iterative solver
             0 MiB given to the printing process from OS
             0 MiB allocation reported by mallinfo(arena+hblkhd)
             0 MiB available memory on the node where the printing process lives
------------------
     ethr =  1.32E-07,  avg # of iterations =  5.2


     -----------------------------------------------
     Non-local corr. energy    =       0.10727201 Ry
     -----------------------------------------------


     total cpu time spent up to now is      359.6 secs

     total energy              =     -26.94446957 Ry
     estimated scf accuracy    <       0.00002059 Ry

     iteration #  7     ecut=   120.00 Ry     beta= 0.70
     Davidson diagonalization with overlap

---- Real-time Memory Report at c_bands before calling an iterative solver
             0 MiB given to the printing process from OS
             0 MiB allocation reported by mallinfo(arena+hblkhd)
             0 MiB available memory on the node where the printing process lives
------------------
     ethr =  1.32E-07,  avg # of iterations =  2.0


     -----------------------------------------------
     Non-local corr. energy    =       0.10727469 Ry
     -----------------------------------------------


     total cpu time spent up to now is      362.6 secs

     total energy              =     -26.94447115 Ry
     estimated scf accuracy    <       0.00000121 Ry

     iteration #  8     ecut=   120.00 Ry     beta= 0.70
     Davidson diagonalization with overlap

---- Real-time Memory Report at c_bands before calling an iterative solver
             0 MiB given to the printing process from OS
             0 MiB allocation reported by mallinfo(arena+hblkhd)
             0 MiB available memory on the node where the printing process lives
------------------
     ethr =  1.51E-08,  avg # of iterations =  3.3


     -----------------------------------------------
     Non-local corr. energy    =       0.10727400 Ry
     -----------------------------------------------


     total cpu time spent up to now is      366.0 secs

     total energy              =     -26.94447171 Ry
     estimated scf accuracy    <       0.00000026 Ry

     iteration #  9     ecut=   120.00 Ry     beta= 0.70
     Davidson diagonalization with overlap

---- Real-time Memory Report at c_bands before calling an iterative solver
             0 MiB given to the printing process from OS
             0 MiB allocation reported by mallinfo(arena+hblkhd)
             0 MiB available memory on the node where the printing process lives
------------------
     ethr =  3.29E-09,  avg # of iterations =  1.7


     -----------------------------------------------
     Non-local corr. energy    =       0.10727452 Ry
     -----------------------------------------------


     total cpu time spent up to now is      368.8 secs

     End of self-consistent calculation

          k = 0.0000 0.0000 0.0000 ( 11935 PWs)   bands (ev):

   -21.0510  -8.8777  -5.0084  -5.0084   0.8545   1.9379   2.8186   4.5579

     occupation numbers 
     1.0000   1.0000   1.0000   1.0000   0.0000   0.0000   0.0000   0.0000

          k =-0.0000 0.0709 0.0000 ( 11891 PWs)   bands (ev):

   -20.9760  -8.7758  -5.3180  -5.1573   0.9841   2.0553   2.9451   4.6697

     occupation numbers 
     1.0000   1.0000   1.0000   1.0000   0.0000   0.0000   0.0000   0.0000

          k =-0.0000 0.1419 0.0000 ( 11872 PWs)   bands (ev):

   -20.7533  -8.4723  -6.1577  -5.5524   1.3639   2.4039   3.3225   4.9940

     occupation numbers 
     1.0000   1.0000   1.0000   1.0000   0.0000   0.0000   0.0000   0.0000

          k =-0.0000 0.2128 0.0000 ( 11886 PWs)   bands (ev):

   -20.3901  -7.9760  -7.3365  -6.0799   1.9798   2.9653   3.9468   5.4577

     occupation numbers 
     1.0000   1.0000   1.0000   1.0000   0.0000   0.0000   0.0000   0.0000

          k =-0.0000 0.2837 0.0000 ( 11882 PWs)   bands (ev):

   -19.9017  -8.6685  -7.3043  -6.6286   2.8220   3.6431   4.8133   5.6064

     occupation numbers 
     1.0000   1.0000   1.0000   1.0000   0.0000   0.0000   0.0000   0.0000

          k =-0.0000 0.3546 0.0000 ( 11888 PWs)   bands (ev):

   -19.3186 -10.0025  -7.1179  -6.4927   3.7234   3.8757   5.5600   5.9053

     occupation numbers 
     1.0000   1.0000   1.0000   1.0000   0.0000   0.0000   0.0000   0.0000

          k =-0.0000 0.4256 0.0000 ( 11910 PWs)   bands (ev):

   -18.7028 -11.1990  -7.4964  -5.6160   2.7016   5.0857   6.5900   6.9986

     occupation numbers 
     1.0000   1.0000   1.0000   1.0000   0.0000   0.0000   0.0000   0.0000

          k =-0.0000 0.4965 0.0000 ( 11898 PWs)   bands (ev):

   -18.1815 -12.0848  -7.7339  -4.8440   1.6760   6.1489   7.5929   8.0446

     occupation numbers 
     1.0000   1.0000   1.0000   1.0000   0.0000   0.0000   0.0000   0.0000

          k = 0.0000-0.5674-0.0000 ( 11914 PWs)   bands (ev):

   -17.9637 -12.4266  -7.8147  -4.5067   1.2393   6.4639   8.6916   9.1979

     occupation numbers 
     1.0000   1.0000   1.0000   1.0000   0.0000   0.0000   0.0000   0.0000

          k = 0.0614 0.1064 0.0000 ( 11879 PWs)   bands (ev):

   -20.8271  -8.5730  -5.8693  -5.4527   1.2389   2.2885   3.1972   4.8883

     occupation numbers 
     1.0000   1.0000   1.0000   1.0000   0.0000   0.0000   0.0000   0.0000

          k = 0.0614 0.1773 0.0000 ( 11878 PWs)   bands (ev):

   -20.5340  -8.1729  -6.8315  -5.9608   1.7376   2.7450   3.6986   5.2907

     occupation numbers 
     1.0000   1.0000   1.0000   1.0000   0.0000   0.0000   0.0000   0.0000

          k = 0.0614 0.2482 0.0000 ( 11879 PWs)   bands (ev):

   -20.1074  -8.0478  -7.5879  -6.5382   2.4692   3.3812   4.4458   5.6570

     occupation numbers 
     1.0000   1.0000   1.0000   1.0000   0.0000   0.0000   0.0000   0.0000

          k = 0.0614 0.3192 0.0000 ( 11890 PWs)   bands (ev):

   -19.5690  -9.3569  -7.0824  -6.8432   3.4239   3.8866   5.4324   5.4678

     occupation numbers 
     1.0000   1.0000   1.0000   1.0000   0.0000   0.0000   0.0000   0.0000

          k = 0.0614 0.3901 0.0000 ( 11891 PWs)   bands (ev):

   -18.9622 -10.6133  -7.5307  -5.9897   3.2481   4.5789   6.0632   6.6233

     occupation numbers 
     1.0000   1.0000   1.0000   1.0000   0.0000   0.0000   0.0000   0.0000

          k = 0.0614 0.4610 0.0000 ( 11904 PWs)   bands (ev):

   -18.3765 -11.6628  -7.8461  -5.1397   2.1443   5.8328   7.3605   7.5044

     occupation numbers 
     1.0000   1.0000   1.0000   1.0000   0.0000   0.0000   0.0000   0.0000

          k = 0.0614 0.5320 0.0000 ( 11910 PWs)   bands (ev):

   -17.9825 -12.2970  -8.0084  -4.5405   1.3657   6.6657   8.2715   8.8926

     occupation numbers 
     1.0000   1.0000   1.0000   1.0000   0.0000   0.0000   0.0000   0.0000

          k = 0.1229 0.2128 0.0000 ( 11852 PWs)   bands (ev):

   -20.1768  -7.7476  -7.6836  -6.6026   2.3538   3.2837   4.3241   5.6397

     occupation numbers 
     1.0000   1.0000   1.0000   1.0000   0.0000   0.0000   0.0000   0.0000

          k = 0.1229 0.2837 0.0000 ( 11874 PWs)   bands (ev):

   -19.6977  -8.8462  -7.2713  -7.0226   3.2035   3.8587   5.1954   5.5539

     occupation numbers 
     1.0000   1.0000   1.0000   1.0000   0.0000   0.0000   0.0000   0.0000

          k = 0.1229 0.3546 0.0000 ( 11893 PWs)   bands (ev):

   -19.1276 -10.0204  -7.8379  -6.2261   3.6410   4.2749   5.7936   6.3055

     occupation numbers 
     1.0000   1.0000   1.0000   1.0000   0.0000   0.0000   0.0000   0.0000

          k = 0.1229 0.4256 0.0000 ( 11887 PWs)   bands (ev):

   -18.5290 -11.1149  -8.2575  -5.3691   2.6337   5.5391   6.8963   7.6069

     occupation numbers 
     1.0000   1.0000   1.0000   1.0000   0.0000   0.0000   0.0000   0.0000

          k = 0.1229 0.4965 0.0000 ( 11901 PWs)   bands (ev):

   -18.0266 -11.9386  -8.5141  -4.6185   1.6830   6.8583   8.3065   8.3952

     occupation numbers 
     1.0000   1.0000   1.0000   1.0000   0.0000   0.0000   0.0000   0.0000

          k = 0.1229 0.5674 0.0000 ( 11906 PWs)   bands (ev):

   -17.8184 -12.2576  -8.6004  -4.2924   1.2782   7.5037   9.0206   9.4676

     occupation numbers 
     1.0000   1.0000   1.0000   1.0000   0.0000   0.0000   0.0000   0.0000

          k = 0.1843 0.3192 0.0000 ( 11870 PWs)   bands (ev):

   -19.1842  -9.7138  -8.0606  -6.3067   3.7779   4.1723   5.7242   6.1918

     occupation numbers 
     1.0000   1.0000   1.0000   1.0000   0.0000   0.0000   0.0000   0.0000

          k = 0.1843 0.3901 0.0000 ( 11882 PWs)   bands (ev):

   -18.6119 -10.6283  -8.7059  -5.4930   2.9581   5.3601   6.6643   7.4267

     occupation numbers 
     1.0000   1.0000   1.0000   1.0000   0.0000   0.0000   0.0000   0.0000

          k = 0.1843 0.4610 0.0000 ( 11885 PWs)   bands (ev):

   -18.0690 -11.4596  -9.1313  -4.6924   2.0232   6.7307   7.9176   8.8447

     occupation numbers 
     1.0000   1.0000   1.0000   1.0000   0.0000   0.0000   0.0000   0.0000

          k = 0.1843 0.5320 0.0000 ( 11903 PWs)   bands (ev):

   -17.7117 -11.9812  -9.3390  -4.1365   1.3748   8.0975   9.0957   9.4313

     occupation numbers 
     1.0000   1.0000   1.0000   1.0000   0.0000   0.0000   0.0000   0.0000

          k = 0.2457 0.4256 0.0000 ( 11866 PWs)   bands (ev):

   -18.0861 -11.1748  -9.4708  -4.7218   2.1730   6.6545   7.7787   8.7819

     occupation numbers 
     1.0000   1.0000   1.0000   1.0000   0.0000   0.0000   0.0000   0.0000

          k = 0.2457 0.4965 0.0000 ( 11881 PWs)   bands (ev):

   -17.6626 -11.6126  -9.9644  -4.0680   1.5045   8.0946   8.7420  10.1960

     occupation numbers 
     1.0000   1.0000   1.0000   1.0000   0.0000   0.0000   0.0000   0.0000

          k = 0.2457 0.5674 0.0000 ( 11890 PWs)   bands (ev):

   -17.4935 -11.7926 -10.1286  -3.7927   1.2237   9.0062   9.1781  10.0572

     occupation numbers 
     1.0000   1.0000   1.0000   1.0000   0.0000   0.0000   0.0000   0.0000

          k = 0.3071 0.5320 0.0000 ( 11898 PWs)   bands (ev):

   -17.4158 -11.5916 -10.5430  -3.6681   1.1844   8.8196   9.3942  10.6831

     occupation numbers 
     1.0000   1.0000   1.0000   1.0000   0.0000   0.0000   0.0000   0.0000

     the Fermi energy is    -1.0471 ev

!    total energy              =     -26.94447174 Ry
     estimated scf accuracy    <          6.8E-09 Ry
     smearing contrib. (-TS)   =       0.00000000 Ry
     internal energy E=F+TS    =     -26.94447174 Ry

     The total energy is F=E-TS. E is the sum of the following terms:
     one-electron contribution =    -153.08587870 Ry
     hartree contribution      =      78.32633366 Ry
     xc contribution           =      -8.73741922 Ry
     ewald contribution        =      56.55249253 Ry

     convergence has been achieved in   9 iterations


     -----------------------------------------------
     Non-local corr. energy    =       0.10727452 Ry
     -----------------------------------------------


     Forces acting on atoms (cartesian axes, Ry/au):

     atom    1 type  2   force =    -0.00000000   -0.00000000   -0.00000000
     atom    2 type  1   force =     0.00000000    0.00000000    0.00000000
     The non-local contrib.  to forces
     atom    1 type  2   force =    -0.00000000    0.00000000    0.00000000
     atom    2 type  1   force =     0.00000000    0.00000000    0.00000000
     The ionic contribution  to forces
     atom    1 type  2   force =    -0.00000001    0.00000000    0.00000000
     atom    2 type  1   force =     0.00000001   -0.00000000   -0.00000000
     The local contribution  to forces
     atom    1 type  2   force =     0.00000000   -0.00000000    0.00000000
     atom    2 type  1   force =     0.00000003   -0.00000002    0.00000000
     The core correction contribution to forces
     atom    1 type  2   force =    -0.00000000    0.00000000   -0.00000000
     atom    2 type  1   force =    -0.00000000    0.00000000   -0.00000000
     The Hubbard contrib.    to forces
     atom    1 type  2   force =     0.00000000    0.00000000    0.00000000
     atom    2 type  1   force =     0.00000000    0.00000000    0.00000000
     The SCF correction term to forces
     atom    1 type  2   force =    -0.00000000   -0.00000000   -0.00000000
     atom    2 type  1   force =     0.00000000    0.00000000   -0.00000000

     Total force =     0.000000     Total SCF correction =     0.000000


     Computing stress (Cartesian axis) and pressure



     -----------------------------------------------
     Non-local corr. energy    =       0.10727452 Ry
     -----------------------------------------------

          total   stress  (Ry/bohr**3)                   (kbar)     P=        0.09
   0.00000088   0.00000000   0.00000000            0.13        0.00        0.00
   0.00000000   0.00000088   0.00000000            0.00        0.13        0.00
  -0.00000000   0.00000000   0.00000007           -0.00        0.00        0.01

     kinetic stress (kbar)   3378.99     -0.00      0.00
                               -0.00   3378.99     -0.00
                                0.00     -0.00   3668.19

     local   stress (kbar) -44048.96      0.00      0.00
                                0.00 -44048.96      0.00
                                0.00      0.00  44582.24

     nonloc. stress (kbar)   -616.08     -0.00     -0.00
                               -0.00   -616.08      0.00
                               -0.00     -0.00   -593.33

     hartree stress (kbar)  20941.38     -0.00      0.00
                               -0.00  20941.38      0.00
                                0.00      0.00 -20367.29

     exc-cor stress (kbar)   -333.45     -0.00     -0.00
                               -0.00   -333.45      0.00
                               -0.00      0.00   -367.84

     corecor stress (kbar)   -378.37      0.00      0.00
                                0.00   -378.37      0.00
                                0.00      0.00   -369.85

     ewald   stress (kbar)  21053.82     -0.00     -0.00
                               -0.00  21053.82     -0.00
                               -0.00     -0.00 -26573.22

     hubbard stress (kbar)      0.00      0.00      0.00
                                0.00      0.00      0.00
                                0.00      0.00      0.00

     DFT-D   stress (kbar)      0.00      0.00      0.00
                                0.00      0.00      0.00
                                0.00      0.00      0.00

     XDM     stress (kbar)      0.00      0.00      0.00
                                0.00      0.00      0.00
                                0.00      0.00      0.00

     dft-nl  stress (kbar)      2.79      0.00     -0.00
                                0.00      2.79      0.00
                               -0.00      0.00     21.12

     TS-vdW  stress (kbar)      0.00      0.00      0.00
                                0.00      0.00      0.00
                                0.00      0.00      0.00

     MDB     stress (kbar)      0.00      0.00      0.00
                                0.00      0.00      0.00
                                0.00      0.00      0.00

     3D-RISM stress (kbar)      0.00      0.00      0.00
                                0.00      0.00      0.00
                                0.00      0.00      0.00


     Writing all to output data dir ./tmp/hBN_1l_LDA.save/

     init_run     :     68.74s CPU     68.98s WALL (       2 calls)
     electrons    :    236.98s CPU    219.76s WALL (       5 calls)
     update_pot   :     20.23s CPU     20.44s WALL (       3 calls)
     forces       :     21.00s CPU     21.34s WALL (       5 calls)
     stress       :     51.48s CPU     54.59s WALL (       5 calls)

     Called by init_run:
     wfcinit      :      2.39s CPU      2.34s WALL (       2 calls)
     wfcinit:atom :      0.08s CPU      0.09s WALL (      60 calls)
     wfcinit:wfcr :      2.04s CPU      1.98s WALL (      60 calls)
     potinit      :     59.75s CPU     60.01s WALL (       2 calls)
     hinit0       :      6.48s CPU      6.51s WALL (       2 calls)

     Called by electrons:
     c_bands      :    187.26s CPU    166.67s WALL (      51 calls)
     sum_band     :     20.01s CPU     20.16s WALL (      51 calls)
     v_of_rho     :     87.17s CPU     90.43s WALL (      56 calls)
     v_h          :      0.19s CPU      0.19s WALL (      56 calls)
     v_xc         :     92.69s CPU     96.50s WALL (      66 calls)
     mix_rho      :      0.69s CPU      1.01s WALL (      51 calls)
     vdW_kernel   :     55.42s CPU     55.55s WALL (       1 calls)

     Called by c_bands:
     init_us_2    :      4.96s CPU      4.97s WALL (    3420 calls)
     init_us_2:cp :      4.95s CPU      4.97s WALL (    3420 calls)
     cegterg      :    181.71s CPU    161.07s WALL (    1530 calls)

     Called by sum_band:
     sum_band:wei :      0.00s CPU      0.00s WALL (      51 calls)
     sum_band:loo :     19.59s CPU     19.71s WALL (      51 calls)
     sum_band:buf :      0.20s CPU      0.21s WALL (    1530 calls)
     sum_band:ini :      2.20s CPU      2.20s WALL (    1530 calls)

     Called by *egterg:
     cdiaghg      :      0.75s CPU      0.76s WALL (   10503 calls)
     cegterg:over :      8.30s CPU      8.36s WALL (    9063 calls)
     cegterg:upda :     10.66s CPU      3.96s WALL (    9063 calls)
     cegterg:last :     12.07s CPU      3.35s WALL (    5199 calls)
     h_psi        :    148.02s CPU    142.45s WALL (   10653 calls)
     g_psi        :      1.63s CPU      1.64s WALL (    9063 calls)

     Called by h_psi:
     h_psi:calbec :      5.98s CPU      6.02s WALL (   10653 calls)
     vloc_psi     :    131.26s CPU    132.92s WALL (   10653 calls)
     add_vuspsi   :     10.07s CPU      2.74s WALL (   10653 calls)

     General routines
     calbec       :      6.65s CPU      6.68s WALL (   11403 calls)
     fft          :     10.77s CPU     10.80s WALL (    4203 calls)
     ffts         :      0.11s CPU      0.11s WALL (      51 calls)
     fftw         :    126.35s CPU    126.69s WALL (  105322 calls)

     Parallel routines

     PWSCF        :   6m38.54s CPU   6m25.32s WALL


   This run was terminated on:  10:41:39   5Apr2024            

=------------------------------------------------------------------------------=
   JOB DONE.
=------------------------------------------------------------------------------=
