
     Program PWSCF v.6.7MaX starts on 14Feb2024 at 15:11:46 

     This program is part of the open-source Quantum ESPRESSO suite
     for quantum simulation of materials; please cite
         "P. Giannozzi et al., J. Phys.:Condens. Matter 21 395502 (2009);
         "P. Giannozzi et al., J. Phys.:Condens. Matter 29 465901 (2017);
          URL http://www.quantum-espresso.org", 
     in publications or presentations arising from this work. More details at
     http://www.quantum-espresso.org/quote

     Parallel version (MPI), running on     1 processors

     MPI processes distributed on     1 nodes
     Waiting for input...
     Reading input from standard input

     Current dimensions of program PWSCF are:
     Max number of different atomic species (ntypx) = 10
     Max number of k-points (npk) =  40000
     Max angular momentum in pseudopotentials (lmaxx) =  3
     Message from routine read_pp_mesh:
     mesh size missing, using the one in header
     Message from routine read_pp_mesh:
     mesh size missing, using the one in header

     Subspace diagonalization in iterative solution of the eigenvalue problem:
     a serial algorithm will be used


     G-vector sticks info
     --------------------
     sticks:   dense  smooth     PW     G-vecs:    dense   smooth      PW
     Sum         361     361    109                32597    32597    5573



     bravais-lattice index     =            4
     lattice parameter (alat)  =       4.6350  a.u.
     unit-cell volume          =     517.4056 (a.u.)^3
     number of atoms/cell      =            2
     number of atomic types    =            2
     number of electrons       =         8.00
     number of Kohn-Sham states=            8
     kinetic-energy cutoff     =      60.0000  Ry
     charge density cutoff     =     240.0000  Ry
     scf convergence threshold =      1.0E-06
     mixing beta               =       0.7000
     number of iterations used =            8  plain     mixing
     energy convergence thresh.=      1.0E-04
     force convergence thresh. =      1.0E-03
     press convergence thresh. =      5.0E-01
     Exchange-correlation= PZ
                           (   1   1   0   0   0   0   0)
     nstep                     =           50


     celldm(1)=   4.635000  celldm(2)=   0.000000  celldm(3)=   6.000000
     celldm(4)=   0.000000  celldm(5)=   0.000000  celldm(6)=   0.000000

     crystal axes: (cart. coord. in units of alat)
               a(1) = (   1.000000   0.000000   0.000000 )  
               a(2) = (  -0.500000   0.866025   0.000000 )  
               a(3) = (   0.000000   0.000000   6.000000 )  

     reciprocal axes: (cart. coord. in units 2 pi/alat)
               b(1) = (  1.000000  0.577350 -0.000000 )  
               b(2) = (  0.000000  1.154701  0.000000 )  
               b(3) = (  0.000000 -0.000000  0.166667 )  


     PseudoPot. # 1 for N  read from file:
     ../../../Pseudo/LDA/N.upf
     MD5 check sum: eaa4f6f5012208d670216a7009287cf2
     Pseudo is Norm-conserving + core correction, Zval =  5.0
     Generated using ONCVPSP code by D. R. Hamann
     Using radial grid of 1054 points,  4 beta functions with: 
                l(1) =   0
                l(2) =   0
                l(3) =   1
                l(4) =   1

     PseudoPot. # 2 for B  read from file:
     ../../../Pseudo/LDA/B.upf
     MD5 check sum: 3e2a19024e57b4f161828f4b68a773bc
     Pseudo is Norm-conserving + core correction, Zval =  3.0
     Generated using ONCVPSP code by D. R. Hamann
     Using radial grid of 1508 points,  4 beta functions with: 
                l(1) =   0
                l(2) =   0
                l(3) =   1
                l(4) =   1

     atomic species   valence    mass     pseudopotential
        N              5.00    14.00670     N ( 1.00)
        B              3.00    10.80100     B ( 1.00)

     12 Sym. Ops. (no inversion) found


                                    s                        frac. trans.

      isym =  1     identity                                     

 cryst.   s( 1) = (     1          0          0      )
                  (     0          1          0      )
                  (     0          0          1      )

 cart.    s( 1) = (  1.0000000  0.0000000  0.0000000 )
                  (  0.0000000  1.0000000  0.0000000 )
                  (  0.0000000  0.0000000  1.0000000 )


      isym =  2     180 deg rotation - cart. axis [0,1,0]        

 cryst.   s( 2) = (    -1          0          0      )
                  (     1          1          0      )
                  (     0          0         -1      )

 cart.    s( 2) = ( -1.0000000  0.0000000  0.0000000 )
                  (  0.0000000  1.0000000  0.0000000 )
                  (  0.0000000  0.0000000 -1.0000000 )


      isym =  3     120 deg rotation - cryst. axis [0,0,1]       

 cryst.   s( 3) = (     0          1          0      )
                  (    -1         -1          0      )
                  (     0          0          1      )

 cart.    s( 3) = ( -0.5000000 -0.8660254  0.0000000 )
                  (  0.8660254 -0.5000000  0.0000000 )
                  (  0.0000000  0.0000000  1.0000000 )


      isym =  4     120 deg rotation - cryst. axis [0,0,-1]      

 cryst.   s( 4) = (    -1         -1          0      )
                  (     1          0          0      )
                  (     0          0          1      )

 cart.    s( 4) = ( -0.5000000  0.8660254  0.0000000 )
                  ( -0.8660254 -0.5000000  0.0000000 )
                  (  0.0000000  0.0000000  1.0000000 )


      isym =  5     180 deg rotation - cryst. axis [1,-1,0]      

 cryst.   s( 5) = (     0         -1          0      )
                  (    -1          0          0      )
                  (     0          0         -1      )

 cart.    s( 5) = (  0.5000000 -0.8660254  0.0000000 )
                  ( -0.8660254 -0.5000000  0.0000000 )
                  (  0.0000000  0.0000000 -1.0000000 )


      isym =  6     180 deg rotation - cryst. axis [2,1,0]       

 cryst.   s( 6) = (     1          1          0      )
                  (     0         -1          0      )
                  (     0          0         -1      )

 cart.    s( 6) = (  0.5000000  0.8660254  0.0000000 )
                  (  0.8660254 -0.5000000  0.0000000 )
                  (  0.0000000  0.0000000 -1.0000000 )


      isym =  7     inv. 180 deg rotation - cart. axis [0,0,1]   

 cryst.   s( 7) = (     1          0          0      )
                  (     0          1          0      )
                  (     0          0         -1      )

 cart.    s( 7) = (  1.0000000  0.0000000  0.0000000 )
                  (  0.0000000  1.0000000  0.0000000 )
                  (  0.0000000  0.0000000 -1.0000000 )


      isym =  8     inv. 180 deg rotation - cart. axis [1,0,0]   

 cryst.   s( 8) = (    -1          0          0      )
                  (     1          1          0      )
                  (     0          0          1      )

 cart.    s( 8) = ( -1.0000000  0.0000000  0.0000000 )
                  (  0.0000000  1.0000000  0.0000000 )
                  (  0.0000000  0.0000000  1.0000000 )


      isym =  9     inv.  60 deg rotation - cryst. axis [0,0,1]  

 cryst.   s( 9) = (    -1         -1          0      )
                  (     1          0          0      )
                  (     0          0         -1      )

 cart.    s( 9) = ( -0.5000000  0.8660254  0.0000000 )
                  ( -0.8660254 -0.5000000  0.0000000 )
                  (  0.0000000  0.0000000 -1.0000000 )


      isym = 10     inv.  60 deg rotation - cryst. axis [0,0,-1] 

 cryst.   s(10) = (     0          1          0      )
                  (    -1         -1          0      )
                  (     0          0         -1      )

 cart.    s(10) = ( -0.5000000 -0.8660254  0.0000000 )
                  (  0.8660254 -0.5000000  0.0000000 )
                  (  0.0000000  0.0000000 -1.0000000 )


      isym = 11     inv. 180 deg rotation - cryst. axis [0,1,0]  

 cryst.   s(11) = (     1          1          0      )
                  (     0         -1          0      )
                  (     0          0          1      )

 cart.    s(11) = (  0.5000000  0.8660254  0.0000000 )
                  (  0.8660254 -0.5000000  0.0000000 )
                  (  0.0000000  0.0000000  1.0000000 )


      isym = 12     inv. 180 deg rotation - cryst. axis [1,1,0]  

 cryst.   s(12) = (     0         -1          0      )
                  (    -1          0          0      )
                  (     0          0          1      )

 cart.    s(12) = (  0.5000000 -0.8660254  0.0000000 )
                  ( -0.8660254 -0.5000000  0.0000000 )
                  (  0.0000000  0.0000000  1.0000000 )


     point group D_3h (-62m)
     there are  6 classes
     the character table:

       E     2C3   3C2   s_h   2S3   3s_v 
A'_1   1.00  1.00  1.00  1.00  1.00  1.00
A'_2   1.00  1.00 -1.00  1.00  1.00 -1.00
E'     2.00 -1.00  0.00  2.00 -1.00  0.00
A''1   1.00  1.00  1.00 -1.00 -1.00 -1.00
A''2   1.00  1.00 -1.00 -1.00 -1.00  1.00
E''    2.00 -1.00  0.00 -2.00  1.00  0.00

     the symmetry operations in each class and the name of the first element:

     E        1
          identity                                               
     2C3      3    4
          120 deg rotation - cryst. axis [0,0,1]                 
     3C2      2    6    5
          180 deg rotation - cart. axis [0,1,0]                  
     s_h      7
          inv. 180 deg rotation - cart. axis [0,0,1]             
     2S3      9   10
          inv.  60 deg rotation - cryst. axis [0,0,1]            
     3s_v     8   11   12
          inv. 180 deg rotation - cart. axis [1,0,0]             

   Cartesian axes

     site n.     atom                  positions (alat units)
         1           B   tau(   1) = (   0.0000000   0.0000000   0.0000000  )
         2           N   tau(   2) = (  -0.0000000   0.5773503   0.0000000  )

   Crystallographic axes

     site n.     atom                  positions (cryst. coord.)
         1           B   tau(   1) = (  0.0000000  0.0000000  0.0000000  )
         2           N   tau(   2) = (  0.3333333  0.6666667  0.0000000  )

     number of k points=    30  Marzari-Vanderbilt smearing, width (Ry)=  0.0100
                       cart. coord. in units 2pi/alat
        k(    1) = (   0.0000000   0.0000000   0.0000000), wk =   0.0078125
        k(    2) = (   0.0000000   0.0721688   0.0000000), wk =   0.0468750
        k(    3) = (   0.0000000   0.1443376   0.0000000), wk =   0.0468750
        k(    4) = (   0.0000000   0.2165064   0.0000000), wk =   0.0468750
        k(    5) = (   0.0000000   0.2886751   0.0000000), wk =   0.0468750
        k(    6) = (   0.0000000   0.3608439   0.0000000), wk =   0.0468750
        k(    7) = (   0.0000000   0.4330127   0.0000000), wk =   0.0468750
        k(    8) = (   0.0000000   0.5051815   0.0000000), wk =   0.0468750
        k(    9) = (   0.0000000  -0.5773503   0.0000000), wk =   0.0234375
        k(   10) = (   0.0625000   0.1082532   0.0000000), wk =   0.0468750
        k(   11) = (   0.0625000   0.1804220   0.0000000), wk =   0.0937500
        k(   12) = (   0.0625000   0.2525907   0.0000000), wk =   0.0937500
        k(   13) = (   0.0625000   0.3247595   0.0000000), wk =   0.0937500
        k(   14) = (   0.0625000   0.3969283   0.0000000), wk =   0.0937500
        k(   15) = (   0.0625000   0.4690971   0.0000000), wk =   0.0937500
        k(   16) = (   0.0625000   0.5412659   0.0000000), wk =   0.0937500
        k(   17) = (   0.1250000   0.2165064   0.0000000), wk =   0.0468750
        k(   18) = (   0.1250000   0.2886751   0.0000000), wk =   0.0937500
        k(   19) = (   0.1250000   0.3608439   0.0000000), wk =   0.0937500
        k(   20) = (   0.1250000   0.4330127   0.0000000), wk =   0.0937500
        k(   21) = (   0.1250000   0.5051815   0.0000000), wk =   0.0937500
        k(   22) = (   0.1250000   0.5773503   0.0000000), wk =   0.0468750
        k(   23) = (   0.1875000   0.3247595   0.0000000), wk =   0.0468750
        k(   24) = (   0.1875000   0.3969283   0.0000000), wk =   0.0937500
        k(   25) = (   0.1875000   0.4690971   0.0000000), wk =   0.0937500
        k(   26) = (   0.1875000   0.5412659   0.0000000), wk =   0.0937500
        k(   27) = (   0.2500000   0.4330127   0.0000000), wk =   0.0468750
        k(   28) = (   0.2500000   0.5051815   0.0000000), wk =   0.0937500
        k(   29) = (   0.2500000   0.5773503   0.0000000), wk =   0.0468750
        k(   30) = (   0.3125000   0.5412659   0.0000000), wk =   0.0468750

                       cryst. coord.
        k(    1) = (   0.0000000   0.0000000   0.0000000), wk =   0.0078125
        k(    2) = (   0.0000000   0.0625000   0.0000000), wk =   0.0468750
        k(    3) = (   0.0000000   0.1250000   0.0000000), wk =   0.0468750
        k(    4) = (   0.0000000   0.1875000   0.0000000), wk =   0.0468750
        k(    5) = (   0.0000000   0.2500000   0.0000000), wk =   0.0468750
        k(    6) = (   0.0000000   0.3125000   0.0000000), wk =   0.0468750
        k(    7) = (   0.0000000   0.3750000   0.0000000), wk =   0.0468750
        k(    8) = (   0.0000000   0.4375000   0.0000000), wk =   0.0468750
        k(    9) = (   0.0000000  -0.5000000   0.0000000), wk =   0.0234375
        k(   10) = (   0.0625000   0.0625000   0.0000000), wk =   0.0468750
        k(   11) = (   0.0625000   0.1250000   0.0000000), wk =   0.0937500
        k(   12) = (   0.0625000   0.1875000   0.0000000), wk =   0.0937500
        k(   13) = (   0.0625000   0.2500000   0.0000000), wk =   0.0937500
        k(   14) = (   0.0625000   0.3125000   0.0000000), wk =   0.0937500
        k(   15) = (   0.0625000   0.3750000   0.0000000), wk =   0.0937500
        k(   16) = (   0.0625000   0.4375000   0.0000000), wk =   0.0937500
        k(   17) = (   0.1250000   0.1250000   0.0000000), wk =   0.0468750
        k(   18) = (   0.1250000   0.1875000   0.0000000), wk =   0.0937500
        k(   19) = (   0.1250000   0.2500000   0.0000000), wk =   0.0937500
        k(   20) = (   0.1250000   0.3125000   0.0000000), wk =   0.0937500
        k(   21) = (   0.1250000   0.3750000   0.0000000), wk =   0.0937500
        k(   22) = (   0.1250000   0.4375000   0.0000000), wk =   0.0468750
        k(   23) = (   0.1875000   0.1875000   0.0000000), wk =   0.0468750
        k(   24) = (   0.1875000   0.2500000   0.0000000), wk =   0.0937500
        k(   25) = (   0.1875000   0.3125000   0.0000000), wk =   0.0937500
        k(   26) = (   0.1875000   0.3750000   0.0000000), wk =   0.0937500
        k(   27) = (   0.2500000   0.2500000   0.0000000), wk =   0.0468750
        k(   28) = (   0.2500000   0.3125000   0.0000000), wk =   0.0937500
        k(   29) = (   0.2500000   0.3750000   0.0000000), wk =   0.0468750
        k(   30) = (   0.3125000   0.3125000   0.0000000), wk =   0.0468750

     Dense  grid:    32597 G-vectors     FFT dimensions: (  24,  24, 144)

     Dynamical RAM for                 wfc:       0.50 MB

     Dynamical RAM for     wfc (w. buffer):      15.37 MB

     Dynamical RAM for           str. fact:       0.99 MB

     Dynamical RAM for           local pot:       0.00 MB

     Dynamical RAM for          nlocal pot:       0.99 MB

     Dynamical RAM for                qrad:       1.42 MB

     Dynamical RAM for          rho,v,vnew:       3.39 MB

     Dynamical RAM for               rhoin:       1.13 MB

     Dynamical RAM for            rho*nmix:       7.96 MB

     Dynamical RAM for           G-vectors:       2.11 MB

     Dynamical RAM for          h,s,v(r/c):       0.01 MB

     Dynamical RAM for          <psi|beta>:       0.00 MB

     Dynamical RAM for                 psi:       0.99 MB

     Dynamical RAM for                hpsi:       0.99 MB

     Dynamical RAM for      wfcinit/wfcrot:       0.99 MB

     Estimated static dynamical RAM per process >      38.02 MB

     Estimated max dynamical RAM per process >      40.02 MB

     Initial potential from superposition of free atoms

     starting charge    7.99978, renormalised to    8.00000

     negative rho (up, down):  6.500E-05 0.000E+00
     Starting wfcs are    8 randomized atomic wfcs

     total cpu time spent up to now is        2.8 secs

     Self-consistent Calculation

     iteration #  1     ecut=    60.00 Ry     beta= 0.70
     Davidson diagonalization with overlap
     ethr =  1.00E-02,  avg # of iterations =  7.8

     negative rho (up, down):  7.469E-06 0.000E+00

     total cpu time spent up to now is        5.1 secs

     total energy              =     -26.67636517 Ry
     estimated scf accuracy    <       0.42899952 Ry

     iteration #  2     ecut=    60.00 Ry     beta= 0.70
     Davidson diagonalization with overlap
     ethr =  5.36E-03,  avg # of iterations =  3.9

     negative rho (up, down):  2.776E-06 0.000E+00

     total cpu time spent up to now is        6.7 secs

     total energy              =     -26.77783986 Ry
     estimated scf accuracy    <       0.17470756 Ry

     iteration #  3     ecut=    60.00 Ry     beta= 0.70
     Davidson diagonalization with overlap
     ethr =  2.18E-03,  avg # of iterations =  2.7

     total cpu time spent up to now is        8.5 secs

     total energy              =     -26.81216763 Ry
     estimated scf accuracy    <       0.00156348 Ry

     iteration #  4     ecut=    60.00 Ry     beta= 0.70
     Davidson diagonalization with overlap
     ethr =  1.95E-05,  avg # of iterations = 10.0

     total cpu time spent up to now is       11.3 secs

     total energy              =     -26.81353789 Ry
     estimated scf accuracy    <       0.00083751 Ry

     iteration #  5     ecut=    60.00 Ry     beta= 0.70
     Davidson diagonalization with overlap
     ethr =  1.05E-05,  avg # of iterations =  1.9

     total cpu time spent up to now is       13.5 secs

     total energy              =     -26.81368045 Ry
     estimated scf accuracy    <       0.00000721 Ry

     iteration #  6     ecut=    60.00 Ry     beta= 0.70
     Davidson diagonalization with overlap
     ethr =  9.02E-08,  avg # of iterations =  4.9

     total cpu time spent up to now is       16.9 secs

     total energy              =     -26.81368769 Ry
     estimated scf accuracy    <       0.00001395 Ry

     iteration #  7     ecut=    60.00 Ry     beta= 0.70
     Davidson diagonalization with overlap
     ethr =  9.02E-08,  avg # of iterations =  2.0

     total cpu time spent up to now is       18.4 secs

     End of self-consistent calculation

          k = 0.0000 0.0000 0.0000 (  4053 PWs)   bands (ev):

   -21.4023  -9.2159  -4.8566  -4.8566   1.1771   2.3237   2.7583   4.6528

     occupation numbers 
     1.0000   1.0000   1.0000   1.0000   0.0000   0.0000   0.0000   0.0000

          k = 0.0000 0.0722 0.0000 (  4058 PWs)   bands (ev):

   -21.3235  -9.1085  -5.1806  -5.0171   1.3105   2.4463   2.8891   4.7680

     occupation numbers 
     1.0000   1.0000   1.0000   1.0000   0.0000   0.0000   0.0000   0.0000

          k = 0.0000 0.1443 0.0000 (  4068 PWs)   bands (ev):

   -21.0894  -8.7890  -6.0607  -5.4424   1.7013   2.8102   3.2794   5.1032

     occupation numbers 
     1.0000   1.0000   1.0000   1.0000   0.0000   0.0000   0.0000   0.0000

          k = 0.0000 0.2165 0.0000 (  4078 PWs)   bands (ev):

   -20.7069  -8.2661  -7.2978  -6.0068   2.3350   3.3962   3.9253   5.5893

     occupation numbers 
     1.0000   1.0000   1.0000   1.0000   0.0000   0.0000   0.0000   0.0000

          k = 0.0000 0.2887 0.0000 (  4058 PWs)   bands (ev):

   -20.1905  -8.6968  -7.5563  -6.5906   3.2011   4.0925   4.8229   5.8217

     occupation numbers 
     1.0000   1.0000   1.0000   1.0000   0.0000   0.0000   0.0000   0.0000

          k = 0.0000 0.3608 0.0000 (  4068 PWs)   bands (ev):

   -19.5704 -10.1033  -7.1099  -6.6958   4.0225   4.2820   5.9569   5.9615

     occupation numbers 
     1.0000   1.0000   1.0000   1.0000   0.0000   0.0000   0.0000   0.0000

          k = 0.0000 0.4330 0.0000 (  4080 PWs)   bands (ev):

   -18.9086 -11.3728  -7.5110  -5.7600   2.8451   5.5139   7.1087   7.2366

     occupation numbers 
     1.0000   1.0000   1.0000   1.0000   0.0000   0.0000   0.0000   0.0000

          k = 0.0000 0.5052 0.0000 (  4060 PWs)   bands (ev):

   -18.3390 -12.3238  -7.7618  -4.9238   1.7184   6.5632   8.0735   8.6375

     occupation numbers 
     1.0000   1.0000   1.0000   1.0000   0.0000   0.0000   0.0000   0.0000

          k = 0.0000-0.5774 0.0000 (  4104 PWs)   bands (ev):

   -18.0973 -12.6964  -7.8481  -4.5551   1.2367   6.8637   9.1974   9.8031

     occupation numbers 
     1.0000   1.0000   1.0000   1.0000   0.0000   0.0000   0.0000   0.0000

          k = 0.0625 0.1083 0.0000 (  4077 PWs)   bands (ev):

   -21.1672  -8.8951  -5.7581  -5.3357   1.5727   2.6896   3.1497   4.9935

     occupation numbers 
     1.0000   1.0000   1.0000   1.0000   0.0000   0.0000   0.0000   0.0000

          k = 0.0625 0.1804 0.0000 (  4069 PWs)   bands (ev):

   -20.8586  -8.4737  -6.7659  -5.8797   2.0861   3.1663   3.6683   5.4119

     occupation numbers 
     1.0000   1.0000   1.0000   1.0000   0.0000   0.0000   0.0000   0.0000

          k = 0.0625 0.2526 0.0000 (  4058 PWs)   bands (ev):

   -20.4082  -8.0429  -7.8563  -6.4946   2.8391   3.8284   4.4416   5.8275

     occupation numbers 
     1.0000   1.0000   1.0000   1.0000   0.0000   0.0000   0.0000   0.0000

          k = 0.0625 0.3248 0.0000 (  4075 PWs)   bands (ev):

   -19.8374  -9.4221  -7.0717  -7.0682   3.8205   4.2853   5.4647   5.7737

     occupation numbers 
     1.0000   1.0000   1.0000   1.0000   0.0000   0.0000   0.0000   0.0000

          k = 0.0625 0.3969 0.0000 (  4052 PWs)   bands (ev):

   -19.1885 -10.7514  -7.5451  -6.1597   3.4582   5.0041   6.5411   6.7178

     occupation numbers 
     1.0000   1.0000   1.0000   1.0000   0.0000   0.0000   0.0000   0.0000

          k = 0.0625 0.4691 0.0000 (  4066 PWs)   bands (ev):

   -18.5538 -11.8723  -7.8781  -5.2465   2.2363   6.2733   7.8960   7.9212

     occupation numbers 
     1.0000   1.0000   1.0000   1.0000   0.0000   0.0000   0.0000   0.0000

          k = 0.0625 0.5413 0.0000 (  4077 PWs)   bands (ev):

   -18.1188 -12.5595  -8.0490  -4.5936   1.3800   7.0838   8.7859   9.5115

     occupation numbers 
     1.0000   1.0000   1.0000   1.0000   0.0000   0.0000   0.0000   0.0000

          k = 0.1250 0.2165 0.0000 (  4063 PWs)   bands (ev):

   -20.4817  -7.9575  -7.7243  -6.5653   2.7210   3.7278   4.3154   5.7977

     occupation numbers 
     1.0000   1.0000   1.0000   1.0000   0.0000   0.0000   0.0000   0.0000

          k = 0.1250 0.2887 0.0000 (  4078 PWs)   bands (ev):

   -19.9743  -8.8817  -7.2726  -7.2589   3.5960   4.2975   5.2173   5.8200

     occupation numbers 
     1.0000   1.0000   1.0000   1.0000   0.0000   0.0000   0.0000   0.0000

          k = 0.1250 0.3608 0.0000 (  4057 PWs)   bands (ev):

   -19.3662 -10.1254  -7.8672  -6.4127   3.9159   4.6978   6.2353   6.3688

     occupation numbers 
     1.0000   1.0000   1.0000   1.0000   0.0000   0.0000   0.0000   0.0000

          k = 0.1250 0.4330 0.0000 (  4069 PWs)   bands (ev):

   -18.7208 -11.2935  -8.3067  -5.4963   2.7842   5.9931   7.4318   7.7447

     occupation numbers 
     1.0000   1.0000   1.0000   1.0000   0.0000   0.0000   0.0000   0.0000

          k = 0.1250 0.5052 0.0000 (  4064 PWs)   bands (ev):

   -18.1696 -12.1831  -8.5750  -4.6828   1.7407   7.3279   8.8569   8.8931

     occupation numbers 
     1.0000   1.0000   1.0000   1.0000   0.0000   0.0000   0.0000   0.0000

          k = 0.1250 0.5774 0.0000 (  4072 PWs)   bands (ev):

   -17.9371 -12.5326  -8.6652  -4.3246   1.2933   7.9582   9.5232   9.9987

     occupation numbers 
     1.0000   1.0000   1.0000   1.0000   0.0000   0.0000   0.0000   0.0000

          k = 0.1875 0.3248 0.0000 (  4066 PWs)   bands (ev):

   -19.4270  -9.8010  -8.1028  -6.4991   4.0828   4.5939   6.1498   6.2488

     occupation numbers 
     1.0000   1.0000   1.0000   1.0000   0.0000   0.0000   0.0000   0.0000

          k = 0.1875 0.3969 0.0000 (  4055 PWs)   bands (ev):

   -18.8113 -10.7821  -8.7743  -5.6303   3.1526   5.8153   7.1847   7.5298

     occupation numbers 
     1.0000   1.0000   1.0000   1.0000   0.0000   0.0000   0.0000   0.0000

          k = 0.1875 0.4691 0.0000 (  4044 PWs)   bands (ev):

   -18.2180 -11.6841  -9.2136  -4.7674   2.1301   7.2195   8.4731   9.0333

     occupation numbers 
     1.0000   1.0000   1.0000   1.0000   0.0000   0.0000   0.0000   0.0000

          k = 0.1875 0.5413 0.0000 (  4054 PWs)   bands (ev):

   -17.8198 -12.2587  -9.4279  -4.1588   1.4166   8.6061   9.5089   9.9315

     occupation numbers 
     1.0000   1.0000   1.0000   1.0000   0.0000   0.0000   0.0000   0.0000

          k = 0.2500 0.4330 0.0000 (  4056 PWs)   bands (ev):

   -18.2377 -11.3915  -9.5622  -4.8012   2.3030   7.1448   8.3189   8.9380

     occupation numbers 
     1.0000   1.0000   1.0000   1.0000   0.0000   0.0000   0.0000   0.0000

          k = 0.2500 0.5052 0.0000 (  4040 PWs)   bands (ev):

   -17.7664 -11.8950 -10.0615  -4.0884   1.5749   8.6169   9.0653  10.5272

     occupation numbers 
     1.0000   1.0000   1.0000   1.0000   0.0000   0.0000   0.0000   0.0000

          k = 0.2500 0.5774 0.0000 (  4052 PWs)   bands (ev):

   -17.5752 -12.1053 -10.2262  -3.7844   1.2651   9.1449   9.7187  10.5619

     occupation numbers 
     1.0000   1.0000   1.0000   1.0000   0.0000   0.0000   0.0000   0.0000

          k = 0.3125 0.5413 0.0000 (  4030 PWs)   bands (ev):

   -17.4874 -11.9407 -10.6196  -3.6484   1.2289   8.8928   9.9363  11.1804

     occupation numbers 
     1.0000   1.0000   1.0000   1.0000   0.0000   0.0000   0.0000   0.0000

     the Fermi energy is    -0.9701 ev

!    total energy              =     -26.81368865 Ry
     estimated scf accuracy    <       0.00000081 Ry
     smearing contrib. (-TS)   =       0.00000000 Ry
     internal energy E=F+TS    =     -26.81368865 Ry

     The total energy is F=E-TS. E is the sum of the following terms:
     one-electron contribution =    -158.40940350 Ry
     hartree contribution      =      80.96204469 Ry
     xc contribution           =      -8.65644331 Ry
     ewald contribution        =      59.29011346 Ry

     convergence has been achieved in   7 iterations

     Forces acting on atoms (cartesian axes, Ry/au):

     atom    1 type  2   force =     0.00000000    0.00000000    0.00000000
     atom    2 type  1   force =    -0.00000000   -0.00000000    0.00000000
     The non-local contrib.  to forces
     atom    1 type  2   force =     0.00000000    0.00000000    0.00000000
     atom    2 type  1   force =    -0.00000000   -0.00000000    0.00000000
     The ionic contribution  to forces
     atom    1 type  2   force =    -0.00000001    0.00000000   -0.00000000
     atom    2 type  1   force =     0.00000001   -0.00000000   -0.00000000
     The local contribution  to forces
     atom    1 type  2   force =    -0.00000000   -0.00000000    0.00000000
     atom    2 type  1   force =     0.00000003   -0.00000002    0.00000000
     The core correction contribution to forces
     atom    1 type  2   force =     0.00000000   -0.00000000    0.00000000
     atom    2 type  1   force =    -0.00000000    0.00000000    0.00000000
     The Hubbard contrib.    to forces
     atom    1 type  2   force =     0.00000000    0.00000000    0.00000000
     atom    2 type  1   force =     0.00000000    0.00000000    0.00000000
     The SCF correction term to forces
     atom    1 type  2   force =     0.00000000   -0.00000000   -0.00000000
     atom    2 type  1   force =     0.00000000   -0.00000000   -0.00000000

     Total force =     0.000000     Total SCF correction =     0.000000


     Computing stress (Cartesian axis) and pressure

          total   stress  (Ry/bohr**3)                   (kbar)     P=       13.94
   0.00018436  -0.00000000   0.00000000           27.12       -0.00        0.00
  -0.00000000   0.00018436   0.00000000           -0.00       27.12        0.00
   0.00000000   0.00000000  -0.00008444            0.00        0.00      -12.42

     kinetic stress (kbar)   3524.90      0.00      0.00
                                0.00   3524.90      0.00
                                0.00      0.00   3795.82

     local   stress (kbar) -47243.75      0.00     -0.00
                                0.00 -47243.75     -0.00
                               -0.00     -0.00  47907.66

     nonloc. stress (kbar)   -649.58     -0.00      0.00
                               -0.00   -649.58      0.00
                               -0.00     -0.00   -615.78

     hartree stress (kbar)  22456.82     -0.00     -0.00
                               -0.00  22456.82      0.00
                               -0.00      0.00 -21895.09

     exc-cor stress (kbar)   -346.72      0.00      0.00
                                0.00   -346.72      0.00
                                0.00      0.00   -346.72

     corecor stress (kbar)   -384.21      0.00      0.00
                                0.00   -384.21      0.00
                                0.00      0.00   -375.93

     ewald   stress (kbar)  22669.65     -0.00     -0.00
                               -0.00  22669.65     -0.00
                               -0.00     -0.00 -28482.36

     hubbard stress (kbar)      0.00      0.00      0.00
                                0.00      0.00      0.00
                                0.00      0.00      0.00

     DFT-D   stress (kbar)      0.00      0.00      0.00
                                0.00      0.00      0.00
                                0.00      0.00      0.00

     XDM     stress (kbar)      0.00      0.00      0.00
                                0.00      0.00      0.00
                                0.00      0.00      0.00

     dft-nl  stress (kbar)      0.00      0.00      0.00
                                0.00      0.00      0.00
                                0.00      0.00      0.00

     TS-vdW  stress (kbar)      0.00      0.00      0.00
                                0.00      0.00      0.00
                                0.00      0.00      0.00



     BFGS Geometry Optimization
     Energy error            =      0.0E+00
     Gradient error          =      2.8E-25
     Cell gradient error     =      1.8E-04


     number of scf cycles    =   1
     number of bfgs steps    =   0

     enthalpy new            =     -26.8136886483 Ry

     new trust radius        =       0.0209673431 bohr
     new conv_thr            =       0.0000010000 Ry

     new unit-cell volume =    521.08355 a.u.^3 (    77.21662 Ang^3 )
     density =      0.53349 g/cm^3

CELL_PARAMETERS (alat=  4.63500000)
   1.004608906  -0.000000000   0.000000000
  -0.502304453   0.870016834   0.000000000
   0.000000000   0.000000000   5.987333766

ATOMIC_POSITIONS (crystal)
B             0.0000000000        0.0000000000        0.0000000000
N             0.3333333330        0.6666666670        0.0000000000



     Writing output data file ./tmp/hBN.save/
     NEW-OLD atomic charge density approx. for the potential

     negative rho (up, down):  6.449E-07 0.000E+00
     extrapolated charge    8.05647, renormalised to    8.00000

     total cpu time spent up to now is       25.9 secs

     Self-consistent Calculation

     iteration #  1     ecut=    60.00 Ry     beta= 0.70
     Davidson diagonalization with overlap
     c_bands:  1 eigenvalues not converged
     ethr =  1.00E-06,  avg # of iterations = 10.9

     negative rho (up, down):  1.437E-08 0.000E+00

     total cpu time spent up to now is       28.9 secs

     total energy              =     -26.81167667 Ry
     estimated scf accuracy    <       0.00186514 Ry

     iteration #  2     ecut=    60.00 Ry     beta= 0.70
     Davidson diagonalization with overlap
     ethr =  2.33E-05,  avg # of iterations =  8.5

     total cpu time spent up to now is       31.5 secs

     total energy              =     -26.81431406 Ry
     estimated scf accuracy    <       0.00494908 Ry

     iteration #  3     ecut=    60.00 Ry     beta= 0.70
     Davidson diagonalization with overlap
     ethr =  2.33E-05,  avg # of iterations =  1.9

     total cpu time spent up to now is       33.1 secs

     total energy              =     -26.81438220 Ry
     estimated scf accuracy    <       0.00079095 Ry

     iteration #  4     ecut=    60.00 Ry     beta= 0.70
     Davidson diagonalization with overlap
     ethr =  9.89E-06,  avg # of iterations =  3.3

     total cpu time spent up to now is       34.9 secs

     total energy              =     -26.81447559 Ry
     estimated scf accuracy    <       0.00009328 Ry

     iteration #  5     ecut=    60.00 Ry     beta= 0.70
     Davidson diagonalization with overlap
     ethr =  1.17E-06,  avg # of iterations =  3.2

     total cpu time spent up to now is       36.8 secs

     total energy              =     -26.81447036 Ry
     estimated scf accuracy    <       0.00008057 Ry

     iteration #  6     ecut=    60.00 Ry     beta= 0.70
     Davidson diagonalization with overlap
     ethr =  1.01E-06,  avg # of iterations =  1.3

     total cpu time spent up to now is       38.3 secs

     total energy              =     -26.81444363 Ry
     estimated scf accuracy    <       0.00005340 Ry

     iteration #  7     ecut=    60.00 Ry     beta= 0.70
     Davidson diagonalization with overlap
     ethr =  6.67E-07,  avg # of iterations =  3.2

     total cpu time spent up to now is       40.2 secs

     total energy              =     -26.81445454 Ry
     estimated scf accuracy    <       0.00000464 Ry

     iteration #  8     ecut=    60.00 Ry     beta= 0.70
     Davidson diagonalization with overlap
     ethr =  5.79E-08,  avg # of iterations =  3.0

     total cpu time spent up to now is       42.1 secs

     total energy              =     -26.81445490 Ry
     estimated scf accuracy    <       0.00000441 Ry

     iteration #  9     ecut=    60.00 Ry     beta= 0.70
     Davidson diagonalization with overlap
     ethr =  5.51E-08,  avg # of iterations =  1.5

     total cpu time spent up to now is       43.6 secs

     End of self-consistent calculation

          k = 0.0000 0.0000 0.0000 (  4053 PWs)   bands (ev):

   -21.3478  -9.1696  -4.9018  -4.9018   1.1641   2.3150   2.7484   4.6509

     occupation numbers 
     1.0000   1.0000   1.0000   1.0000   0.0000   0.0000   0.0000   0.0000

          k = 0.0000 0.0718-0.0000 (  4058 PWs)   bands (ev):

   -21.2698  -9.0635  -5.2239  -5.0600   1.2967   2.4361   2.8782   4.7643

     occupation numbers 
     1.0000   1.0000   1.0000   1.0000   0.0000   0.0000   0.0000   0.0000

          k = 0.0000 0.1437-0.0000 (  4068 PWs)   bands (ev):

   -21.0380  -8.7477  -6.0984  -5.4793   1.6846   2.7957   3.2650   5.0926

     occupation numbers 
     1.0000   1.0000   1.0000   1.0000   0.0000   0.0000   0.0000   0.0000

          k = 0.0000 0.2155-0.0000 (  4078 PWs)   bands (ev):

   -20.6593  -8.2308  -7.3264  -6.0362   2.3128   3.3734   3.9049   5.5612

     occupation numbers 
     1.0000   1.0000   1.0000   1.0000   0.0000   0.0000   0.0000   0.0000

          k = 0.0000 0.2874-0.0000 (  4058 PWs)   bands (ev):

   -20.1483  -8.7137  -7.5295  -6.6125   3.1699   4.0499   4.7935   5.7494

     occupation numbers 
     1.0000   1.0000   1.0000   1.0000   0.0000   0.0000   0.0000   0.0000

          k = 0.0000 0.3592-0.0000 (  4068 PWs)   bands (ev):

   -19.5353 -10.1072  -7.1253  -6.6796   3.9346   4.2372   5.9071   5.9184

     occupation numbers 
     1.0000   1.0000   1.0000   1.0000   0.0000   0.0000   0.0000   0.0000

          k = 0.0000 0.4310-0.0000 (  4080 PWs)   bands (ev):

   -18.8823 -11.3633  -7.5216  -5.7563   2.7650   5.4435   7.0556   7.1480

     occupation numbers 
     1.0000   1.0000   1.0000   1.0000   0.0000   0.0000   0.0000   0.0000

          k = 0.0000 0.5029-0.0000 (  4060 PWs)   bands (ev):

   -18.3217 -12.3023  -7.7694  -4.9324   1.6553   6.4297   7.9646   8.5684

     occupation numbers 
     1.0000   1.0000   1.0000   1.0000   0.0000   0.0000   0.0000   0.0000

          k =-0.0000-0.5747 0.0000 (  4104 PWs)   bands (ev):

   -18.0845 -12.6693  -7.8547  -4.5697   1.1817   6.6955   9.1099   9.7094

     occupation numbers 
     1.0000   1.0000   1.0000   1.0000   0.0000   0.0000   0.0000   0.0000

          k = 0.0622 0.1078-0.0000 (  4077 PWs)   bands (ev):

   -21.1150  -8.8526  -5.7979  -5.3742   1.5570   2.6766   3.1365   4.9856

     occupation numbers 
     1.0000   1.0000   1.0000   1.0000   0.0000   0.0000   0.0000   0.0000

          k = 0.0622 0.1796-0.0000 (  4069 PWs)   bands (ev):

   -20.8094  -8.4360  -6.7987  -5.9112   2.0662   3.1471   3.6505   5.3924

     occupation numbers 
     1.0000   1.0000   1.0000   1.0000   0.0000   0.0000   0.0000   0.0000

          k = 0.0622 0.2514-0.0000 (  4058 PWs)   bands (ev):

   -20.3637  -8.0654  -7.8259  -6.5185   2.8123   3.7966   4.4164   5.7737

     occupation numbers 
     1.0000   1.0000   1.0000   1.0000   0.0000   0.0000   0.0000   0.0000

          k = 0.0622 0.3233-0.0000 (  4075 PWs)   bands (ev):

   -19.7992  -9.4322  -7.0889  -7.0474   3.7831   4.2134   5.4289   5.7092

     occupation numbers 
     1.0000   1.0000   1.0000   1.0000   0.0000   0.0000   0.0000   0.0000

          k = 0.0622 0.3951-0.0000 (  4052 PWs)   bands (ev):

   -19.1583 -10.7481  -7.5569  -6.1505   3.3698   4.9500   6.4921   6.6642

     occupation numbers 
     1.0000   1.0000   1.0000   1.0000   0.0000   0.0000   0.0000   0.0000

          k = 0.0622 0.4669-0.0000 (  4066 PWs)   bands (ev):

   -18.5329 -11.8560  -7.8861  -5.2500   2.1643   6.1834   7.7709   7.8598

     occupation numbers 
     1.0000   1.0000   1.0000   1.0000   0.0000   0.0000   0.0000   0.0000

          k = 0.0622 0.5388-0.0000 (  4077 PWs)   bands (ev):

   -18.1056 -12.5334  -8.0551  -4.6073   1.3219   6.9266   8.6894   9.4305

     occupation numbers 
     1.0000   1.0000   1.0000   1.0000   0.0000   0.0000   0.0000   0.0000

          k = 0.1244 0.2155-0.0000 (  4063 PWs)   bands (ev):

   -20.4364  -7.9258  -7.7497  -6.5890   2.6957   3.6987   4.2916   5.7518

     occupation numbers 
     1.0000   1.0000   1.0000   1.0000   0.0000   0.0000   0.0000   0.0000

          k = 0.1244 0.2874-0.0000 (  4078 PWs)   bands (ev):

   -19.9345  -8.8967  -7.2893  -7.2357   3.5623   4.2399   5.1849   5.7451

     occupation numbers 
     1.0000   1.0000   1.0000   1.0000   0.0000   0.0000   0.0000   0.0000

          k = 0.1244 0.3592-0.0000 (  4057 PWs)   bands (ev):

   -19.3337 -10.1276  -7.8784  -6.4001   3.8227   4.6522   6.1862   6.3246

     occupation numbers 
     1.0000   1.0000   1.0000   1.0000   0.0000   0.0000   0.0000   0.0000

          k = 0.1244 0.4310-0.0000 (  4069 PWs)   bands (ev):

   -18.6972 -11.2821  -8.3140  -5.4960   2.7019   5.9292   7.3747   7.6803

     occupation numbers 
     1.0000   1.0000   1.0000   1.0000   0.0000   0.0000   0.0000   0.0000

          k = 0.1244 0.5029-0.0000 (  4064 PWs)   bands (ev):

   -18.1552 -12.1595  -8.5799  -4.6946   1.6746   7.2227   8.7189   8.8189

     occupation numbers 
     1.0000   1.0000   1.0000   1.0000   0.0000   0.0000   0.0000   0.0000

          k = 0.1244 0.5747-0.0000 (  4072 PWs)   bands (ev):

   -17.9273 -12.5034  -8.6693  -4.3423   1.2349   7.7965   9.4303   9.9044

     occupation numbers 
     1.0000   1.0000   1.0000   1.0000   0.0000   0.0000   0.0000   0.0000

          k = 0.1866 0.3233-0.0000 (  4066 PWs)   bands (ev):

   -19.3938  -9.8059  -8.1130  -6.4853   3.9886   4.5508   6.0991   6.2067

     occupation numbers 
     1.0000   1.0000   1.0000   1.0000   0.0000   0.0000   0.0000   0.0000

          k = 0.1866 0.3951-0.0000 (  4055 PWs)   bands (ev):

   -18.7863 -10.7741  -8.7803  -5.6280   3.0629   5.7591   7.1297   7.4750

     occupation numbers 
     1.0000   1.0000   1.0000   1.0000   0.0000   0.0000   0.0000   0.0000

          k = 0.1866 0.4669-0.0000 (  4044 PWs)   bands (ev):

   -18.2026 -11.6627  -9.2172  -4.7774   2.0549   7.1441   8.4030   8.9567

     occupation numbers 
     1.0000   1.0000   1.0000   1.0000   0.0000   0.0000   0.0000   0.0000

          k = 0.1866 0.5388-0.0000 (  4054 PWs)   bands (ev):

   -17.8122 -12.2275  -9.4305  -4.1786   1.3532   8.4873   9.4213   9.7958

     occupation numbers 
     1.0000   1.0000   1.0000   1.0000   0.0000   0.0000   0.0000   0.0000

          k = 0.2489 0.4310-0.0000 (  4056 PWs)   bands (ev):

   -18.2218 -11.3705  -9.5659  -4.8105   2.2235   7.0746   8.2503   8.8691

     occupation numbers 
     1.0000   1.0000   1.0000   1.0000   0.0000   0.0000   0.0000   0.0000

          k = 0.2489 0.5029-0.0000 (  4040 PWs)   bands (ev):

   -17.7597 -11.8608 -10.0654  -4.1088   1.5062   8.5250   8.9855  10.4248

     occupation numbers 
     1.0000   1.0000   1.0000   1.0000   0.0000   0.0000   0.0000   0.0000

          k = 0.2489 0.5747-0.0000 (  4052 PWs)   bands (ev):

   -17.5727 -12.0652 -10.2304  -3.8100   1.2015   9.0652   9.5852  10.4552

     occupation numbers 
     1.0000   1.0000   1.0000   1.0000   0.0000   0.0000   0.0000   0.0000

          k = 0.3111 0.5388-0.0000 (  4030 PWs)   bands (ev):

   -17.4869 -11.8919 -10.6296  -3.6761   1.1646   8.8185   9.8121  11.0523

     occupation numbers 
     1.0000   1.0000   1.0000   1.0000   0.0000   0.0000   0.0000   0.0000

     the Fermi energy is    -1.0297 ev

!    total energy              =     -26.81445464 Ry
     estimated scf accuracy    <       0.00000088 Ry
     smearing contrib. (-TS)   =       0.00000000 Ry
     internal energy E=F+TS    =     -26.81445464 Ry

     The total energy is F=E-TS. E is the sum of the following terms:
     one-electron contribution =    -156.55023759 Ry
     hartree contribution      =      80.02200556 Ry
     xc contribution           =      -8.63728829 Ry
     ewald contribution        =      58.35106568 Ry

     convergence has been achieved in   9 iterations

     Forces acting on atoms (cartesian axes, Ry/au):

     atom    1 type  2   force =     0.00000000    0.00000000    0.00000000
     atom    2 type  1   force =     0.00000000    0.00000000    0.00000000
     The non-local contrib.  to forces
     atom    1 type  2   force =     0.00000000    0.00000000   -0.00000000
     atom    2 type  1   force =    -0.00000000   -0.00000000    0.00000000
     The ionic contribution  to forces
     atom    1 type  2   force =    -0.00000001    0.00000000   -0.00000000
     atom    2 type  1   force =     0.00000001   -0.00000000   -0.00000000
     The local contribution  to forces
     atom    1 type  2   force =     0.00000000   -0.00000000    0.00000000
     atom    2 type  1   force =     0.00000003   -0.00000002    0.00000000
     The core correction contribution to forces
     atom    1 type  2   force =     0.00000000   -0.00000000    0.00000000
     atom    2 type  1   force =    -0.00000000    0.00000000    0.00000000
     The Hubbard contrib.    to forces
     atom    1 type  2   force =     0.00000000    0.00000000    0.00000000
     atom    2 type  1   force =     0.00000000    0.00000000    0.00000000
     The SCF correction term to forces
     atom    1 type  2   force =     0.00000000   -0.00000000   -0.00000000
     atom    2 type  1   force =     0.00000000   -0.00000000    0.00000000

     Total force =     0.000000     Total SCF correction =     0.000000


     Computing stress (Cartesian axis) and pressure

          total   stress  (Ry/bohr**3)                   (kbar)     P=        5.06
   0.00009376   0.00000000  -0.00000000           13.79        0.00       -0.00
   0.00000000   0.00009376   0.00000000            0.00       13.79        0.00
  -0.00000000  -0.00000000  -0.00008426           -0.00       -0.00      -12.39

     kinetic stress (kbar)   3483.35     -0.00      0.00
                               -0.00   3483.35      0.00
                                0.00      0.00   3759.96

     local   stress (kbar) -46351.68      0.00     -0.00
                                0.00 -46351.68     -0.00
                               -0.00     -0.00  46981.91

     nonloc. stress (kbar)   -640.52      0.00      0.00
                                0.00   -640.52     -0.00
                                0.00     -0.00   -608.90

     hartree stress (kbar)  22028.47      0.00      0.00
                                0.00  22028.47      0.00
                                0.00      0.00 -21466.23

     exc-cor stress (kbar)   -342.84      0.00      0.00
                                0.00   -342.84      0.00
                                0.00      0.00   -342.84

     corecor stress (kbar)   -381.05      0.00     -0.00
                                0.00   -381.05      0.00
                               -0.00      0.00   -373.02

     ewald   stress (kbar)  22218.07     -0.00     -0.00
                               -0.00  22218.07     -0.00
                               -0.00     -0.00 -27963.27

     hubbard stress (kbar)      0.00      0.00      0.00
                                0.00      0.00      0.00
                                0.00      0.00      0.00

     DFT-D   stress (kbar)      0.00      0.00      0.00
                                0.00      0.00      0.00
                                0.00      0.00      0.00

     XDM     stress (kbar)      0.00      0.00      0.00
                                0.00      0.00      0.00
                                0.00      0.00      0.00

     dft-nl  stress (kbar)      0.00      0.00      0.00
                                0.00      0.00      0.00
                                0.00      0.00      0.00

     TS-vdW  stress (kbar)      0.00      0.00      0.00
                                0.00      0.00      0.00
                                0.00      0.00      0.00


     Energy error            =      7.7E-04
     Gradient error          =      0.0E+00
     Cell gradient error     =      9.4E-05


     number of scf cycles    =   2
     number of bfgs steps    =   1

     enthalpy old            =     -26.8136886483 Ry
     enthalpy new            =     -26.8144546354 Ry

     CASE: enthalpy_new < enthalpy_old

     new trust radius        =       0.0263749890 bohr
     new conv_thr            =       0.0000000100 Ry

     new unit-cell volume =    524.46580 a.u.^3 (    77.71781 Ang^3 )
     density =      0.53005 g/cm^3

CELL_PARAMETERS (alat=  4.63500000)
   1.010412615   0.000000000  -0.000000000
  -0.505206308   0.875042993  -0.000000000
   0.000000000   0.000000000   5.957167422

ATOMIC_POSITIONS (crystal)
B             0.0000000000        0.0000000000        0.0000000000
N             0.3333333330        0.6666666670        0.0000000000



     Writing output data file ./tmp/hBN.save/
     NEW-OLD atomic charge density approx. for the potential

     negative rho (up, down):  1.176E-06 0.000E+00
     extrapolated charge    8.05159, renormalised to    8.00000

     total cpu time spent up to now is       51.0 secs

     Self-consistent Calculation

     iteration #  1     ecut=    60.00 Ry     beta= 0.70
     Davidson diagonalization with overlap
     c_bands:  1 eigenvalues not converged
     c_bands:  1 eigenvalues not converged
     ethr =  1.00E-06,  avg # of iterations = 11.3

     negative rho (up, down):  4.778E-08 0.000E+00

     total cpu time spent up to now is       54.5 secs

     total energy              =     -26.81250172 Ry
     estimated scf accuracy    <       0.00171173 Ry

     iteration #  2     ecut=    60.00 Ry     beta= 0.70
     Davidson diagonalization with overlap
     ethr =  2.14E-05,  avg # of iterations =  8.3

     negative rho (up, down):  1.398E-08 0.000E+00

     total cpu time spent up to now is       57.6 secs

     total energy              =     -26.81476583 Ry
     estimated scf accuracy    <       0.00437506 Ry

     iteration #  3     ecut=    60.00 Ry     beta= 0.70
     Davidson diagonalization with overlap
     ethr =  2.14E-05,  avg # of iterations =  2.0

     total cpu time spent up to now is       59.2 secs

     total energy              =     -26.81484445 Ry
     estimated scf accuracy    <       0.00065889 Ry

     iteration #  4     ecut=    60.00 Ry     beta= 0.70
     Davidson diagonalization with overlap
     ethr =  8.24E-06,  avg # of iterations =  3.2

     total cpu time spent up to now is       60.9 secs

     total energy              =     -26.81493329 Ry
     estimated scf accuracy    <       0.00006237 Ry

     iteration #  5     ecut=    60.00 Ry     beta= 0.70
     Davidson diagonalization with overlap
     ethr =  7.80E-07,  avg # of iterations =  2.8

     total cpu time spent up to now is       62.6 secs

     total energy              =     -26.81491665 Ry
     estimated scf accuracy    <       0.00005670 Ry

     iteration #  6     ecut=    60.00 Ry     beta= 0.70
     Davidson diagonalization with overlap
     ethr =  7.09E-07,  avg # of iterations =  3.2

     total cpu time spent up to now is       64.5 secs

     total energy              =     -26.81491547 Ry
     estimated scf accuracy    <       0.00001612 Ry

     iteration #  7     ecut=    60.00 Ry     beta= 0.70
     Davidson diagonalization with overlap
     ethr =  2.02E-07,  avg # of iterations =  2.0

     total cpu time spent up to now is       66.2 secs

     total energy              =     -26.81491833 Ry
     estimated scf accuracy    <       0.00000141 Ry

     iteration #  8     ecut=    60.00 Ry     beta= 0.70
     Davidson diagonalization with overlap
     ethr =  1.77E-08,  avg # of iterations =  2.7

     total cpu time spent up to now is       68.0 secs

     total energy              =     -26.81491850 Ry
     estimated scf accuracy    <       0.00000093 Ry

     iteration #  9     ecut=    60.00 Ry     beta= 0.70
     Davidson diagonalization with overlap
     ethr =  1.17E-08,  avg # of iterations =  1.0

     total cpu time spent up to now is       69.5 secs

     total energy              =     -26.81491849 Ry
     estimated scf accuracy    <       0.00000020 Ry

     iteration # 10     ecut=    60.00 Ry     beta= 0.70
     Davidson diagonalization with overlap
     ethr =  2.53E-09,  avg # of iterations =  1.8

     total cpu time spent up to now is       71.1 secs

     total energy              =     -26.81491851 Ry
     estimated scf accuracy    <       0.00000002 Ry

     iteration # 11     ecut=    60.00 Ry     beta= 0.70
     Davidson diagonalization with overlap
     ethr =  2.38E-10,  avg # of iterations =  3.4

     total cpu time spent up to now is       73.2 secs

     total energy              =     -26.81491851 Ry
     estimated scf accuracy    <       0.00000005 Ry

     iteration # 12     ecut=    60.00 Ry     beta= 0.70
     Davidson diagonalization with overlap
     ethr =  2.38E-10,  avg # of iterations =  2.0

     total cpu time spent up to now is       74.9 secs

     End of self-consistent calculation

          k = 0.0000 0.0000 0.0000 (  4053 PWs)   bands (ev):

   -21.2735  -9.1064  -4.9514  -4.9514   1.1521   2.3096   2.7457   4.6678

     occupation numbers 
     1.0000   1.0000   1.0000   1.0000   0.0000   0.0000   0.0000   0.0000

          k =-0.0000 0.0714-0.0000 (  4058 PWs)   bands (ev):

   -21.1965  -9.0017  -5.2712  -5.1067   1.2837   2.4290   2.8741   4.7785

     occupation numbers 
     1.0000   1.0000   1.0000   1.0000   0.0000   0.0000   0.0000   0.0000

          k =-0.0000 0.1429-0.0000 (  4068 PWs)   bands (ev):

   -20.9675  -8.6906  -6.1386  -5.5187   1.6681   2.7831   3.2567   5.0973

     occupation numbers 
     1.0000   1.0000   1.0000   1.0000   0.0000   0.0000   0.0000   0.0000

          k =-0.0000 0.2143-0.0000 (  4078 PWs)   bands (ev):

   -20.5936  -8.1813  -7.3551  -6.0662   2.2893   3.3500   3.8891   5.5398

     occupation numbers 
     1.0000   1.0000   1.0000   1.0000   0.0000   0.0000   0.0000   0.0000

          k =-0.0000 0.2857-0.0000 (  4058 PWs)   bands (ev):

   -20.0896  -8.7279  -7.4905  -6.6330   3.1354   4.0002   4.7662   5.6678

     occupation numbers 
     1.0000   1.0000   1.0000   1.0000   0.0000   0.0000   0.0000   0.0000

          k =-0.0000 0.3571-0.0000 (  4068 PWs)   bands (ev):

   -19.4856 -10.1050  -7.1378  -6.6541   3.8301   4.1853   5.8534   5.8726

     occupation numbers 
     1.0000   1.0000   1.0000   1.0000   0.0000   0.0000   0.0000   0.0000

          k =-0.0000 0.4286-0.0000 (  4080 PWs)   bands (ev):

   -18.8435 -11.3441  -7.5279  -5.7464   2.6719   5.3578   6.9959   7.0355

     occupation numbers 
     1.0000   1.0000   1.0000   1.0000   0.0000   0.0000   0.0000   0.0000

          k =-0.0000 0.5000-0.0000 (  4060 PWs)   bands (ev):

   -18.2943 -12.2680  -7.7719  -4.9380   1.5840   6.2649   7.8401   8.4884

     occupation numbers 
     1.0000   1.0000   1.0000   1.0000   0.0000   0.0000   0.0000   0.0000

          k = 0.0000-0.5714 0.0000 (  4104 PWs)   bands (ev):

   -18.0628 -12.6281  -7.8560  -4.5831   1.1206   6.4926   9.0058   9.6000

     occupation numbers 
     1.0000   1.0000   1.0000   1.0000   0.0000   0.0000   0.0000   0.0000

          k = 0.0619 0.1071-0.0000 (  4077 PWs)   bands (ev):

   -21.0436  -8.7939  -5.8409  -5.4154   1.5418   2.6659   3.1297   4.9937

     occupation numbers 
     1.0000   1.0000   1.0000   1.0000   0.0000   0.0000   0.0000   0.0000

          k = 0.0619 0.1786-0.0000 (  4069 PWs)   bands (ev):

   -20.7418  -8.3834  -6.8329  -5.9436   2.0458   3.1284   3.6378   5.3840

     occupation numbers 
     1.0000   1.0000   1.0000   1.0000   0.0000   0.0000   0.0000   0.0000

          k = 0.0619 0.2500-0.0000 (  4058 PWs)   bands (ev):

   -20.3019  -8.0866  -7.7824  -6.5415   2.7831   3.7614   4.3945   5.7153

     occupation numbers 
     1.0000   1.0000   1.0000   1.0000   0.0000   0.0000   0.0000   0.0000

          k = 0.0619 0.3214-0.0000 (  4075 PWs)   bands (ev):

   -19.7454  -9.4380  -7.1035  -7.0160   3.7406   4.1262   5.3934   5.6392

     occupation numbers 
     1.0000   1.0000   1.0000   1.0000   0.0000   0.0000   0.0000   0.0000

          k = 0.0619 0.3928-0.0000 (  4052 PWs)   bands (ev):

   -19.1146 -10.7370  -7.5646  -6.1337   3.2661   4.8863   6.4381   6.6039

     occupation numbers 
     1.0000   1.0000   1.0000   1.0000   0.0000   0.0000   0.0000   0.0000

          k = 0.0619 0.4643-0.0000 (  4066 PWs)   bands (ev):

   -18.5009 -11.8282  -7.8892  -5.2493   2.0818   6.0720   7.6203   7.7894

     occupation numbers 
     1.0000   1.0000   1.0000   1.0000   0.0000   0.0000   0.0000   0.0000

          k = 0.0619 0.5357-0.0000 (  4077 PWs)   bands (ev):

   -18.0832 -12.4935  -8.0558  -4.6195   1.2570   6.7352   8.5773   9.3355

     occupation numbers 
     1.0000   1.0000   1.0000   1.0000   0.0000   0.0000   0.0000   0.0000

          k = 0.1237 0.2143-0.0000 (  4063 PWs)   bands (ev):

   -20.3737  -7.8809  -7.7748  -6.6116   2.6684   3.6670   4.2715   5.7044

     occupation numbers 
     1.0000   1.0000   1.0000   1.0000   0.0000   0.0000   0.0000   0.0000

          k = 0.1237 0.2857-0.0000 (  4078 PWs)   bands (ev):

   -19.8788  -8.9086  -7.3029  -7.2012   3.5247   4.1704   5.1541   5.6618

     occupation numbers 
     1.0000   1.0000   1.0000   1.0000   0.0000   0.0000   0.0000   0.0000

          k = 0.1237 0.3571-0.0000 (  4057 PWs)   bands (ev):

   -19.2871 -10.1234  -7.8852  -6.3790   3.7122   4.5997   6.1325   6.2787

     occupation numbers 
     1.0000   1.0000   1.0000   1.0000   0.0000   0.0000   0.0000   0.0000

          k = 0.1237 0.4286-0.0000 (  4069 PWs)   bands (ev):

   -18.6619 -11.2609  -8.3158  -5.4904   2.6066   5.8533   7.3101   7.6058

     occupation numbers 
     1.0000   1.0000   1.0000   1.0000   0.0000   0.0000   0.0000   0.0000

          k = 0.1237 0.5000-0.0000 (  4064 PWs)   bands (ev):

   -18.1314 -12.1230  -8.5788  -4.7044   1.5998   7.0922   8.5565   8.7326

     occupation numbers 
     1.0000   1.0000   1.0000   1.0000   0.0000   0.0000   0.0000   0.0000

          k = 0.1237 0.5714-0.0000 (  4072 PWs)   bands (ev):

   -17.9092 -12.4599  -8.6672  -4.3596   1.1699   7.5999   9.3197   9.7920

     occupation numbers 
     1.0000   1.0000   1.0000   1.0000   0.0000   0.0000   0.0000   0.0000

          k = 0.1856 0.3214-0.0000 (  4066 PWs)   bands (ev):

   -19.3462  -9.8053  -8.1183  -6.4628   3.8766   4.5015   6.0440   6.1638

     occupation numbers 
     1.0000   1.0000   1.0000   1.0000   0.0000   0.0000   0.0000   0.0000

          k = 0.1856 0.3928-0.0000 (  4055 PWs)   bands (ev):

   -18.7492 -10.7575  -8.7802  -5.6199   2.9581   5.6937   7.0676   7.4157

     occupation numbers 
     1.0000   1.0000   1.0000   1.0000   0.0000   0.0000   0.0000   0.0000

          k = 0.1856 0.4643-0.0000 (  4044 PWs)   bands (ev):

   -18.1775 -11.6294  -9.2141  -4.7849   1.9688   7.0540   8.3217   8.8675

     occupation numbers 
     1.0000   1.0000   1.0000   1.0000   0.0000   0.0000   0.0000   0.0000

          k = 0.1856 0.5357-0.0000 (  4054 PWs)   bands (ev):

   -17.7968 -12.1818  -9.4260  -4.1985   1.2821   8.3403   9.3186   9.6351

     occupation numbers 
     1.0000   1.0000   1.0000   1.0000   0.0000   0.0000   0.0000   0.0000

          k = 0.2474 0.4286-0.0000 (  4056 PWs)   bands (ev):

   -18.1962 -11.3379  -9.5626  -4.8172   2.1320   6.9914   8.1710   8.7921

     occupation numbers 
     1.0000   1.0000   1.0000   1.0000   0.0000   0.0000   0.0000   0.0000

          k = 0.2474 0.5000-0.0000 (  4040 PWs)   bands (ev):

   -17.7454 -11.8118 -10.0619  -4.1296   1.4286   8.4143   8.8924  10.2986

     occupation numbers 
     1.0000   1.0000   1.0000   1.0000   0.0000   0.0000   0.0000   0.0000

          k = 0.2474 0.5714-0.0000 (  4052 PWs)   bands (ev):

   -17.5637 -12.0088 -10.2273  -3.8374   1.1305   8.9725   9.4217  10.3272

     occupation numbers 
     1.0000   1.0000   1.0000   1.0000   0.0000   0.0000   0.0000   0.0000

          k = 0.3093 0.5357-0.0000 (  4030 PWs)   bands (ev):

   -17.4802 -11.8248 -10.6339  -3.7061   1.0930   8.7327   9.6603  10.8988

     occupation numbers 
     1.0000   1.0000   1.0000   1.0000   0.0000   0.0000   0.0000   0.0000

     the Fermi energy is    -1.0978 ev

!    total energy              =     -26.81491852 Ry
     estimated scf accuracy    <          1.9E-09 Ry
     smearing contrib. (-TS)   =       0.00000000 Ry
     internal energy E=F+TS    =     -26.81491852 Ry

     The total energy is F=E-TS. E is the sum of the following terms:
     one-electron contribution =    -153.79024797 Ry
     hartree contribution      =      78.63247810 Ry
     xc contribution           =      -8.61402107 Ry
     ewald contribution        =      56.95687242 Ry

     convergence has been achieved in  12 iterations

     Forces acting on atoms (cartesian axes, Ry/au):

     atom    1 type  2   force =    -0.00000000   -0.00000000    0.00000000
     atom    2 type  1   force =     0.00000000    0.00000000   -0.00000000
     The non-local contrib.  to forces
     atom    1 type  2   force =     0.00000000   -0.00000000    0.00000000
     atom    2 type  1   force =     0.00000000    0.00000000    0.00000000
     The ionic contribution  to forces
     atom    1 type  2   force =    -0.00000001    0.00000000   -0.00000000
     atom    2 type  1   force =     0.00000001   -0.00000000    0.00000000
     The local contribution  to forces
     atom    1 type  2   force =     0.00000000   -0.00000000    0.00000000
     atom    2 type  1   force =     0.00000003   -0.00000002    0.00000000
     The core correction contribution to forces
     atom    1 type  2   force =     0.00000000   -0.00000000   -0.00000000
     atom    2 type  1   force =    -0.00000000    0.00000000    0.00000000
     The Hubbard contrib.    to forces
     atom    1 type  2   force =     0.00000000    0.00000000    0.00000000
     atom    2 type  1   force =     0.00000000    0.00000000    0.00000000
     The SCF correction term to forces
     atom    1 type  2   force =     0.00000000    0.00000000    0.00000000
     atom    2 type  1   force =    -0.00000000    0.00000000   -0.00000000

     Total force =     0.000000     Total SCF correction =     0.000000


     Computing stress (Cartesian axis) and pressure

          total   stress  (Ry/bohr**3)                   (kbar)     P=       -5.20
  -0.00001303   0.00000000   0.00000000           -1.92        0.00        0.00
   0.00000000  -0.00001303  -0.00000000            0.00       -1.92       -0.00
   0.00000000  -0.00000000  -0.00007988            0.00       -0.00      -11.75

     kinetic stress (kbar)   3441.01     -0.00     -0.00
                               -0.00   3441.01      0.00
                               -0.00      0.00   3725.27

     local   stress (kbar) -45236.49      0.00      0.00
                                0.00 -45236.49      0.00
                                0.00      0.00  45826.68

     nonloc. stress (kbar)   -631.13     -0.00      0.00
                               -0.00   -631.13      0.00
                                0.00      0.00   -602.03

     hartree stress (kbar)  21490.71     -0.00     -0.00
                               -0.00  21490.71      0.00
                               -0.00      0.00 -20926.15

     exc-cor stress (kbar)   -338.90      0.00      0.00
                                0.00   -338.90      0.00
                                0.00      0.00   -338.90

     corecor stress (kbar)   -378.06      0.00     -0.00
                                0.00   -378.06      0.00
                               -0.00      0.00   -370.31

     ewald   stress (kbar)  21650.95     -0.00     -0.00
                               -0.00  21650.95     -0.00
                               -0.00     -0.00 -27326.31

     hubbard stress (kbar)      0.00      0.00      0.00
                                0.00      0.00      0.00
                                0.00      0.00      0.00

     DFT-D   stress (kbar)      0.00      0.00      0.00
                                0.00      0.00      0.00
                                0.00      0.00      0.00

     XDM     stress (kbar)      0.00      0.00      0.00
                                0.00      0.00      0.00
                                0.00      0.00      0.00

     dft-nl  stress (kbar)      0.00      0.00      0.00
                                0.00      0.00      0.00
                                0.00      0.00      0.00

     TS-vdW  stress (kbar)      0.00      0.00      0.00
                                0.00      0.00      0.00
                                0.00      0.00      0.00


     Energy error            =      4.6E-04
     Gradient error          =      2.7E-25
     Cell gradient error     =      8.0E-05


     number of scf cycles    =   3
     number of bfgs steps    =   2

     enthalpy old            =     -26.8144546354 Ry
     enthalpy new            =     -26.8149185180 Ry

     CASE: enthalpy_new < enthalpy_old

     new trust radius        =       0.0164503944 bohr
     new conv_thr            =       0.0000000100 Ry

     new unit-cell volume =    523.77052 a.u.^3 (    77.61478 Ang^3 )
     density =      0.53075 g/cm^3

CELL_PARAMETERS (alat=  4.63500000)
   1.011560838   0.000000000   0.000000000
  -0.505780419   0.876037383  -0.000000000
   0.000000000   0.000000000   5.935771670

ATOMIC_POSITIONS (crystal)
B            -0.0000000000       -0.0000000000        0.0000000000
N             0.3333333330        0.6666666670        0.0000000000



     Writing output data file ./tmp/hBN.save/
     NEW-OLD atomic charge density approx. for the potential

     negative rho (up, down):  2.341E-07 0.000E+00
     extrapolated charge    7.98938, renormalised to    8.00000

     total cpu time spent up to now is       82.3 secs

     Self-consistent Calculation

     iteration #  1     ecut=    60.00 Ry     beta= 0.70
     Davidson diagonalization with overlap
     ethr =  1.00E-06,  avg # of iterations =  7.2

     total cpu time spent up to now is       84.4 secs

     total energy              =     -26.81497362 Ry
     estimated scf accuracy    <       0.00003355 Ry

     iteration #  2     ecut=    60.00 Ry     beta= 0.70
     Davidson diagonalization with overlap
     ethr =  4.19E-07,  avg # of iterations =  7.3

     total cpu time spent up to now is       87.4 secs

     total energy              =     -26.81503962 Ry
     estimated scf accuracy    <       0.00012351 Ry

     iteration #  3     ecut=    60.00 Ry     beta= 0.70
     Davidson diagonalization with overlap
     ethr =  4.19E-07,  avg # of iterations =  2.0

     total cpu time spent up to now is       89.0 secs

     total energy              =     -26.81503555 Ry
     estimated scf accuracy    <       0.00002678 Ry

     iteration #  4     ecut=    60.00 Ry     beta= 0.70
     Davidson diagonalization with overlap
     ethr =  3.35E-07,  avg # of iterations =  1.7

     total cpu time spent up to now is       90.5 secs

     total energy              =     -26.81503822 Ry
     estimated scf accuracy    <       0.00000187 Ry

     iteration #  5     ecut=    60.00 Ry     beta= 0.70
     Davidson diagonalization with overlap
     ethr =  2.33E-08,  avg # of iterations =  2.6

     total cpu time spent up to now is       92.3 secs

     total energy              =     -26.81503861 Ry
     estimated scf accuracy    <       0.00000023 Ry

     iteration #  6     ecut=    60.00 Ry     beta= 0.70
     Davidson diagonalization with overlap
     ethr =  2.94E-09,  avg # of iterations =  2.2

     total cpu time spent up to now is       94.1 secs

     total energy              =     -26.81503860 Ry
     estimated scf accuracy    <       0.00000010 Ry

     iteration #  7     ecut=    60.00 Ry     beta= 0.70
     Davidson diagonalization with overlap
     ethr =  1.22E-09,  avg # of iterations =  2.2

     total cpu time spent up to now is       95.9 secs

     total energy              =     -26.81503864 Ry
     estimated scf accuracy    <       0.00000001 Ry

     iteration #  8     ecut=    60.00 Ry     beta= 0.70
     Davidson diagonalization with overlap
     ethr =  1.85E-10,  avg # of iterations =  1.2

     total cpu time spent up to now is       97.4 secs

     End of self-consistent calculation

          k = 0.0000 0.0000 0.0000 (  4053 PWs)   bands (ev):

   -21.2522  -9.0876  -4.9543  -4.9543   1.1560   2.3168   2.7570   4.6939

     occupation numbers 
     1.0000   1.0000   1.0000   1.0000   0.0000   0.0000   0.0000   0.0000

          k =-0.0000 0.0713-0.0000 (  4058 PWs)   bands (ev):

   -21.1754  -8.9833  -5.2737  -5.1090   1.2874   2.4358   2.8851   4.8039

     occupation numbers 
     1.0000   1.0000   1.0000   1.0000   0.0000   0.0000   0.0000   0.0000

          k =-0.0000 0.1427-0.0000 (  4068 PWs)   bands (ev):

   -20.9470  -8.6730  -6.1397  -5.5196   1.6711   2.7887   3.2669   5.1200

     occupation numbers 
     1.0000   1.0000   1.0000   1.0000   0.0000   0.0000   0.0000   0.0000

          k =-0.0000 0.2140-0.0000 (  4078 PWs)   bands (ev):

   -20.5740  -8.1652  -7.3540  -6.0653   2.2910   3.3533   3.8978   5.5544

     occupation numbers 
     1.0000   1.0000   1.0000   1.0000   0.0000   0.0000   0.0000   0.0000

          k =-0.0000 0.2854-0.0000 (  4058 PWs)   bands (ev):

   -20.0713  -8.7239  -7.4766  -6.6303   3.1349   3.9973   4.7724   5.6631

     occupation numbers 
     1.0000   1.0000   1.0000   1.0000   0.0000   0.0000   0.0000   0.0000

          k =-0.0000 0.3567-0.0000 (  4068 PWs)   bands (ev):

   -19.4691 -10.0979  -7.1335  -6.6427   3.8157   4.1813   5.8521   5.8746

     occupation numbers 
     1.0000   1.0000   1.0000   1.0000   0.0000   0.0000   0.0000   0.0000

          k =-0.0000 0.4281-0.0000 (  4080 PWs)   bands (ev):

   -18.8291 -11.3337  -7.5225  -5.7380   2.6598   5.3469   6.9926   7.0203

     occupation numbers 
     1.0000   1.0000   1.0000   1.0000   0.0000   0.0000   0.0000   0.0000

          k =-0.0000 0.4994-0.0000 (  4060 PWs)   bands (ev):

   -18.2821 -12.2546  -7.7657  -4.9327   1.5761   6.2382   7.8226   8.4807

     occupation numbers 
     1.0000   1.0000   1.0000   1.0000   0.0000   0.0000   0.0000   0.0000

          k = 0.0000-0.5708 0.0000 (  4104 PWs)   bands (ev):

   -18.0517 -12.6134  -7.8496  -4.5792   1.1146   6.4591   8.9918   9.5850

     occupation numbers 
     1.0000   1.0000   1.0000   1.0000   0.0000   0.0000   0.0000   0.0000

          k = 0.0618 0.1070-0.0000 (  4077 PWs)   bands (ev):

   -21.0228  -8.7761  -5.8425  -5.4167   1.5450   2.6719   3.1402   5.0174

     occupation numbers 
     1.0000   1.0000   1.0000   1.0000   0.0000   0.0000   0.0000   0.0000

          k = 0.0618 0.1784-0.0000 (  4069 PWs)   bands (ev):

   -20.7218  -8.3667  -6.8328  -5.9431   2.0481   3.1326   3.6472   5.4026

     occupation numbers 
     1.0000   1.0000   1.0000   1.0000   0.0000   0.0000   0.0000   0.0000

          k = 0.0618 0.2497-0.0000 (  4058 PWs)   bands (ev):

   -20.2831  -8.0841  -7.7675  -6.5393   2.7837   3.7619   4.4019   5.7181

     occupation numbers 
     1.0000   1.0000   1.0000   1.0000   0.0000   0.0000   0.0000   0.0000

          k = 0.0618 0.3210-0.0000 (  4075 PWs)   bands (ev):

   -19.7281  -9.4324  -7.0996  -7.0034   3.7386   4.1153   5.3979   5.6353

     occupation numbers 
     1.0000   1.0000   1.0000   1.0000   0.0000   0.0000   0.0000   0.0000

          k = 0.0618 0.3924-0.0000 (  4052 PWs)   bands (ev):

   -19.0993 -10.7281  -7.5595  -6.1240   3.2519   4.8799   6.4362   6.6023

     occupation numbers 
     1.0000   1.0000   1.0000   1.0000   0.0000   0.0000   0.0000   0.0000

          k = 0.0618 0.4637-0.0000 (  4066 PWs)   bands (ev):

   -18.4878 -11.8162  -7.8831  -5.2427   2.0716   6.0559   7.5976   7.7837

     occupation numbers 
     1.0000   1.0000   1.0000   1.0000   0.0000   0.0000   0.0000   0.0000

          k = 0.0618 0.5351-0.0000 (  4077 PWs)   bands (ev):

   -18.0720 -12.4791  -8.0493  -4.6154   1.2503   6.7037   8.5619   9.3243

     occupation numbers 
     1.0000   1.0000   1.0000   1.0000   0.0000   0.0000   0.0000   0.0000

          k = 0.1236 0.2140-0.0000 (  4063 PWs)   bands (ev):

   -20.3546  -7.8657  -7.7730  -6.6092   2.6694   3.6684   4.2794   5.7107

     occupation numbers 
     1.0000   1.0000   1.0000   1.0000   0.0000   0.0000   0.0000   0.0000

          k = 0.1236 0.2854-0.0000 (  4078 PWs)   bands (ev):

   -19.8611  -8.9042  -7.2989  -7.1881   3.5236   4.1632   5.1598   5.6558

     occupation numbers 
     1.0000   1.0000   1.0000   1.0000   0.0000   0.0000   0.0000   0.0000

          k = 0.1236 0.3567-0.0000 (  4057 PWs)   bands (ev):

   -19.2712 -10.1159  -7.8798  -6.3685   3.6966   4.5957   6.1308   6.2811

     occupation numbers 
     1.0000   1.0000   1.0000   1.0000   0.0000   0.0000   0.0000   0.0000

          k = 0.1236 0.4281-0.0000 (  4069 PWs)   bands (ev):

   -18.6482 -11.2501  -8.3095  -5.4829   2.5939   5.8445   7.3056   7.6011

     occupation numbers 
     1.0000   1.0000   1.0000   1.0000   0.0000   0.0000   0.0000   0.0000

          k = 0.1236 0.4994-0.0000 (  4064 PWs)   bands (ev):

   -18.1199 -12.1092  -8.5719  -4.6999   1.5912   7.0722   8.5315   8.7232

     occupation numbers 
     1.0000   1.0000   1.0000   1.0000   0.0000   0.0000   0.0000   0.0000

          k = 0.1236 0.5708-0.0000 (  4072 PWs)   bands (ev):

   -17.8988 -12.4448  -8.6601  -4.3565   1.1631   7.5674   9.3043   9.7766

     occupation numbers 
     1.0000   1.0000   1.0000   1.0000   0.0000   0.0000   0.0000   0.0000

          k = 0.1854 0.3210-0.0000 (  4066 PWs)   bands (ev):

   -19.3301  -9.7985  -8.1126  -6.4520   3.8607   4.4981   6.0422   6.1670

     occupation numbers 
     1.0000   1.0000   1.0000   1.0000   0.0000   0.0000   0.0000   0.0000

          k = 0.1854 0.3924-0.0000 (  4055 PWs)   bands (ev):

   -18.7352 -10.7477  -8.7735  -5.6119   2.9437   5.6871   7.0636   7.4154

     occupation numbers 
     1.0000   1.0000   1.0000   1.0000   0.0000   0.0000   0.0000   0.0000

          k = 0.1854 0.4637-0.0000 (  4044 PWs)   bands (ev):

   -18.1657 -11.6162  -9.2068  -4.7800   1.9579   7.0426   8.3133   8.8597

     occupation numbers 
     1.0000   1.0000   1.0000   1.0000   0.0000   0.0000   0.0000   0.0000

          k = 0.1854 0.5351-0.0000 (  4054 PWs)   bands (ev):

   -17.7869 -12.1663  -9.4184  -4.1960   1.2742   8.3172   9.3050   9.6103

     occupation numbers 
     1.0000   1.0000   1.0000   1.0000   0.0000   0.0000   0.0000   0.0000

          k = 0.2471 0.4281-0.0000 (  4056 PWs)   bands (ev):

   -18.1843 -11.3249  -9.5552  -4.8120   2.1201   6.9814   8.1628   8.7880

     occupation numbers 
     1.0000   1.0000   1.0000   1.0000   0.0000   0.0000   0.0000   0.0000

          k = 0.2471 0.4994-0.0000 (  4040 PWs)   bands (ev):

   -17.7357 -11.7957 -10.0545  -4.1271   1.4193   8.3988   8.8807  10.2818

     occupation numbers 
     1.0000   1.0000   1.0000   1.0000   0.0000   0.0000   0.0000   0.0000

          k = 0.2471 0.5708-0.0000 (  4052 PWs)   bands (ev):

   -17.5551 -11.9913 -10.2200  -3.8362   1.1226   8.9607   9.3956  10.3084

     occupation numbers 
     1.0000   1.0000   1.0000   1.0000   0.0000   0.0000   0.0000   0.0000

          k = 0.3089 0.5351-0.0000 (  4030 PWs)   bands (ev):

   -17.4720 -11.8051 -10.6281  -3.7055   1.0849   8.7222   9.6367  10.8752

     occupation numbers 
     1.0000   1.0000   1.0000   1.0000   0.0000   0.0000   0.0000   0.0000

     the Fermi energy is    -1.1046 ev

!    total energy              =     -26.81503864 Ry
     estimated scf accuracy    <          1.2E-09 Ry
     smearing contrib. (-TS)   =       0.00000000 Ry
     internal energy E=F+TS    =     -26.81503864 Ry

     The total energy is F=E-TS. E is the sum of the following terms:
     one-electron contribution =    -152.75082635 Ry
     hartree contribution      =      78.11254254 Ry
     xc contribution           =      -8.60939630 Ry
     ewald contribution        =      56.43264147 Ry

     convergence has been achieved in   8 iterations

     Forces acting on atoms (cartesian axes, Ry/au):

     atom    1 type  2   force =     0.00000000    0.00000000    0.00000000
     atom    2 type  1   force =     0.00000000    0.00000000    0.00000000
     The non-local contrib.  to forces
     atom    1 type  2   force =    -0.00000000    0.00000000   -0.00000000
     atom    2 type  1   force =     0.00000000    0.00000000    0.00000000
     The ionic contribution  to forces
     atom    1 type  2   force =    -0.00000001    0.00000000   -0.00000000
     atom    2 type  1   force =     0.00000001   -0.00000000    0.00000000
     The local contribution  to forces
     atom    1 type  2   force =    -0.00000000   -0.00000000    0.00000000
     atom    2 type  1   force =     0.00000003   -0.00000002    0.00000000
     The core correction contribution to forces
     atom    1 type  2   force =     0.00000000   -0.00000000    0.00000000
     atom    2 type  1   force =    -0.00000000    0.00000000    0.00000000
     The Hubbard contrib.    to forces
     atom    1 type  2   force =     0.00000000    0.00000000    0.00000000
     atom    2 type  1   force =     0.00000000    0.00000000    0.00000000
     The SCF correction term to forces
     atom    1 type  2   force =    -0.00000000    0.00000000    0.00000000
     atom    2 type  1   force =    -0.00000000    0.00000000   -0.00000000

     Total force =     0.000000     Total SCF correction =     0.000000


     Computing stress (Cartesian axis) and pressure

          total   stress  (Ry/bohr**3)                   (kbar)     P=       -7.09
  -0.00003358   0.00000000   0.00000000           -4.94        0.00        0.00
   0.00000000  -0.00003358  -0.00000000            0.00       -4.94       -0.00
  -0.00000000   0.00000000  -0.00007752           -0.00        0.00      -11.40

     kinetic stress (kbar)   3441.64     -0.00     -0.00
                               -0.00   3441.64     -0.00
                               -0.00     -0.00   3728.23

     local   stress (kbar) -44996.32      0.00      0.00
                                0.00 -44996.32      0.00
                                0.00      0.00  45580.31

     nonloc. stress (kbar)   -630.89      0.00      0.00
                                0.00   -630.89      0.00
                                0.00      0.00   -602.08

     hartree stress (kbar)  21372.09      0.00      0.00
                                0.00  21372.09     -0.00
                                0.00     -0.00 -20805.66

     exc-cor stress (kbar)   -339.00      0.00      0.00
                                0.00   -339.00      0.00
                                0.00      0.00   -339.00

     corecor stress (kbar)   -378.46      0.00     -0.00
                                0.00   -378.46      0.00
                               -0.00      0.00   -370.74

     ewald   stress (kbar)  21526.00     -0.00     -0.00
                               -0.00  21526.00     -0.00
                               -0.00     -0.00 -27202.45

     hubbard stress (kbar)      0.00      0.00      0.00
                                0.00      0.00      0.00
                                0.00      0.00      0.00

     DFT-D   stress (kbar)      0.00      0.00      0.00
                                0.00      0.00      0.00
                                0.00      0.00      0.00

     XDM     stress (kbar)      0.00      0.00      0.00
                                0.00      0.00      0.00
                                0.00      0.00      0.00

     dft-nl  stress (kbar)      0.00      0.00      0.00
                                0.00      0.00      0.00
                                0.00      0.00      0.00

     TS-vdW  stress (kbar)      0.00      0.00      0.00
                                0.00      0.00      0.00
                                0.00      0.00      0.00


     Energy error            =      1.2E-04
     Gradient error          =      0.0E+00
     Cell gradient error     =      7.8E-05


     number of scf cycles    =   4
     number of bfgs steps    =   3

     enthalpy old            =     -26.8149185180 Ry
     enthalpy new            =     -26.8150386356 Ry

     CASE: enthalpy_new < enthalpy_old

     new trust radius        =       0.0181486179 bohr
     new conv_thr            =       0.0000000100 Ry

     new unit-cell volume =    522.33542 a.u.^3 (    77.40212 Ang^3 )
     density =      0.53221 g/cm^3

CELL_PARAMETERS (alat=  4.63500000)
   1.012182729   0.000000000  -0.000000000
  -0.506091364   0.876575956  -0.000000000
   0.000000000   0.000000000   5.912236344

ATOMIC_POSITIONS (crystal)
B            -0.0000000000       -0.0000000000        0.0000000000
N             0.3333333330        0.6666666670       -0.0000000000



     Writing output data file ./tmp/hBN.save/
     NEW-OLD atomic charge density approx. for the potential

     negative rho (up, down):  3.264E-07 0.000E+00
     extrapolated charge    7.97802, renormalised to    8.00000

     total cpu time spent up to now is      104.8 secs

     Self-consistent Calculation

     iteration #  1     ecut=    60.00 Ry     beta= 0.70
     Davidson diagonalization with overlap
     ethr =  1.00E-06,  avg # of iterations =  9.6

     total cpu time spent up to now is      107.4 secs

     total energy              =     -26.81484645 Ry
     estimated scf accuracy    <       0.00019029 Ry

     iteration #  2     ecut=    60.00 Ry     beta= 0.70
     Davidson diagonalization with overlap
     ethr =  2.38E-06,  avg # of iterations =  8.9

     total cpu time spent up to now is      110.4 secs

     total energy              =     -26.81516543 Ry
     estimated scf accuracy    <       0.00062045 Ry

     iteration #  3     ecut=    60.00 Ry     beta= 0.70
[...]

     Dense  grid:    17695 G-vectors     FFT dimensions: (  24,  24,  75)

     Dynamical RAM for                 wfc:       0.27 MB

     Dynamical RAM for     wfc (w. buffer):       8.36 MB

     Dynamical RAM for           str. fact:       0.54 MB

     Dynamical RAM for           local pot:       0.50 MB

     Dynamical RAM for          nlocal pot:       0.54 MB

     Dynamical RAM for                qrad:       1.42 MB

     Dynamical RAM for          rho,v,vnew:       1.80 MB

     Dynamical RAM for               rhoin:       0.60 MB

     Dynamical RAM for            rho*nmix:       4.32 MB

     Dynamical RAM for           G-vectors:       1.15 MB

     Dynamical RAM for          h,s,v(r/c):       0.01 MB

     Dynamical RAM for          <psi|beta>:       0.00 MB

     Dynamical RAM for                 psi:       0.54 MB

     Dynamical RAM for                hpsi:       0.54 MB

     Dynamical RAM for      wfcinit/wfcrot:       0.54 MB

     Estimated static dynamical RAM per process >      21.68 MB

     Estimated max dynamical RAM per process >      22.77 MB

     Initial potential from superposition of free atoms

     starting charge    7.99978, renormalised to    8.00000
     Starting wfcs are    8 randomized atomic wfcs

     total cpu time spent up to now is      788.1 secs

     Self-consistent Calculation

     iteration #  1     ecut=    60.00 Ry     beta= 0.70
     Davidson diagonalization with overlap
     c_bands:  1 eigenvalues not converged
     c_bands:  1 eigenvalues not converged
     c_bands:  1 eigenvalues not converged
     c_bands:  1 eigenvalues not converged
     c_bands:  1 eigenvalues not converged
     c_bands:  1 eigenvalues not converged
     c_bands:  1 eigenvalues not converged
     c_bands:  1 eigenvalues not converged
     c_bands:  2 eigenvalues not converged
     c_bands:  2 eigenvalues not converged
     c_bands:  1 eigenvalues not converged
     c_bands:  1 eigenvalues not converged
     c_bands:  1 eigenvalues not converged
     c_bands:  1 eigenvalues not converged
     c_bands:  1 eigenvalues not converged
     c_bands:  1 eigenvalues not converged
     c_bands:  1 eigenvalues not converged
     c_bands:  1 eigenvalues not converged
     c_bands:  1 eigenvalues not converged
     c_bands:  1 eigenvalues not converged
     c_bands:  1 eigenvalues not converged
     c_bands:  2 eigenvalues not converged
     c_bands:  2 eigenvalues not converged
     c_bands:  1 eigenvalues not converged
     c_bands:  1 eigenvalues not converged
     c_bands:  1 eigenvalues not converged
     c_bands:  1 eigenvalues not converged
     c_bands:  1 eigenvalues not converged
     c_bands:  2 eigenvalues not converged
     ethr =  1.00E-06,  avg # of iterations = 19.8

     total cpu time spent up to now is      795.5 secs

     total energy              =     -26.67816931 Ry
     estimated scf accuracy    <       0.41649379 Ry

     iteration #  2     ecut=    60.00 Ry     beta= 0.70
     Davidson diagonalization with overlap
     ethr =  5.21E-03,  avg # of iterations =  2.2

     total cpu time spent up to now is      797.3 secs

     total energy              =     -26.77835828 Ry
     estimated scf accuracy    <       0.18185548 Ry

     iteration #  3     ecut=    60.00 Ry     beta= 0.70
     Davidson diagonalization with overlap
     ethr =  2.27E-03,  avg # of iterations =  1.8

     total cpu time spent up to now is      799.0 secs

     total energy              =     -26.81416470 Ry
     estimated scf accuracy    <       0.00153029 Ry

     iteration #  4     ecut=    60.00 Ry     beta= 0.70
     Davidson diagonalization with overlap
     ethr =  1.91E-05,  avg # of iterations =  7.0

     total cpu time spent up to now is      801.7 secs

     total energy              =     -26.81538513 Ry
     estimated scf accuracy    <       0.00052332 Ry

     iteration #  5     ecut=    60.00 Ry     beta= 0.70
     Davidson diagonalization with overlap
     ethr =  6.54E-06,  avg # of iterations =  2.1

     total cpu time spent up to now is      803.2 secs

     total energy              =     -26.81549114 Ry
     estimated scf accuracy    <       0.00000589 Ry

     iteration #  6     ecut=    60.00 Ry     beta= 0.70
     Davidson diagonalization with overlap
     ethr =  7.36E-08,  avg # of iterations =  3.9

     total cpu time spent up to now is      805.8 secs

     total energy              =     -26.81549261 Ry
     estimated scf accuracy    <       0.00000482 Ry

     iteration #  7     ecut=    60.00 Ry     beta= 0.70
     Davidson diagonalization with overlap
     ethr =  6.03E-08,  avg # of iterations =  1.9

     total cpu time spent up to now is      807.4 secs

     total energy              =     -26.81549341 Ry
     estimated scf accuracy    <       0.00000002 Ry

     iteration #  8     ecut=    60.00 Ry     beta= 0.70
     Davidson diagonalization with overlap
     ethr =  2.24E-10,  avg # of iterations =  4.0

     total cpu time spent up to now is      809.4 secs

     total energy              =     -26.81549346 Ry
     estimated scf accuracy    <       0.00000003 Ry

     iteration #  9     ecut=    60.00 Ry     beta= 0.70
     Davidson diagonalization with overlap
     ethr =  2.24E-10,  avg # of iterations =  2.3

     total cpu time spent up to now is      811.2 secs

     End of self-consistent calculation

          k = 0.0000 0.0000 0.0000 (  2191 PWs)   bands (ev):

   -19.1279  -6.9638  -2.8392  -2.8392   3.0037   5.8192   7.5070  10.2843

     occupation numbers 
     1.0000   1.0000   1.0000   1.0000   0.0000   0.0000   0.0000   0.0000

          k = 0.0000 0.0713 0.0000 (  2196 PWs)   bands (ev):

   -19.0512  -6.8595  -3.1596  -2.9949   3.1347   5.9181   7.6398  10.2432

     occupation numbers 
     1.0000   1.0000   1.0000   1.0000   0.0000   0.0000   0.0000   0.0000

          k = 0.0000 0.1426 0.0000 (  2202 PWs)   bands (ev):

   -18.8230  -6.5493  -4.0255  -3.4045   3.5183   6.1992   8.0072  10.1563

     occupation numbers 
     1.0000   1.0000   1.0000   1.0000   0.0000   0.0000   0.0000   0.0000

          k = 0.0000 0.2139 0.0000 (  2196 PWs)   bands (ev):

   -18.4502  -6.0420  -5.2367  -3.9490   4.1399   6.5820   8.5219  10.1302

     occupation numbers 
     1.0000   1.0000   1.0000   1.0000   0.0000   0.0000   0.0000   0.0000

          k = 0.0000 0.2853 0.0000 (  2206 PWs)   bands (ev):

   -17.9483  -6.6071  -5.3544  -4.5141   4.9891   6.7238   8.9790   9.3446

     occupation numbers 
     1.0000   1.0000   1.0000   1.0000   0.0000   0.0000   0.0000   0.0000

          k = 0.0000 0.3566 0.0000 (  2222 PWs)   bands (ev):

   -17.3468  -7.9802  -5.0170  -4.5217   6.0008   6.0498   9.1690   9.5929

     occupation numbers 
     1.0000   1.0000   1.0000   1.0000   0.0000   0.0000   0.0000   0.0000

          k = 0.0000 0.4279 0.0000 (  2220 PWs)   bands (ev):

   -16.7076  -9.2148  -5.4051  -3.6173   4.7815   7.2595   9.2762  10.5486

     occupation numbers 
     1.0000   1.0000   1.0000   1.0000   0.0000   0.0000   0.0000   0.0000

          k = 0.0000 0.4992 0.0000 (  2228 PWs)   bands (ev):

   -16.1615 -10.1349  -5.6489  -2.8144   3.6921   8.2757   9.7503  11.7607

     occupation numbers 
     1.0000   1.0000   1.0000   1.0000   0.0000   0.0000   0.0000   0.0000

          k =-0.0000-0.5705-0.0000 (  2224 PWs)   bands (ev):

   -15.9309 -10.4926  -5.7315  -2.4598   3.2305   8.5495  10.8775  11.4385

     occupation numbers 
     1.0000   1.0000   1.0000   1.0000   0.0000   0.0000   0.0000   0.0000

          k = 0.0618 0.1070-0.0000 (  2197 PWs)   bands (ev):

   -18.8987  -6.6523  -3.7276  -3.3008   3.3921   6.1086   7.8947  10.2309

     occupation numbers 
     1.0000   1.0000   1.0000   1.0000   0.0000   0.0000   0.0000   0.0000

          k = 0.0618 0.1783-0.0000 (  2200 PWs)   bands (ev):

   -18.5980  -6.2432  -4.7167  -3.8280   3.8957   6.4475   8.3663  10.2518

     occupation numbers 
     1.0000   1.0000   1.0000   1.0000   0.0000   0.0000   0.0000   0.0000

          k = 0.0618 0.2496-0.0000 (  2199 PWs)   bands (ev):

   -18.1597  -5.9674  -5.6445  -4.4232   4.6340   6.7526   8.9440   9.5539

     occupation numbers 
     1.0000   1.0000   1.0000   1.0000   0.0000   0.0000   0.0000   0.0000

          k = 0.0618 0.3209-0.0000 (  2208 PWs)   bands (ev):

   -17.6054  -7.3147  -4.9823  -4.8816   5.5965   6.4484   9.3608   9.3718

     occupation numbers 
     1.0000   1.0000   1.0000   1.0000   0.0000   0.0000   0.0000   0.0000

          k = 0.0618 0.3922-0.0000 (  2217 PWs)   bands (ev):

   -16.9776  -8.6104  -5.4421  -4.0034   5.3840   6.7583   9.5060  10.0716

     occupation numbers 
     1.0000   1.0000   1.0000   1.0000   0.0000   0.0000   0.0000   0.0000

          k = 0.0618 0.4635-0.0000 (  2217 PWs)   bands (ev):

   -16.3666  -9.6969  -5.7653  -3.1230   4.1887   8.0038   9.6715  11.1751

     occupation numbers 
     1.0000   1.0000   1.0000   1.0000   0.0000   0.0000   0.0000   0.0000

          k = 0.0618 0.5349-0.0000 (  2220 PWs)   bands (ev):

   -15.9514 -10.3586  -5.9316  -2.4965   3.3656   8.7767  10.4515  12.1643

     occupation numbers 
     1.0000   1.0000   1.0000   1.0000   0.0000   0.0000   0.0000   0.0000

          k = 0.1235 0.2139-0.0000 (  2192 PWs)   bands (ev):

   -18.2311  -5.7425  -5.6565  -4.4919   4.5180   6.7360   8.9648   9.6719

     occupation numbers 
     1.0000   1.0000   1.0000   1.0000   0.0000   0.0000   0.0000   0.0000

          k = 0.1235 0.2853-0.0000 (  2199 PWs)   bands (ev):

   -17.7381  -6.7862  -5.1813  -5.0657   5.3757   6.6594   9.3415   9.6859

     occupation numbers 
     1.0000   1.0000   1.0000   1.0000   0.0000   0.0000   0.0000   0.0000

          k = 0.1235 0.3566-0.0000 (  2218 PWs)   bands (ev):

   -17.1492  -7.9984  -5.7629  -4.2476   5.8501   6.4564   9.7964  10.1988

     occupation numbers 
     1.0000   1.0000   1.0000   1.0000   0.0000   0.0000   0.0000   0.0000

          k = 0.1235 0.4279-0.0000 (  2213 PWs)   bands (ev):

   -16.5266  -9.1313  -6.1919  -3.3623   4.7128   7.7289  10.3679  10.7223

     occupation numbers 
     1.0000   1.0000   1.0000   1.0000   0.0000   0.0000   0.0000   0.0000

          k = 0.1235 0.4992-0.0000 (  2214 PWs)   bands (ev):

   -15.9992  -9.9891  -6.4538  -2.5810   3.7062   9.0395  10.5539  11.7315

     occupation numbers 
     1.0000   1.0000   1.0000   1.0000   0.0000   0.0000   0.0000   0.0000

          k = 0.1235 0.5705-0.0000 (  2220 PWs)   bands (ev):

   -15.7785 -10.3239  -6.5421  -2.2388   3.2777   9.6409  11.2013  11.9380

     occupation numbers 
     1.0000   1.0000   1.0000   1.0000   0.0000   0.0000   0.0000   0.0000

          k = 0.1853 0.3209-0.0000 (  2206 PWs)   bands (ev):

   -17.2079  -7.6808  -5.9944  -4.3307   6.0284   6.3540   9.7115  10.6339

     occupation numbers 
     1.0000   1.0000   1.0000   1.0000   0.0000   0.0000   0.0000   0.0000

          k = 0.1853 0.3922-0.0000 (  2218 PWs)   bands (ev):

   -16.6137  -8.6294  -6.6558  -3.4921   5.0635   7.5528  10.4719  11.3679

     occupation numbers 
     1.0000   1.0000   1.0000   1.0000   0.0000   0.0000   0.0000   0.0000

          k = 0.1853 0.4635-0.0000 (  2218 PWs)   bands (ev):

   -16.0451  -9.4971  -7.0895  -2.6607   4.0725   8.9339  11.2564  11.5520

     occupation numbers 
     1.0000   1.0000   1.0000   1.0000   0.0000   0.0000   0.0000   0.0000

          k = 0.1853 0.5349-0.0000 (  2210 PWs)   bands (ev):

   -15.6668 -10.0453  -7.3005  -2.0780   3.3882  10.3003  11.5954  11.6710

     occupation numbers 
     1.0000   1.0000   1.0000   1.0000   0.0000   0.0000   0.0000   0.0000

          k = 0.2470 0.4279-0.0000 (  2206 PWs)   bands (ev):

   -16.0634  -9.2055  -7.4363  -2.6928   4.2343   8.8597  11.0634  12.4289

     occupation numbers 
     1.0000   1.0000   1.0000   1.0000   0.0000   0.0000   0.0000   0.0000

          k = 0.2470 0.4992-0.0000 (  2204 PWs)   bands (ev):

   -15.6157  -9.6748  -7.9366  -2.0086   3.5331  10.3125  11.1930  12.5498

     occupation numbers 
     1.0000   1.0000   1.0000   1.0000   0.0000   0.0000   0.0000   0.0000

          k = 0.2470 0.5705-0.0000 (  2202 PWs)   bands (ev):

   -15.4352  -9.8693  -8.1020  -1.7182   3.2362  11.1406  11.4106  12.2314

     occupation numbers 
     1.0000   1.0000   1.0000   1.0000   0.0000   0.0000   0.0000   0.0000

          k = 0.3088 0.5349-0.0000 (  2190 PWs)   bands (ev):

   -15.3526  -9.6823  -8.5107  -1.5865   3.1987  10.8827  11.6280  12.8584

     occupation numbers 
     1.0000   1.0000   1.0000   1.0000   0.0000   0.0000   0.0000   0.0000

     the Fermi energy is     0.9316 ev

!    total energy              =     -26.81549346 Ry
     estimated scf accuracy    <          1.8E-09 Ry
     smearing contrib. (-TS)   =       0.00000000 Ry
     internal energy E=F+TS    =     -26.81549346 Ry

     The total energy is F=E-TS. E is the sum of the following terms:
     one-electron contribution =     -64.24770188 Ry
     hartree contribution      =      34.48327265 Ry
     xc contribution           =      -8.60809833 Ry
     ewald contribution        =      11.55703411 Ry

     convergence has been achieved in   9 iterations

     Forces acting on atoms (cartesian axes, Ry/au):

     atom    1 type  2   force =     0.00000000    0.00000000    0.00000000
     atom    2 type  1   force =     0.00000000    0.00000000   -0.00000000
     The non-local contrib.  to forces
     atom    1 type  2   force =    -0.00000000   -0.00000000   -0.00000000
     atom    2 type  1   force =     0.00000000    0.00000000    0.00000000
     The ionic contribution  to forces
     atom    1 type  2   force =    -0.00000001    0.00000000    0.00000000
     atom    2 type  1   force =     0.00000001   -0.00000000   -0.00000000
     The local contribution  to forces
     atom    1 type  2   force =     0.00000000   -0.00000000   -0.00000000
     atom    2 type  1   force =     0.00000003   -0.00000002   -0.00000000
     The core correction contribution to forces
     atom    1 type  2   force =     0.00000000   -0.00000000    0.00000000
     atom    2 type  1   force =    -0.00000000    0.00000000    0.00000000
     The Hubbard contrib.    to forces
     atom    1 type  2   force =     0.00000000    0.00000000    0.00000000
     atom    2 type  1   force =     0.00000000    0.00000000    0.00000000
     The SCF correction term to forces
     atom    1 type  2   force =    -0.00000000    0.00000000   -0.00000000
     atom    2 type  1   force =    -0.00000000    0.00000000   -0.00000000

     Total force =     0.000000     Total SCF correction =     0.000000


     Computing stress (Cartesian axis) and pressure

          total   stress  (Ry/bohr**3)                   (kbar)     P=      -13.06
  -0.00005953  -0.00000000   0.00000000           -8.76       -0.00        0.00
  -0.00000000  -0.00005953   0.00000000           -0.00       -8.76        0.00
   0.00000000   0.00000000  -0.00014736            0.00        0.00      -21.68

     kinetic stress (kbar)   6403.25      0.00     -0.00
                                0.00   6403.25     -0.00
                               -0.00     -0.00   6936.96

     local   stress (kbar) -37471.92      0.00     -0.00
                                0.00 -37471.92     -0.00
                               -0.00     -0.00  38554.40

     nonloc. stress (kbar)  -1172.47     -0.00      0.00
                               -0.00  -1172.47      0.00
                                0.00      0.00  -1121.08

     hartree stress (kbar)  16967.81     -0.00      0.00
                               -0.00  16967.81     -0.00
                                0.00     -0.00 -15912.83

     exc-cor stress (kbar)   -630.63      0.00      0.00
                                0.00   -630.63      0.00
                                0.00      0.00   -630.63

     corecor stress (kbar)   -704.25      0.00     -0.00
                                0.00   -704.25     -0.00
                               -0.00     -0.00   -689.93

     ewald   stress (kbar)  16599.45     -0.00     -0.00
                               -0.00  16599.45     -0.00
                               -0.00     -0.00 -27158.58

     hubbard stress (kbar)      0.00      0.00      0.00
                                0.00      0.00      0.00
                                0.00      0.00      0.00

     DFT-D   stress (kbar)      0.00      0.00      0.00
                                0.00      0.00      0.00
                                0.00      0.00      0.00

     XDM     stress (kbar)      0.00      0.00      0.00
                                0.00      0.00      0.00
                                0.00      0.00      0.00

     dft-nl  stress (kbar)      0.00      0.00      0.00
                                0.00      0.00      0.00
                                0.00      0.00      0.00

     TS-vdW  stress (kbar)      0.00      0.00      0.00
                                0.00      0.00      0.00
                                0.00      0.00      0.00



     Writing output data file ./tmp/hBN.save/

     init_run     :      6.32s CPU      4.90s WALL (       2 calls)
     electrons    :   1491.97s CPU    625.27s WALL (      24 calls)
     update_pot   :     64.86s CPU     62.20s WALL (      22 calls)
     forces       :     46.07s CPU     38.52s WALL (      24 calls)
     stress       :    101.94s CPU     83.57s WALL (      24 calls)

     Called by init_run:
     wfcinit      :      2.24s CPU      0.89s WALL (       2 calls)
     wfcinit:atom :      0.11s CPU      0.03s WALL (      60 calls)
     wfcinit:wfcr :      1.81s CPU      0.73s WALL (      60 calls)
     potinit      :      1.19s CPU      1.19s WALL (       2 calls)
     hinit0       :      2.81s CPU      2.77s WALL (       2 calls)

     Called by electrons:
     c_bands      :   1373.16s CPU    551.65s WALL (     295 calls)
     sum_band     :    115.46s CPU     70.47s WALL (     295 calls)
     v_of_rho     :      1.46s CPU      1.31s WALL (     318 calls)
     v_h          :      0.40s CPU      0.38s WALL (     318 calls)
     v_xc         :      1.41s CPU      1.15s WALL (     366 calls)
     mix_rho      :      1.65s CPU      1.59s WALL (     295 calls)

     Called by c_bands:
     init_us_2    :     45.63s CPU     18.82s WALL (   19200 calls)
     cegterg      :   1283.46s CPU    518.63s WALL (    8850 calls)

     Called by sum_band:
     sum_band:wei :      0.05s CPU      0.02s WALL (     295 calls)
     sum_band:loo :    114.29s CPU     69.37s WALL (     295 calls)
     sum_band:buf :      1.11s CPU      0.69s WALL (    8850 calls)
     sum_band:ini :     12.91s CPU      7.76s WALL (    8850 calls)

     Called by *egterg:
     cdiaghg      :     14.58s CPU      4.53s WALL (   37888 calls)
     cegterg:over :     26.48s CPU      9.41s WALL (   29728 calls)
     cegterg:upda :     20.61s CPU      7.11s WALL (   29728 calls)
     cegterg:last :     24.38s CPU      8.01s WALL (   20680 calls)
     h_psi        :   1164.34s CPU    480.02s WALL (   38638 calls)
     g_psi        :     15.65s CPU      4.41s WALL (   29728 calls)

     Called by h_psi:
     h_psi:calbec :     53.69s CPU     34.46s WALL (   38638 calls)
     vloc_psi     :   1082.15s CPU    435.06s WALL (   38638 calls)
     add_vuspsi   :     21.14s CPU      8.13s WALL (   38638 calls)

     General routines
     calbec       :     56.91s CPU     35.92s WALL (   42238 calls)
     fft          :      1.32s CPU      1.12s WALL (    1145 calls)
     ffts         :      0.30s CPU      0.30s WALL (     295 calls)
     fftw         :   1001.62s CPU    419.93s WALL (  481672 calls)

     Parallel routines

     PWSCF        :  28m32.19s CPU  13m35.02s WALL


   This run was terminated on:  15:25:21  14Feb2024            

=------------------------------------------------------------------------------=
   JOB DONE.
=------------------------------------------------------------------------------=
