
     Program PWSCF v.7.2 starts on 16Apr2024 at 10:10:53 

     This program is part of the open-source Quantum ESPRESSO suite
     for quantum simulation of materials; please cite
         "P. Giannozzi et al., J. Phys.:Condens. Matter 21 395502 (2009);
         "P. Giannozzi et al., J. Phys.:Condens. Matter 29 465901 (2017);
         "P. Giannozzi et al., J. Chem. Phys. 152 154105 (2020);
          URL http://www.quantum-espresso.org", 
     in publications or presentations arising from this work. More details at
     http://www.quantum-espresso.org/quote

     Parallel version (MPI & OpenMP), running on       8 processor cores
     Number of MPI processes:                 8
     Threads/MPI process:                     1

     MPI processes distributed on     1 nodes
     0 MiB available memory on the printing compute node when the environment starts

     Waiting for input...
     Reading input from standard input
Warning: card &IONS ignored
Warning: card / ignored
Warning: card &CELL ignored
Warning: card CELL_DOFREE = 'ALL' ignored
Warning: card / ignored

     Current dimensions of program PWSCF are:
     Max number of different atomic species (ntypx) = 10
     Max number of k-points (npk) =  40000
     Max angular momentum in pseudopotentials (lmaxx) =  4

     Atomic positions and unit cell read from directory:
     ./tmp/C2L_AA_PBE_vdW.save/
     Atomic positions from file used, from input discarded


     IMPORTANT: XC functional enforced from input :
     Exchange-correlation= VDW-DF2-B86R
                           (   1   4  26   0   2   0   0)
     Any further DFT definition will be discarded
     Please, verify this is what you really want


     R & G space division:  proc/nbgrp/npool/nimage =       8
     Subspace diagonalization in iterative solution of the eigenvalue problem:
     a serial algorithm will be used


     Parallelization info
     --------------------
     sticks:   dense  smooth     PW     G-vecs:    dense   smooth      PW
     Min          45      45     13                 5519     5519     941
     Max          46      46     14                 5546     5546     968
     Sum         361     361    109                44285    44285    7663

     Using Slab Decomposition



     bravais-lattice index     =            4
     lattice parameter (alat)  =       4.6650  a.u.
     unit-cell volume          =     703.3340 (a.u.)^3
     number of atoms/cell      =            4
     number of atomic types    =            1
     number of electrons       =        16.00
     number of Kohn-Sham states=           16
     kinetic-energy cutoff     =      60.0000  Ry
     charge density cutoff     =     240.0000  Ry
     Exchange-correlation= VDW-DF2-B86R
                           (   1   4  26   0   2   0   0)

     celldm(1)=   4.664950  celldm(2)=   0.000000  celldm(3)=   8.000000
     celldm(4)=   0.000000  celldm(5)=   0.000000  celldm(6)=   0.000000

     crystal axes: (cart. coord. in units of alat)
               a(1) = (   1.000000   0.000000   0.000000 )  
               a(2) = (  -0.500000   0.866025   0.000000 )  
               a(3) = (   0.000000   0.000000   8.000000 )  

     reciprocal axes: (cart. coord. in units 2 pi/alat)
               b(1) = (  1.000000  0.577350 -0.000000 )  
               b(2) = (  0.000000  1.154701  0.000000 )  
               b(3) = (  0.000000 -0.000000  0.125000 )  


     PseudoPot. # 1 for C  read from file:
     ../../../../Pseudo/PBE/C.upf
     MD5 check sum: 34a24e64c0a39f27c6c36b90a16ac686
     Pseudo is Norm-conserving + core correction, Zval =  4.0
     Generated using ONCVPSP code by D. R. Hamann
     Using radial grid of 1248 points,  4 beta functions with: 
                l(1) =   0
                l(2) =   0
                l(3) =   1
                l(4) =   1

     atomic species   valence    mass     pseudopotential
        C              4.00    12.01100     C ( 1.00)

     12 Sym. Ops. (no inversion) found ( 6 have fractional translation)


                                    s                        frac. trans.

      isym =  1     identity                                     

 cryst.   s( 1) = (     1          0          0      )
                  (     0          1          0      )
                  (     0          0          1      )

 cart.    s( 1) = (  1.0000000  0.0000000  0.0000000 )
                  (  0.0000000  1.0000000  0.0000000 )
                  (  0.0000000  0.0000000  1.0000000 )


      isym =  2     180 deg rotation - cart. axis [0,0,1]        

 cryst.   s( 2) = (    -1          0          0      )    f =(  0.3333330 )
                  (     0         -1          0      )       ( -0.3333330 )
                  (     0          0          1      )       (  0.0000000 )

 cart.    s( 2) = ( -1.0000000  0.0000000  0.0000000 )    f =(  0.4999995 )
                  (  0.0000000 -1.0000000  0.0000000 )       ( -0.2886748 )
                  (  0.0000000  0.0000000  1.0000000 )       (  0.0000000 )


      isym =  3      60 deg rotation - cryst. axis [0,0,1]       

 cryst.   s( 3) = (     1          1          0      )    f =(  0.3333340 )
                  (    -1          0          0      )       ( -0.3333330 )
                  (     0          0          1      )       (  0.0000000 )

 cart.    s( 3) = (  0.5000000 -0.8660254  0.0000000 )    f =(  0.5000005 )
                  (  0.8660254  0.5000000  0.0000000 )       ( -0.2886748 )
                  (  0.0000000  0.0000000  1.0000000 )       (  0.0000000 )


      isym =  4      60 deg rotation - cryst. axis [0,0,-1]      

 cryst.   s( 4) = (     0         -1          0      )    f =(  0.3333330 )
                  (     1          1          0      )       ( -0.3333340 )
                  (     0          0          1      )       (  0.0000000 )

 cart.    s( 4) = (  0.5000000  0.8660254  0.0000000 )    f =(  0.5000000 )
                  ( -0.8660254  0.5000000  0.0000000 )       ( -0.2886757 )
                  (  0.0000000  0.0000000  1.0000000 )       (  0.0000000 )


      isym =  5     120 deg rotation - cryst. axis [0,0,1]       

 cryst.   s( 5) = (     0          1          0      )
                  (    -1         -1          0      )
                  (     0          0          1      )

 cart.    s( 5) = ( -0.5000000 -0.8660254  0.0000000 )
                  (  0.8660254 -0.5000000  0.0000000 )
                  (  0.0000000  0.0000000  1.0000000 )


      isym =  6     120 deg rotation - cryst. axis [0,0,-1]      

 cryst.   s( 6) = (    -1         -1          0      )
                  (     1          0          0      )
                  (     0          0          1      )

 cart.    s( 6) = ( -0.5000000  0.8660254  0.0000000 )
                  ( -0.8660254 -0.5000000  0.0000000 )
                  (  0.0000000  0.0000000  1.0000000 )


      isym =  7     inv. 180 deg rotation - cart. axis [0,1,0]   

 cryst.   s( 7) = (     1          0          0      )    f =(  0.3333340 )
                  (    -1         -1          0      )       ( -0.3333330 )
                  (     0          0          1      )       (  0.0000000 )

 cart.    s( 7) = (  1.0000000  0.0000000  0.0000000 )    f =(  0.5000005 )
                  (  0.0000000 -1.0000000  0.0000000 )       ( -0.2886748 )
                  (  0.0000000  0.0000000  1.0000000 )       (  0.0000000 )


      isym =  8     inv. 180 deg rotation - cart. axis [1,0,0]   

 cryst.   s( 8) = (    -1          0          0      )
                  (     1          1          0      )
                  (     0          0          1      )

 cart.    s( 8) = ( -1.0000000  0.0000000  0.0000000 )
                  (  0.0000000  1.0000000  0.0000000 )
                  (  0.0000000  0.0000000  1.0000000 )


      isym =  9     inv. 180 deg rotation - cryst. axis [1,-1,0] 

 cryst.   s( 9) = (     0          1          0      )    f =(  0.3333330 )
                  (     1          0          0      )       ( -0.3333330 )
                  (     0          0          1      )       (  0.0000000 )

 cart.    s( 9) = ( -0.5000000  0.8660254  0.0000000 )    f =(  0.4999995 )
                  (  0.8660254  0.5000000  0.0000000 )       ( -0.2886748 )
                  (  0.0000000  0.0000000  1.0000000 )       (  0.0000000 )


      isym = 10     inv. 180 deg rotation - cryst. axis [2,1,0]  

 cryst.   s(10) = (    -1         -1          0      )    f =(  0.3333330 )
                  (     0          1          0      )       ( -0.3333340 )
                  (     0          0          1      )       (  0.0000000 )

 cart.    s(10) = ( -0.5000000 -0.8660254  0.0000000 )    f =(  0.5000000 )
                  ( -0.8660254  0.5000000  0.0000000 )       ( -0.2886757 )
                  (  0.0000000  0.0000000  1.0000000 )       (  0.0000000 )


      isym = 11     inv. 180 deg rotation - cryst. axis [0,1,0]  

 cryst.   s(11) = (     1          1          0      )
                  (     0         -1          0      )
                  (     0          0          1      )

 cart.    s(11) = (  0.5000000  0.8660254  0.0000000 )
                  (  0.8660254 -0.5000000  0.0000000 )
                  (  0.0000000  0.0000000  1.0000000 )


      isym = 12     inv. 180 deg rotation - cryst. axis [1,1,0]  

 cryst.   s(12) = (     0         -1          0      )
                  (    -1          0          0      )
                  (     0          0          1      )

 cart.    s(12) = (  0.5000000 -0.8660254  0.0000000 )
                  ( -0.8660254 -0.5000000  0.0000000 )
                  (  0.0000000  0.0000000  1.0000000 )


     point group C_6v (6mm) 
     there are  6 classes
     the character table:

       E     2C6   2C3   C2    3s_v  3s_d 
A_1    1.00  1.00  1.00  1.00  1.00  1.00
A_2    1.00  1.00  1.00  1.00 -1.00 -1.00
B_1    1.00 -1.00  1.00 -1.00  1.00 -1.00
B_2    1.00 -1.00  1.00 -1.00 -1.00  1.00
E_1    2.00  1.00 -1.00 -2.00  0.00  0.00
E_2    2.00 -1.00 -1.00  2.00  0.00  0.00

     the symmetry operations in each class and the name of the first element:

     E        1
          identity                                               
     2C6      3    4
           60 deg rotation - cryst. axis [0,0,1]                 
     2C3      5    6
          120 deg rotation - cryst. axis [0,0,1]                 
     C2       2
          180 deg rotation - cart. axis [0,0,1]                  
     3s_v     8   12   11
          inv. 180 deg rotation - cart. axis [1,0,0]             
     3s_d     7    9   10
          inv. 180 deg rotation - cart. axis [0,1,0]             

   Cartesian axes

     site n.     atom                  positions (alat units)
         1           C   tau(   1) = (   0.0000000   0.0000000   0.0000000  )
         2           C   tau(   2) = (   0.5000005   0.2886748   0.0000000  )
         3           C   tau(   3) = (   0.0000000   0.0000000   1.4125120  )
         4           C   tau(   4) = (   0.5000005   0.2886748   1.4125120  )

   Crystallographic axes

     site n.     atom                  positions (cryst. coord.)
         1           C   tau(   1) = (  0.0000000  0.0000000  0.0000000  )
         2           C   tau(   2) = (  0.6666670  0.3333330  0.0000000  )
         3           C   tau(   3) = (  0.0000000  0.0000000  0.1765640  )
         4           C   tau(   4) = (  0.6666670  0.3333330  0.1765640  )

     number of k points=   331  Marzari-Vanderbilt smearing, width (Ry)=  0.0050
                       cart. coord. in units 2pi/alat
        k(    1) = (   0.0000000   0.0000000   0.0000000), wk =   0.0005556
        k(    2) = (   0.0000000   0.0192450   0.0000000), wk =   0.0033333
        k(    3) = (   0.0000000   0.0384900   0.0000000), wk =   0.0033333
        k(    4) = (   0.0000000   0.0577350   0.0000000), wk =   0.0033333
        k(    5) = (   0.0000000   0.0769800   0.0000000), wk =   0.0033333
        k(    6) = (   0.0000000   0.0962250   0.0000000), wk =   0.0033333
        k(    7) = (   0.0000000   0.1154701   0.0000000), wk =   0.0033333
        k(    8) = (   0.0000000   0.1347151   0.0000000), wk =   0.0033333
        k(    9) = (   0.0000000   0.1539601   0.0000000), wk =   0.0033333
        k(   10) = (   0.0000000   0.1732051   0.0000000), wk =   0.0033333
        k(   11) = (   0.0000000   0.1924501   0.0000000), wk =   0.0033333
        k(   12) = (   0.0000000   0.2116951   0.0000000), wk =   0.0033333
        k(   13) = (   0.0000000   0.2309401   0.0000000), wk =   0.0033333
        k(   14) = (   0.0000000   0.2501851   0.0000000), wk =   0.0033333
        k(   15) = (   0.0000000   0.2694301   0.0000000), wk =   0.0033333
        k(   16) = (   0.0000000   0.2886751   0.0000000), wk =   0.0033333
        k(   17) = (   0.0000000   0.3079201   0.0000000), wk =   0.0033333
        k(   18) = (   0.0000000   0.3271652   0.0000000), wk =   0.0033333
        k(   19) = (   0.0000000   0.3464102   0.0000000), wk =   0.0033333
        k(   20) = (   0.0000000   0.3656552   0.0000000), wk =   0.0033333
        k(   21) = (   0.0000000   0.3849002   0.0000000), wk =   0.0033333
        k(   22) = (   0.0000000   0.4041452   0.0000000), wk =   0.0033333
        k(   23) = (   0.0000000   0.4233902   0.0000000), wk =   0.0033333
        k(   24) = (   0.0000000   0.4426352   0.0000000), wk =   0.0033333
        k(   25) = (   0.0000000   0.4618802   0.0000000), wk =   0.0033333
        k(   26) = (   0.0000000   0.4811252   0.0000000), wk =   0.0033333
        k(   27) = (   0.0000000   0.5003702   0.0000000), wk =   0.0033333
        k(   28) = (   0.0000000   0.5196152   0.0000000), wk =   0.0033333
        k(   29) = (   0.0000000   0.5388603   0.0000000), wk =   0.0033333
        k(   30) = (   0.0000000   0.5581053   0.0000000), wk =   0.0033333
        k(   31) = (   0.0000000  -0.5773503   0.0000000), wk =   0.0016667
        k(   32) = (   0.0166667   0.0288675   0.0000000), wk =   0.0033333
        k(   33) = (   0.0166667   0.0481125   0.0000000), wk =   0.0066667
        k(   34) = (   0.0166667   0.0673575   0.0000000), wk =   0.0066667
        k(   35) = (   0.0166667   0.0866025   0.0000000), wk =   0.0066667
        k(   36) = (   0.0166667   0.1058475   0.0000000), wk =   0.0066667
        k(   37) = (   0.0166667   0.1250926   0.0000000), wk =   0.0066667
        k(   38) = (   0.0166667   0.1443376   0.0000000), wk =   0.0066667
        k(   39) = (   0.0166667   0.1635826   0.0000000), wk =   0.0066667
        k(   40) = (   0.0166667   0.1828276   0.0000000), wk =   0.0066667
        k(   41) = (   0.0166667   0.2020726   0.0000000), wk =   0.0066667
        k(   42) = (   0.0166667   0.2213176   0.0000000), wk =   0.0066667
        k(   43) = (   0.0166667   0.2405626   0.0000000), wk =   0.0066667
        k(   44) = (   0.0166667   0.2598076   0.0000000), wk =   0.0066667
        k(   45) = (   0.0166667   0.2790526   0.0000000), wk =   0.0066667
        k(   46) = (   0.0166667   0.2982976   0.0000000), wk =   0.0066667
        k(   47) = (   0.0166667   0.3175426   0.0000000), wk =   0.0066667
        k(   48) = (   0.0166667   0.3367877   0.0000000), wk =   0.0066667
        k(   49) = (   0.0166667   0.3560327   0.0000000), wk =   0.0066667
        k(   50) = (   0.0166667   0.3752777   0.0000000), wk =   0.0066667
        k(   51) = (   0.0166667   0.3945227   0.0000000), wk =   0.0066667
        k(   52) = (   0.0166667   0.4137677   0.0000000), wk =   0.0066667
        k(   53) = (   0.0166667   0.4330127   0.0000000), wk =   0.0066667
        k(   54) = (   0.0166667   0.4522577   0.0000000), wk =   0.0066667
        k(   55) = (   0.0166667   0.4715027   0.0000000), wk =   0.0066667
        k(   56) = (   0.0166667   0.4907477   0.0000000), wk =   0.0066667
        k(   57) = (   0.0166667   0.5099927   0.0000000), wk =   0.0066667
        k(   58) = (   0.0166667   0.5292377   0.0000000), wk =   0.0066667
        k(   59) = (   0.0166667   0.5484828   0.0000000), wk =   0.0066667
        k(   60) = (   0.0166667   0.5677278   0.0000000), wk =   0.0066667
        k(   61) = (   0.0333333   0.0577350   0.0000000), wk =   0.0033333
        k(   62) = (   0.0333333   0.0769800   0.0000000), wk =   0.0066667
        k(   63) = (   0.0333333   0.0962250   0.0000000), wk =   0.0066667
        k(   64) = (   0.0333333   0.1154701   0.0000000), wk =   0.0066667
        k(   65) = (   0.0333333   0.1347151   0.0000000), wk =   0.0066667
        k(   66) = (   0.0333333   0.1539601   0.0000000), wk =   0.0066667
        k(   67) = (   0.0333333   0.1732051   0.0000000), wk =   0.0066667
        k(   68) = (   0.0333333   0.1924501   0.0000000), wk =   0.0066667
        k(   69) = (   0.0333333   0.2116951   0.0000000), wk =   0.0066667
        k(   70) = (   0.0333333   0.2309401   0.0000000), wk =   0.0066667
        k(   71) = (   0.0333333   0.2501851   0.0000000), wk =   0.0066667
        k(   72) = (   0.0333333   0.2694301   0.0000000), wk =   0.0066667
        k(   73) = (   0.0333333   0.2886751   0.0000000), wk =   0.0066667
        k(   74) = (   0.0333333   0.3079201   0.0000000), wk =   0.0066667
        k(   75) = (   0.0333333   0.3271652   0.0000000), wk =   0.0066667
        k(   76) = (   0.0333333   0.3464102   0.0000000), wk =   0.0066667
        k(   77) = (   0.0333333   0.3656552   0.0000000), wk =   0.0066667
        k(   78) = (   0.0333333   0.3849002   0.0000000), wk =   0.0066667
        k(   79) = (   0.0333333   0.4041452   0.0000000), wk =   0.0066667
        k(   80) = (   0.0333333   0.4233902   0.0000000), wk =   0.0066667
        k(   81) = (   0.0333333   0.4426352   0.0000000), wk =   0.0066667
        k(   82) = (   0.0333333   0.4618802   0.0000000), wk =   0.0066667
        k(   83) = (   0.0333333   0.4811252   0.0000000), wk =   0.0066667
        k(   84) = (   0.0333333   0.5003702   0.0000000), wk =   0.0066667
        k(   85) = (   0.0333333   0.5196152   0.0000000), wk =   0.0066667
        k(   86) = (   0.0333333   0.5388603   0.0000000), wk =   0.0066667
        k(   87) = (   0.0333333   0.5581053   0.0000000), wk =   0.0066667
        k(   88) = (   0.0333333   0.5773503   0.0000000), wk =   0.0033333
        k(   89) = (   0.0500000   0.0866025   0.0000000), wk =   0.0033333
        k(   90) = (   0.0500000   0.1058475   0.0000000), wk =   0.0066667
        k(   91) = (   0.0500000   0.1250926   0.0000000), wk =   0.0066667
        k(   92) = (   0.0500000   0.1443376   0.0000000), wk =   0.0066667
        k(   93) = (   0.0500000   0.1635826   0.0000000), wk =   0.0066667
        k(   94) = (   0.0500000   0.1828276   0.0000000), wk =   0.0066667
        k(   95) = (   0.0500000   0.2020726   0.0000000), wk =   0.0066667
        k(   96) = (   0.0500000   0.2213176   0.0000000), wk =   0.0066667
        k(   97) = (   0.0500000   0.2405626   0.0000000), wk =   0.0066667
        k(   98) = (   0.0500000   0.2598076   0.0000000), wk =   0.0066667
        k(   99) = (   0.0500000   0.2790526   0.0000000), wk =   0.0066667
        k(  100) = (   0.0500000   0.2982976   0.0000000), wk =   0.0066667
        k(  101) = (   0.0500000   0.3175426   0.0000000), wk =   0.0066667
        k(  102) = (   0.0500000   0.3367877   0.0000000), wk =   0.0066667
        k(  103) = (   0.0500000   0.3560327   0.0000000), wk =   0.0066667
        k(  104) = (   0.0500000   0.3752777   0.0000000), wk =   0.0066667
        k(  105) = (   0.0500000   0.3945227   0.0000000), wk =   0.0066667
        k(  106) = (   0.0500000   0.4137677   0.0000000), wk =   0.0066667
        k(  107) = (   0.0500000   0.4330127   0.0000000), wk =   0.0066667
        k(  108) = (   0.0500000   0.4522577   0.0000000), wk =   0.0066667
        k(  109) = (   0.0500000   0.4715027   0.0000000), wk =   0.0066667
        k(  110) = (   0.0500000   0.4907477   0.0000000), wk =   0.0066667
        k(  111) = (   0.0500000   0.5099927   0.0000000), wk =   0.0066667
        k(  112) = (   0.0500000   0.5292377   0.0000000), wk =   0.0066667
        k(  113) = (   0.0500000   0.5484828   0.0000000), wk =   0.0066667
        k(  114) = (   0.0500000   0.5677278   0.0000000), wk =   0.0066667
        k(  115) = (   0.0666667   0.1154701   0.0000000), wk =   0.0033333
        k(  116) = (   0.0666667   0.1347151   0.0000000), wk =   0.0066667
        k(  117) = (   0.0666667   0.1539601   0.0000000), wk =   0.0066667
        k(  118) = (   0.0666667   0.1732051   0.0000000), wk =   0.0066667
        k(  119) = (   0.0666667   0.1924501   0.0000000), wk =   0.0066667
        k(  120) = (   0.0666667   0.2116951   0.0000000), wk =   0.0066667
        k(  121) = (   0.0666667   0.2309401   0.0000000), wk =   0.0066667
        k(  122) = (   0.0666667   0.2501851   0.0000000), wk =   0.0066667
        k(  123) = (   0.0666667   0.2694301   0.0000000), wk =   0.0066667
        k(  124) = (   0.0666667   0.2886751   0.0000000), wk =   0.0066667
        k(  125) = (   0.0666667   0.3079201   0.0000000), wk =   0.0066667
        k(  126) = (   0.0666667   0.3271652   0.0000000), wk =   0.0066667
        k(  127) = (   0.0666667   0.3464102   0.0000000), wk =   0.0066667
        k(  128) = (   0.0666667   0.3656552   0.0000000), wk =   0.0066667
        k(  129) = (   0.0666667   0.3849002   0.0000000), wk =   0.0066667
        k(  130) = (   0.0666667   0.4041452   0.0000000), wk =   0.0066667
        k(  131) = (   0.0666667   0.4233902   0.0000000), wk =   0.0066667
        k(  132) = (   0.0666667   0.4426352   0.0000000), wk =   0.0066667
        k(  133) = (   0.0666667   0.4618802   0.0000000), wk =   0.0066667
        k(  134) = (   0.0666667   0.4811252   0.0000000), wk =   0.0066667
        k(  135) = (   0.0666667   0.5003702   0.0000000), wk =   0.0066667
        k(  136) = (   0.0666667   0.5196152   0.0000000), wk =   0.0066667
        k(  137) = (   0.0666667   0.5388603   0.0000000), wk =   0.0066667
        k(  138) = (   0.0666667   0.5581053   0.0000000), wk =   0.0066667
        k(  139) = (   0.0666667   0.5773503   0.0000000), wk =   0.0033333
        k(  140) = (   0.0833333   0.1443376   0.0000000), wk =   0.0033333
        k(  141) = (   0.0833333   0.1635826   0.0000000), wk =   0.0066667
        k(  142) = (   0.0833333   0.1828276   0.0000000), wk =   0.0066667
        k(  143) = (   0.0833333   0.2020726   0.0000000), wk =   0.0066667
        k(  144) = (   0.0833333   0.2213176   0.0000000), wk =   0.0066667
        k(  145) = (   0.0833333   0.2405626   0.0000000), wk =   0.0066667
        k(  146) = (   0.0833333   0.2598076   0.0000000), wk =   0.0066667
        k(  147) = (   0.0833333   0.2790526   0.0000000), wk =   0.0066667
        k(  148) = (   0.0833333   0.2982976   0.0000000), wk =   0.0066667
        k(  149) = (   0.0833333   0.3175426   0.0000000), wk =   0.0066667
        k(  150) = (   0.0833333   0.3367877   0.0000000), wk =   0.0066667
        k(  151) = (   0.0833333   0.3560327   0.0000000), wk =   0.0066667
        k(  152) = (   0.0833333   0.3752777   0.0000000), wk =   0.0066667
        k(  153) = (   0.0833333   0.3945227   0.0000000), wk =   0.0066667
        k(  154) = (   0.0833333   0.4137677   0.0000000), wk =   0.0066667
        k(  155) = (   0.0833333   0.4330127   0.0000000), wk =   0.0066667
        k(  156) = (   0.0833333   0.4522577   0.0000000), wk =   0.0066667
        k(  157) = (   0.0833333   0.4715027   0.0000000), wk =   0.0066667
        k(  158) = (   0.0833333   0.4907477   0.0000000), wk =   0.0066667
        k(  159) = (   0.0833333   0.5099927   0.0000000), wk =   0.0066667
        k(  160) = (   0.0833333   0.5292377   0.0000000), wk =   0.0066667
        k(  161) = (   0.0833333   0.5484828   0.0000000), wk =   0.0066667
        k(  162) = (   0.0833333   0.5677278   0.0000000), wk =   0.0066667
        k(  163) = (   0.1000000   0.1732051   0.0000000), wk =   0.0033333
        k(  164) = (   0.1000000   0.1924501   0.0000000), wk =   0.0066667
        k(  165) = (   0.1000000   0.2116951   0.0000000), wk =   0.0066667
        k(  166) = (   0.1000000   0.2309401   0.0000000), wk =   0.0066667
        k(  167) = (   0.1000000   0.2501851   0.0000000), wk =   0.0066667
        k(  168) = (   0.1000000   0.2694301   0.0000000), wk =   0.0066667
        k(  169) = (   0.1000000   0.2886751   0.0000000), wk =   0.0066667
        k(  170) = (   0.1000000   0.3079201   0.0000000), wk =   0.0066667
        k(  171) = (   0.1000000   0.3271652   0.0000000), wk =   0.0066667
        k(  172) = (   0.1000000   0.3464102   0.0000000), wk =   0.0066667
        k(  173) = (   0.1000000   0.3656552   0.0000000), wk =   0.0066667
        k(  174) = (   0.1000000   0.3849002   0.0000000), wk =   0.0066667
        k(  175) = (   0.1000000   0.4041452   0.0000000), wk =   0.0066667
        k(  176) = (   0.1000000   0.4233902   0.0000000), wk =   0.0066667
        k(  177) = (   0.1000000   0.4426352   0.0000000), wk =   0.0066667
        k(  178) = (   0.1000000   0.4618802   0.0000000), wk =   0.0066667
        k(  179) = (   0.1000000   0.4811252   0.0000000), wk =   0.0066667
        k(  180) = (   0.1000000   0.5003702   0.0000000), wk =   0.0066667
        k(  181) = (   0.1000000   0.5196152   0.0000000), wk =   0.0066667
        k(  182) = (   0.1000000   0.5388603   0.0000000), wk =   0.0066667
        k(  183) = (   0.1000000   0.5581053   0.0000000), wk =   0.0066667
        k(  184) = (   0.1000000   0.5773503   0.0000000), wk =   0.0033333
        k(  185) = (   0.1166667   0.2020726   0.0000000), wk =   0.0033333
        k(  186) = (   0.1166667   0.2213176   0.0000000), wk =   0.0066667
        k(  187) = (   0.1166667   0.2405626   0.0000000), wk =   0.0066667
        k(  188) = (   0.1166667   0.2598076   0.0000000), wk =   0.0066667
        k(  189) = (   0.1166667   0.2790526   0.0000000), wk =   0.0066667
        k(  190) = (   0.1166667   0.2982976   0.0000000), wk =   0.0066667
        k(  191) = (   0.1166667   0.3175426   0.0000000), wk =   0.0066667
        k(  192) = (   0.1166667   0.3367877   0.0000000), wk =   0.0066667
        k(  193) = (   0.1166667   0.3560327   0.0000000), wk =   0.0066667
        k(  194) = (   0.1166667   0.3752777   0.0000000), wk =   0.0066667
        k(  195) = (   0.1166667   0.3945227   0.0000000), wk =   0.0066667
        k(  196) = (   0.1166667   0.4137677   0.0000000), wk =   0.0066667
        k(  197) = (   0.1166667   0.4330127   0.0000000), wk =   0.0066667
        k(  198) = (   0.1166667   0.4522577   0.0000000), wk =   0.0066667
        k(  199) = (   0.1166667   0.4715027   0.0000000), wk =   0.0066667
        k(  200) = (   0.1166667   0.4907477   0.0000000), wk =   0.0066667
        k(  201) = (   0.1166667   0.5099927   0.0000000), wk =   0.0066667
        k(  202) = (   0.1166667   0.5292377   0.0000000), wk =   0.0066667
        k(  203) = (   0.1166667   0.5484828   0.0000000), wk =   0.0066667
        k(  204) = (   0.1166667   0.5677278   0.0000000), wk =   0.0066667
        k(  205) = (   0.1333333   0.2309401   0.0000000), wk =   0.0033333
        k(  206) = (   0.1333333   0.2501851   0.0000000), wk =   0.0066667
        k(  207) = (   0.1333333   0.2694301   0.0000000), wk =   0.0066667
        k(  208) = (   0.1333333   0.2886751   0.0000000), wk =   0.0066667
        k(  209) = (   0.1333333   0.3079201   0.0000000), wk =   0.0066667
        k(  210) = (   0.1333333   0.3271652   0.0000000), wk =   0.0066667
        k(  211) = (   0.1333333   0.3464102   0.0000000), wk =   0.0066667
        k(  212) = (   0.1333333   0.3656552   0.0000000), wk =   0.0066667
        k(  213) = (   0.1333333   0.3849002   0.0000000), wk =   0.0066667
        k(  214) = (   0.1333333   0.4041452   0.0000000), wk =   0.0066667
        k(  215) = (   0.1333333   0.4233902   0.0000000), wk =   0.0066667
        k(  216) = (   0.1333333   0.4426352   0.0000000), wk =   0.0066667
        k(  217) = (   0.1333333   0.4618802   0.0000000), wk =   0.0066667
        k(  218) = (   0.1333333   0.4811252   0.0000000), wk =   0.0066667
        k(  219) = (   0.1333333   0.5003702   0.0000000), wk =   0.0066667
        k(  220) = (   0.1333333   0.5196152   0.0000000), wk =   0.0066667
        k(  221) = (   0.1333333   0.5388603   0.0000000), wk =   0.0066667
        k(  222) = (   0.1333333   0.5581053   0.0000000), wk =   0.0066667
        k(  223) = (   0.1333333   0.5773503   0.0000000), wk =   0.0033333
        k(  224) = (   0.1500000   0.2598076   0.0000000), wk =   0.0033333
        k(  225) = (   0.1500000   0.2790526   0.0000000), wk =   0.0066667
        k(  226) = (   0.1500000   0.2982976   0.0000000), wk =   0.0066667
        k(  227) = (   0.1500000   0.3175426   0.0000000), wk =   0.0066667
        k(  228) = (   0.1500000   0.3367877   0.0000000), wk =   0.0066667
        k(  229) = (   0.1500000   0.3560327   0.0000000), wk =   0.0066667
        k(  230) = (   0.1500000   0.3752777   0.0000000), wk =   0.0066667
        k(  231) = (   0.1500000   0.3945227   0.0000000), wk =   0.0066667
        k(  232) = (   0.1500000   0.4137677   0.0000000), wk =   0.0066667
        k(  233) = (   0.1500000   0.4330127   0.0000000), wk =   0.0066667
        k(  234) = (   0.1500000   0.4522577   0.0000000), wk =   0.0066667
        k(  235) = (   0.1500000   0.4715027   0.0000000), wk =   0.0066667
        k(  236) = (   0.1500000   0.4907477   0.0000000), wk =   0.0066667
        k(  237) = (   0.1500000   0.5099927   0.0000000), wk =   0.0066667
        k(  238) = (   0.1500000   0.5292377   0.0000000), wk =   0.0066667
        k(  239) = (   0.1500000   0.5484828   0.0000000), wk =   0.0066667
        k(  240) = (   0.1500000   0.5677278   0.0000000), wk =   0.0066667
        k(  241) = (   0.1666667   0.2886751   0.0000000), wk =   0.0033333
        k(  242) = (   0.1666667   0.3079201   0.0000000), wk =   0.0066667
        k(  243) = (   0.1666667   0.3271652   0.0000000), wk =   0.0066667
        k(  244) = (   0.1666667   0.3464102   0.0000000), wk =   0.0066667
        k(  245) = (   0.1666667   0.3656552   0.0000000), wk =   0.0066667
        k(  246) = (   0.1666667   0.3849002   0.0000000), wk =   0.0066667
        k(  247) = (   0.1666667   0.4041452   0.0000000), wk =   0.0066667
        k(  248) = (   0.1666667   0.4233902   0.0000000), wk =   0.0066667
        k(  249) = (   0.1666667   0.4426352   0.0000000), wk =   0.0066667
        k(  250) = (   0.1666667   0.4618802   0.0000000), wk =   0.0066667
        k(  251) = (   0.1666667   0.4811252   0.0000000), wk =   0.0066667
        k(  252) = (   0.1666667   0.5003702   0.0000000), wk =   0.0066667
        k(  253) = (   0.1666667   0.5196152   0.0000000), wk =   0.0066667
        k(  254) = (   0.1666667   0.5388603   0.0000000), wk =   0.0066667
        k(  255) = (   0.1666667   0.5581053   0.0000000), wk =   0.0066667
        k(  256) = (   0.1666667   0.5773503   0.0000000), wk =   0.0033333
        k(  257) = (   0.1833333   0.3175426   0.0000000), wk =   0.0033333
        k(  258) = (   0.1833333   0.3367877   0.0000000), wk =   0.0066667
        k(  259) = (   0.1833333   0.3560327   0.0000000), wk =   0.0066667
        k(  260) = (   0.1833333   0.3752777   0.0000000), wk =   0.0066667
        k(  261) = (   0.1833333   0.3945227   0.0000000), wk =   0.0066667
        k(  262) = (   0.1833333   0.4137677   0.0000000), wk =   0.0066667
        k(  263) = (   0.1833333   0.4330127   0.0000000), wk =   0.0066667
        k(  264) = (   0.1833333   0.4522577   0.0000000), wk =   0.0066667
        k(  265) = (   0.1833333   0.4715027   0.0000000), wk =   0.0066667
        k(  266) = (   0.1833333   0.4907477   0.0000000), wk =   0.0066667
        k(  267) = (   0.1833333   0.5099927   0.0000000), wk =   0.0066667
        k(  268) = (   0.1833333   0.5292377   0.0000000), wk =   0.0066667
        k(  269) = (   0.1833333   0.5484828   0.0000000), wk =   0.0066667
        k(  270) = (   0.1833333   0.5677278   0.0000000), wk =   0.0066667
        k(  271) = (   0.2000000   0.3464102   0.0000000), wk =   0.0033333
        k(  272) = (   0.2000000   0.3656552   0.0000000), wk =   0.0066667
        k(  273) = (   0.2000000   0.3849002   0.0000000), wk =   0.0066667
        k(  274) = (   0.2000000   0.4041452   0.0000000), wk =   0.0066667
        k(  275) = (   0.2000000   0.4233902   0.0000000), wk =   0.0066667
        k(  276) = (   0.2000000   0.4426352   0.0000000), wk =   0.0066667
        k(  277) = (   0.2000000   0.4618802   0.0000000), wk =   0.0066667
        k(  278) = (   0.2000000   0.4811252   0.0000000), wk =   0.0066667
        k(  279) = (   0.2000000   0.5003702   0.0000000), wk =   0.0066667
        k(  280) = (   0.2000000   0.5196152   0.0000000), wk =   0.0066667
        k(  281) = (   0.2000000   0.5388603   0.0000000), wk =   0.0066667
        k(  282) = (   0.2000000   0.5581053   0.0000000), wk =   0.0066667
        k(  283) = (   0.2000000   0.5773503   0.0000000), wk =   0.0033333
        k(  284) = (   0.2166667   0.3752777   0.0000000), wk =   0.0033333
        k(  285) = (   0.2166667   0.3945227   0.0000000), wk =   0.0066667
        k(  286) = (   0.2166667   0.4137677   0.0000000), wk =   0.0066667
        k(  287) = (   0.2166667   0.4330127   0.0000000), wk =   0.0066667
        k(  288) = (   0.2166667   0.4522577   0.0000000), wk =   0.0066667
        k(  289) = (   0.2166667   0.4715027   0.0000000), wk =   0.0066667
        k(  290) = (   0.2166667   0.4907477   0.0000000), wk =   0.0066667
        k(  291) = (   0.2166667   0.5099927   0.0000000), wk =   0.0066667
        k(  292) = (   0.2166667   0.5292377   0.0000000), wk =   0.0066667
        k(  293) = (   0.2166667   0.5484828   0.0000000), wk =   0.0066667
        k(  294) = (   0.2166667   0.5677278   0.0000000), wk =   0.0066667
        k(  295) = (   0.2333333   0.4041452   0.0000000), wk =   0.0033333
        k(  296) = (   0.2333333   0.4233902   0.0000000), wk =   0.0066667
        k(  297) = (   0.2333333   0.4426352   0.0000000), wk =   0.0066667
        k(  298) = (   0.2333333   0.4618802   0.0000000), wk =   0.0066667
        k(  299) = (   0.2333333   0.4811252   0.0000000), wk =   0.0066667
        k(  300) = (   0.2333333   0.5003702   0.0000000), wk =   0.0066667
        k(  301) = (   0.2333333   0.5196152   0.0000000), wk =   0.0066667
        k(  302) = (   0.2333333   0.5388603   0.0000000), wk =   0.0066667
        k(  303) = (   0.2333333   0.5581053   0.0000000), wk =   0.0066667
        k(  304) = (   0.2333333   0.5773503   0.0000000), wk =   0.0033333
        k(  305) = (   0.2500000   0.4330127   0.0000000), wk =   0.0033333
        k(  306) = (   0.2500000   0.4522577   0.0000000), wk =   0.0066667
        k(  307) = (   0.2500000   0.4715027   0.0000000), wk =   0.0066667
        k(  308) = (   0.2500000   0.4907477   0.0000000), wk =   0.0066667
        k(  309) = (   0.2500000   0.5099927   0.0000000), wk =   0.0066667
        k(  310) = (   0.2500000   0.5292377   0.0000000), wk =   0.0066667
        k(  311) = (   0.2500000   0.5484828   0.0000000), wk =   0.0066667
        k(  312) = (   0.2500000   0.5677278   0.0000000), wk =   0.0066667
        k(  313) = (   0.2666667   0.4618802   0.0000000), wk =   0.0033333
        k(  314) = (   0.2666667   0.4811252   0.0000000), wk =   0.0066667
        k(  315) = (   0.2666667   0.5003702   0.0000000), wk =   0.0066667
        k(  316) = (   0.2666667   0.5196152   0.0000000), wk =   0.0066667
        k(  317) = (   0.2666667   0.5388603   0.0000000), wk =   0.0066667
        k(  318) = (   0.2666667   0.5581053   0.0000000), wk =   0.0066667
        k(  319) = (   0.2666667   0.5773503   0.0000000), wk =   0.0033333
        k(  320) = (   0.2833333   0.4907477   0.0000000), wk =   0.0033333
        k(  321) = (   0.2833333   0.5099927   0.0000000), wk =   0.0066667
        k(  322) = (   0.2833333   0.5292377   0.0000000), wk =   0.0066667
        k(  323) = (   0.2833333   0.5484828   0.0000000), wk =   0.0066667
        k(  324) = (   0.2833333   0.5677278   0.0000000), wk =   0.0066667
        k(  325) = (   0.3000000   0.5196152   0.0000000), wk =   0.0033333
        k(  326) = (   0.3000000   0.5388603   0.0000000), wk =   0.0066667
        k(  327) = (   0.3000000   0.5581053   0.0000000), wk =   0.0066667
        k(  328) = (   0.3000000   0.5773503   0.0000000), wk =   0.0033333
        k(  329) = (   0.3166667   0.5484828   0.0000000), wk =   0.0033333
        k(  330) = (   0.3166667   0.5677278   0.0000000), wk =   0.0066667
        k(  331) = (   0.3333333   0.5773503   0.0000000), wk =   0.0011111

                       cryst. coord.
        k(    1) = (   0.0000000   0.0000000   0.0000000), wk =   0.0005556
        k(    2) = (   0.0000000   0.0166667   0.0000000), wk =   0.0033333
        k(    3) = (   0.0000000   0.0333333   0.0000000), wk =   0.0033333
        k(    4) = (   0.0000000   0.0500000   0.0000000), wk =   0.0033333
        k(    5) = (   0.0000000   0.0666667   0.0000000), wk =   0.0033333
        k(    6) = (   0.0000000   0.0833333   0.0000000), wk =   0.0033333
        k(    7) = (   0.0000000   0.1000000   0.0000000), wk =   0.0033333
        k(    8) = (   0.0000000   0.1166667   0.0000000), wk =   0.0033333
        k(    9) = (   0.0000000   0.1333333   0.0000000), wk =   0.0033333
        k(   10) = (   0.0000000   0.1500000   0.0000000), wk =   0.0033333
        k(   11) = (   0.0000000   0.1666667   0.0000000), wk =   0.0033333
        k(   12) = (   0.0000000   0.1833333   0.0000000), wk =   0.0033333
        k(   13) = (   0.0000000   0.2000000   0.0000000), wk =   0.0033333
        k(   14) = (   0.0000000   0.2166667   0.0000000), wk =   0.0033333
        k(   15) = (   0.0000000   0.2333333   0.0000000), wk =   0.0033333
        k(   16) = (   0.0000000   0.2500000   0.0000000), wk =   0.0033333
        k(   17) = (   0.0000000   0.2666667   0.0000000), wk =   0.0033333
        k(   18) = (   0.0000000   0.2833333   0.0000000), wk =   0.0033333
        k(   19) = (   0.0000000   0.3000000   0.0000000), wk =   0.0033333
        k(   20) = (   0.0000000   0.3166667   0.0000000), wk =   0.0033333
        k(   21) = (   0.0000000   0.3333333   0.0000000), wk =   0.0033333
        k(   22) = (   0.0000000   0.3500000   0.0000000), wk =   0.0033333
        k(   23) = (   0.0000000   0.3666667   0.0000000), wk =   0.0033333
        k(   24) = (   0.0000000   0.3833333   0.0000000), wk =   0.0033333
        k(   25) = (   0.0000000   0.4000000   0.0000000), wk =   0.0033333
        k(   26) = (   0.0000000   0.4166667   0.0000000), wk =   0.0033333
        k(   27) = (   0.0000000   0.4333333   0.0000000), wk =   0.0033333
        k(   28) = (   0.0000000   0.4500000   0.0000000), wk =   0.0033333
        k(   29) = (   0.0000000   0.4666667   0.0000000), wk =   0.0033333
        k(   30) = (   0.0000000   0.4833333   0.0000000), wk =   0.0033333
        k(   31) = (   0.0000000  -0.5000000   0.0000000), wk =   0.0016667
        k(   32) = (   0.0166667   0.0166667   0.0000000), wk =   0.0033333
        k(   33) = (   0.0166667   0.0333333   0.0000000), wk =   0.0066667
        k(   34) = (   0.0166667   0.0500000   0.0000000), wk =   0.0066667
        k(   35) = (   0.0166667   0.0666667   0.0000000), wk =   0.0066667
        k(   36) = (   0.0166667   0.0833333   0.0000000), wk =   0.0066667
        k(   37) = (   0.0166667   0.1000000   0.0000000), wk =   0.0066667
        k(   38) = (   0.0166667   0.1166667   0.0000000), wk =   0.0066667
        k(   39) = (   0.0166667   0.1333333   0.0000000), wk =   0.0066667
        k(   40) = (   0.0166667   0.1500000   0.0000000), wk =   0.0066667
        k(   41) = (   0.0166667   0.1666667   0.0000000), wk =   0.0066667
        k(   42) = (   0.0166667   0.1833333   0.0000000), wk =   0.0066667
        k(   43) = (   0.0166667   0.2000000   0.0000000), wk =   0.0066667
        k(   44) = (   0.0166667   0.2166667   0.0000000), wk =   0.0066667
        k(   45) = (   0.0166667   0.2333333   0.0000000), wk =   0.0066667
        k(   46) = (   0.0166667   0.2500000   0.0000000), wk =   0.0066667
        k(   47) = (   0.0166667   0.2666667   0.0000000), wk =   0.0066667
        k(   48) = (   0.0166667   0.2833333   0.0000000), wk =   0.0066667
        k(   49) = (   0.0166667   0.3000000   0.0000000), wk =   0.0066667
        k(   50) = (   0.0166667   0.3166667   0.0000000), wk =   0.0066667
        k(   51) = (   0.0166667   0.3333333   0.0000000), wk =   0.0066667
        k(   52) = (   0.0166667   0.3500000   0.0000000), wk =   0.0066667
        k(   53) = (   0.0166667   0.3666667   0.0000000), wk =   0.0066667
        k(   54) = (   0.0166667   0.3833333   0.0000000), wk =   0.0066667
        k(   55) = (   0.0166667   0.4000000   0.0000000), wk =   0.0066667
        k(   56) = (   0.0166667   0.4166667   0.0000000), wk =   0.0066667
        k(   57) = (   0.0166667   0.4333333   0.0000000), wk =   0.0066667
        k(   58) = (   0.0166667   0.4500000   0.0000000), wk =   0.0066667
        k(   59) = (   0.0166667   0.4666667   0.0000000), wk =   0.0066667
        k(   60) = (   0.0166667   0.4833333   0.0000000), wk =   0.0066667
        k(   61) = (   0.0333333   0.0333333   0.0000000), wk =   0.0033333
        k(   62) = (   0.0333333   0.0500000   0.0000000), wk =   0.0066667
        k(   63) = (   0.0333333   0.0666667   0.0000000), wk =   0.0066667
        k(   64) = (   0.0333333   0.0833333   0.0000000), wk =   0.0066667
        k(   65) = (   0.0333333   0.1000000   0.0000000), wk =   0.0066667
        k(   66) = (   0.0333333   0.1166667   0.0000000), wk =   0.0066667
        k(   67) = (   0.0333333   0.1333333   0.0000000), wk =   0.0066667
        k(   68) = (   0.0333333   0.1500000   0.0000000), wk =   0.0066667
        k(   69) = (   0.0333333   0.1666667   0.0000000), wk =   0.0066667
        k(   70) = (   0.0333333   0.1833333   0.0000000), wk =   0.0066667
        k(   71) = (   0.0333333   0.2000000   0.0000000), wk =   0.0066667
        k(   72) = (   0.0333333   0.2166667   0.0000000), wk =   0.0066667
        k(   73) = (   0.0333333   0.2333333   0.0000000), wk =   0.0066667
        k(   74) = (   0.0333333   0.2500000   0.0000000), wk =   0.0066667
        k(   75) = (   0.0333333   0.2666667   0.0000000), wk =   0.0066667
        k(   76) = (   0.0333333   0.2833333   0.0000000), wk =   0.0066667
        k(   77) = (   0.0333333   0.3000000   0.0000000), wk =   0.0066667
        k(   78) = (   0.0333333   0.3166667   0.0000000), wk =   0.0066667
        k(   79) = (   0.0333333   0.3333333   0.0000000), wk =   0.0066667
        k(   80) = (   0.0333333   0.3500000   0.0000000), wk =   0.0066667
        k(   81) = (   0.0333333   0.3666667   0.0000000), wk =   0.0066667
        k(   82) = (   0.0333333   0.3833333   0.0000000), wk =   0.0066667
        k(   83) = (   0.0333333   0.4000000   0.0000000), wk =   0.0066667
        k(   84) = (   0.0333333   0.4166667   0.0000000), wk =   0.0066667
        k(   85) = (   0.0333333   0.4333333   0.0000000), wk =   0.0066667
        k(   86) = (   0.0333333   0.4500000   0.0000000), wk =   0.0066667
        k(   87) = (   0.0333333   0.4666667   0.0000000), wk =   0.0066667
        k(   88) = (   0.0333333   0.4833333   0.0000000), wk =   0.0033333
        k(   89) = (   0.0500000   0.0500000   0.0000000), wk =   0.0033333
        k(   90) = (   0.0500000   0.0666667   0.0000000), wk =   0.0066667
        k(   91) = (   0.0500000   0.0833333   0.0000000), wk =   0.0066667
        k(   92) = (   0.0500000   0.1000000   0.0000000), wk =   0.0066667
        k(   93) = (   0.0500000   0.1166667   0.0000000), wk =   0.0066667
        k(   94) = (   0.0500000   0.1333333   0.0000000), wk =   0.0066667
        k(   95) = (   0.0500000   0.1500000   0.0000000), wk =   0.0066667
        k(   96) = (   0.0500000   0.1666667   0.0000000), wk =   0.0066667
        k(   97) = (   0.0500000   0.1833333   0.0000000), wk =   0.0066667
        k(   98) = (   0.0500000   0.2000000   0.0000000), wk =   0.0066667
        k(   99) = (   0.0500000   0.2166667   0.0000000), wk =   0.0066667
        k(  100) = (   0.0500000   0.2333333   0.0000000), wk =   0.0066667
        k(  101) = (   0.0500000   0.2500000   0.0000000), wk =   0.0066667
        k(  102) = (   0.0500000   0.2666667   0.0000000), wk =   0.0066667
        k(  103) = (   0.0500000   0.2833333   0.0000000), wk =   0.0066667
        k(  104) = (   0.0500000   0.3000000   0.0000000), wk =   0.0066667
        k(  105) = (   0.0500000   0.3166667   0.0000000), wk =   0.0066667
        k(  106) = (   0.0500000   0.3333333   0.0000000), wk =   0.0066667
        k(  107) = (   0.0500000   0.3500000   0.0000000), wk =   0.0066667
        k(  108) = (   0.0500000   0.3666667   0.0000000), wk =   0.0066667
        k(  109) = (   0.0500000   0.3833333   0.0000000), wk =   0.0066667
        k(  110) = (   0.0500000   0.4000000   0.0000000), wk =   0.0066667
        k(  111) = (   0.0500000   0.4166667   0.0000000), wk =   0.0066667
        k(  112) = (   0.0500000   0.4333333   0.0000000), wk =   0.0066667
        k(  113) = (   0.0500000   0.4500000   0.0000000), wk =   0.0066667
        k(  114) = (   0.0500000   0.4666667   0.0000000), wk =   0.0066667
        k(  115) = (   0.0666667   0.0666667   0.0000000), wk =   0.0033333
        k(  116) = (   0.0666667   0.0833333   0.0000000), wk =   0.0066667
        k(  117) = (   0.0666667   0.1000000   0.0000000), wk =   0.0066667
        k(  118) = (   0.0666667   0.1166667   0.0000000), wk =   0.0066667
        k(  119) = (   0.0666667   0.1333333   0.0000000), wk =   0.0066667
        k(  120) = (   0.0666667   0.1500000   0.0000000), wk =   0.0066667
        k(  121) = (   0.0666667   0.1666667   0.0000000), wk =   0.0066667
        k(  122) = (   0.0666667   0.1833333   0.0000000), wk =   0.0066667
        k(  123) = (   0.0666667   0.2000000   0.0000000), wk =   0.0066667
        k(  124) = (   0.0666667   0.2166667   0.0000000), wk =   0.0066667
        k(  125) = (   0.0666667   0.2333333   0.0000000), wk =   0.0066667
        k(  126) = (   0.0666667   0.2500000   0.0000000), wk =   0.0066667
        k(  127) = (   0.0666667   0.2666667   0.0000000), wk =   0.0066667
        k(  128) = (   0.0666667   0.2833333   0.0000000), wk =   0.0066667
        k(  129) = (   0.0666667   0.3000000   0.0000000), wk =   0.0066667
        k(  130) = (   0.0666667   0.3166667   0.0000000), wk =   0.0066667
        k(  131) = (   0.0666667   0.3333333   0.0000000), wk =   0.0066667
        k(  132) = (   0.0666667   0.3500000   0.0000000), wk =   0.0066667
        k(  133) = (   0.0666667   0.3666667   0.0000000), wk =   0.0066667
        k(  134) = (   0.0666667   0.3833333   0.0000000), wk =   0.0066667
        k(  135) = (   0.0666667   0.4000000   0.0000000), wk =   0.0066667
        k(  136) = (   0.0666667   0.4166667   0.0000000), wk =   0.0066667
        k(  137) = (   0.0666667   0.4333333   0.0000000), wk =   0.0066667
        k(  138) = (   0.0666667   0.4500000   0.0000000), wk =   0.0066667
        k(  139) = (   0.0666667   0.4666667   0.0000000), wk =   0.0033333
        k(  140) = (   0.0833333   0.0833333   0.0000000), wk =   0.0033333
        k(  141) = (   0.0833333   0.1000000   0.0000000), wk =   0.0066667
        k(  142) = (   0.0833333   0.1166667   0.0000000), wk =   0.0066667
        k(  143) = (   0.0833333   0.1333333   0.0000000), wk =   0.0066667
        k(  144) = (   0.0833333   0.1500000   0.0000000), wk =   0.0066667
        k(  145) = (   0.0833333   0.1666667   0.0000000), wk =   0.0066667
        k(  146) = (   0.0833333   0.1833333   0.0000000), wk =   0.0066667
        k(  147) = (   0.0833333   0.2000000   0.0000000), wk =   0.0066667
        k(  148) = (   0.0833333   0.2166667   0.0000000), wk =   0.0066667
        k(  149) = (   0.0833333   0.2333333   0.0000000), wk =   0.0066667
        k(  150) = (   0.0833333   0.2500000   0.0000000), wk =   0.0066667
        k(  151) = (   0.0833333   0.2666667   0.0000000), wk =   0.0066667
        k(  152) = (   0.0833333   0.2833333   0.0000000), wk =   0.0066667
        k(  153) = (   0.0833333   0.3000000   0.0000000), wk =   0.0066667
        k(  154) = (   0.0833333   0.3166667   0.0000000), wk =   0.0066667
        k(  155) = (   0.0833333   0.3333333   0.0000000), wk =   0.0066667
        k(  156) = (   0.0833333   0.3500000   0.0000000), wk =   0.0066667
        k(  157) = (   0.0833333   0.3666667   0.0000000), wk =   0.0066667
        k(  158) = (   0.0833333   0.3833333   0.0000000), wk =   0.0066667
        k(  159) = (   0.0833333   0.4000000   0.0000000), wk =   0.0066667
        k(  160) = (   0.0833333   0.4166667   0.0000000), wk =   0.0066667
        k(  161) = (   0.0833333   0.4333333   0.0000000), wk =   0.0066667
        k(  162) = (   0.0833333   0.4500000   0.0000000), wk =   0.0066667
        k(  163) = (   0.1000000   0.1000000   0.0000000), wk =   0.0033333
        k(  164) = (   0.1000000   0.1166667   0.0000000), wk =   0.0066667
        k(  165) = (   0.1000000   0.1333333   0.0000000), wk =   0.0066667
        k(  166) = (   0.1000000   0.1500000   0.0000000), wk =   0.0066667
        k(  167) = (   0.1000000   0.1666667   0.0000000), wk =   0.0066667
        k(  168) = (   0.1000000   0.1833333   0.0000000), wk =   0.0066667
        k(  169) = (   0.1000000   0.2000000   0.0000000), wk =   0.0066667
        k(  170) = (   0.1000000   0.2166667   0.0000000), wk =   0.0066667
        k(  171) = (   0.1000000   0.2333333   0.0000000), wk =   0.0066667
        k(  172) = (   0.1000000   0.2500000   0.0000000), wk =   0.0066667
        k(  173) = (   0.1000000   0.2666667   0.0000000), wk =   0.0066667
        k(  174) = (   0.1000000   0.2833333   0.0000000), wk =   0.0066667
        k(  175) = (   0.1000000   0.3000000   0.0000000), wk =   0.0066667
        k(  176) = (   0.1000000   0.3166667   0.0000000), wk =   0.0066667
        k(  177) = (   0.1000000   0.3333333   0.0000000), wk =   0.0066667
        k(  178) = (   0.1000000   0.3500000   0.0000000), wk =   0.0066667
        k(  179) = (   0.1000000   0.3666667   0.0000000), wk =   0.0066667
        k(  180) = (   0.1000000   0.3833333   0.0000000), wk =   0.0066667
        k(  181) = (   0.1000000   0.4000000   0.0000000), wk =   0.0066667
        k(  182) = (   0.1000000   0.4166667   0.0000000), wk =   0.0066667
        k(  183) = (   0.1000000   0.4333333   0.0000000), wk =   0.0066667
        k(  184) = (   0.1000000   0.4500000   0.0000000), wk =   0.0033333
        k(  185) = (   0.1166667   0.1166667   0.0000000), wk =   0.0033333
        k(  186) = (   0.1166667   0.1333333   0.0000000), wk =   0.0066667
        k(  187) = (   0.1166667   0.1500000   0.0000000), wk =   0.0066667
        k(  188) = (   0.1166667   0.1666667   0.0000000), wk =   0.0066667
        k(  189) = (   0.1166667   0.1833333   0.0000000), wk =   0.0066667
        k(  190) = (   0.1166667   0.2000000   0.0000000), wk =   0.0066667
        k(  191) = (   0.1166667   0.2166667   0.0000000), wk =   0.0066667
        k(  192) = (   0.1166667   0.2333333   0.0000000), wk =   0.0066667
        k(  193) = (   0.1166667   0.2500000   0.0000000), wk =   0.0066667
        k(  194) = (   0.1166667   0.2666667   0.0000000), wk =   0.0066667
        k(  195) = (   0.1166667   0.2833333   0.0000000), wk =   0.0066667
        k(  196) = (   0.1166667   0.3000000   0.0000000), wk =   0.0066667
        k(  197) = (   0.1166667   0.3166667   0.0000000), wk =   0.0066667
        k(  198) = (   0.1166667   0.3333333   0.0000000), wk =   0.0066667
        k(  199) = (   0.1166667   0.3500000   0.0000000), wk =   0.0066667
        k(  200) = (   0.1166667   0.3666667   0.0000000), wk =   0.0066667
        k(  201) = (   0.1166667   0.3833333   0.0000000), wk =   0.0066667
        k(  202) = (   0.1166667   0.4000000   0.0000000), wk =   0.0066667
        k(  203) = (   0.1166667   0.4166667   0.0000000), wk =   0.0066667
        k(  204) = (   0.1166667   0.4333333   0.0000000), wk =   0.0066667
        k(  205) = (   0.1333333   0.1333333   0.0000000), wk =   0.0033333
        k(  206) = (   0.1333333   0.1500000   0.0000000), wk =   0.0066667
        k(  207) = (   0.1333333   0.1666667   0.0000000), wk =   0.0066667
        k(  208) = (   0.1333333   0.1833333   0.0000000), wk =   0.0066667
        k(  209) = (   0.1333333   0.2000000   0.0000000), wk =   0.0066667
        k(  210) = (   0.1333333   0.2166667   0.0000000), wk =   0.0066667
        k(  211) = (   0.1333333   0.2333333   0.0000000), wk =   0.0066667
        k(  212) = (   0.1333333   0.2500000   0.0000000), wk =   0.0066667
        k(  213) = (   0.1333333   0.2666667   0.0000000), wk =   0.0066667
        k(  214) = (   0.1333333   0.2833333   0.0000000), wk =   0.0066667
        k(  215) = (   0.1333333   0.3000000   0.0000000), wk =   0.0066667
        k(  216) = (   0.1333333   0.3166667   0.0000000), wk =   0.0066667
        k(  217) = (   0.1333333   0.3333333   0.0000000), wk =   0.0066667
        k(  218) = (   0.1333333   0.3500000   0.0000000), wk =   0.0066667
        k(  219) = (   0.1333333   0.3666667   0.0000000), wk =   0.0066667
        k(  220) = (   0.1333333   0.3833333   0.0000000), wk =   0.0066667
        k(  221) = (   0.1333333   0.4000000   0.0000000), wk =   0.0066667
        k(  222) = (   0.1333333   0.4166667   0.0000000), wk =   0.0066667
        k(  223) = (   0.1333333   0.4333333   0.0000000), wk =   0.0033333
        k(  224) = (   0.1500000   0.1500000   0.0000000), wk =   0.0033333
        k(  225) = (   0.1500000   0.1666667   0.0000000), wk =   0.0066667
        k(  226) = (   0.1500000   0.1833333   0.0000000), wk =   0.0066667
        k(  227) = (   0.1500000   0.2000000   0.0000000), wk =   0.0066667
        k(  228) = (   0.1500000   0.2166667   0.0000000), wk =   0.0066667
        k(  229) = (   0.1500000   0.2333333   0.0000000), wk =   0.0066667
        k(  230) = (   0.1500000   0.2500000   0.0000000), wk =   0.0066667
        k(  231) = (   0.1500000   0.2666667   0.0000000), wk =   0.0066667
        k(  232) = (   0.1500000   0.2833333   0.0000000), wk =   0.0066667
        k(  233) = (   0.1500000   0.3000000   0.0000000), wk =   0.0066667
        k(  234) = (   0.1500000   0.3166667   0.0000000), wk =   0.0066667
        k(  235) = (   0.1500000   0.3333333   0.0000000), wk =   0.0066667
        k(  236) = (   0.1500000   0.3500000   0.0000000), wk =   0.0066667
        k(  237) = (   0.1500000   0.3666667   0.0000000), wk =   0.0066667
        k(  238) = (   0.1500000   0.3833333   0.0000000), wk =   0.0066667
        k(  239) = (   0.1500000   0.4000000   0.0000000), wk =   0.0066667
        k(  240) = (   0.1500000   0.4166667   0.0000000), wk =   0.0066667
        k(  241) = (   0.1666667   0.1666667   0.0000000), wk =   0.0033333
        k(  242) = (   0.1666667   0.1833333   0.0000000), wk =   0.0066667
        k(  243) = (   0.1666667   0.2000000   0.0000000), wk =   0.0066667
        k(  244) = (   0.1666667   0.2166667   0.0000000), wk =   0.0066667
        k(  245) = (   0.1666667   0.2333333   0.0000000), wk =   0.0066667
        k(  246) = (   0.1666667   0.2500000   0.0000000), wk =   0.0066667
        k(  247) = (   0.1666667   0.2666667   0.0000000), wk =   0.0066667
        k(  248) = (   0.1666667   0.2833333   0.0000000), wk =   0.0066667
        k(  249) = (   0.1666667   0.3000000   0.0000000), wk =   0.0066667
        k(  250) = (   0.1666667   0.3166667   0.0000000), wk =   0.0066667
        k(  251) = (   0.1666667   0.3333333   0.0000000), wk =   0.0066667
        k(  252) = (   0.1666667   0.3500000   0.0000000), wk =   0.0066667
        k(  253) = (   0.1666667   0.3666667   0.0000000), wk =   0.0066667
        k(  254) = (   0.1666667   0.3833333   0.0000000), wk =   0.0066667
        k(  255) = (   0.1666667   0.4000000   0.0000000), wk =   0.0066667
        k(  256) = (   0.1666667   0.4166667   0.0000000), wk =   0.0033333
        k(  257) = (   0.1833333   0.1833333   0.0000000), wk =   0.0033333
        k(  258) = (   0.1833333   0.2000000   0.0000000), wk =   0.0066667
        k(  259) = (   0.1833333   0.2166667   0.0000000), wk =   0.0066667
        k(  260) = (   0.1833333   0.2333333   0.0000000), wk =   0.0066667
        k(  261) = (   0.1833333   0.2500000   0.0000000), wk =   0.0066667
        k(  262) = (   0.1833333   0.2666667   0.0000000), wk =   0.0066667
        k(  263) = (   0.1833333   0.2833333   0.0000000), wk =   0.0066667
        k(  264) = (   0.1833333   0.3000000   0.0000000), wk =   0.0066667
        k(  265) = (   0.1833333   0.3166667   0.0000000), wk =   0.0066667
        k(  266) = (   0.1833333   0.3333333   0.0000000), wk =   0.0066667
        k(  267) = (   0.1833333   0.3500000   0.0000000), wk =   0.0066667
        k(  268) = (   0.1833333   0.3666667   0.0000000), wk =   0.0066667
        k(  269) = (   0.1833333   0.3833333   0.0000000), wk =   0.0066667
        k(  270) = (   0.1833333   0.4000000   0.0000000), wk =   0.0066667
        k(  271) = (   0.2000000   0.2000000   0.0000000), wk =   0.0033333
        k(  272) = (   0.2000000   0.2166667   0.0000000), wk =   0.0066667
        k(  273) = (   0.2000000   0.2333333   0.0000000), wk =   0.0066667
        k(  274) = (   0.2000000   0.2500000   0.0000000), wk =   0.0066667
        k(  275) = (   0.2000000   0.2666667   0.0000000), wk =   0.0066667
        k(  276) = (   0.2000000   0.2833333   0.0000000), wk =   0.0066667
        k(  277) = (   0.2000000   0.3000000   0.0000000), wk =   0.0066667
        k(  278) = (   0.2000000   0.3166667   0.0000000), wk =   0.0066667
        k(  279) = (   0.2000000   0.3333333   0.0000000), wk =   0.0066667
        k(  280) = (   0.2000000   0.3500000   0.0000000), wk =   0.0066667
        k(  281) = (   0.2000000   0.3666667   0.0000000), wk =   0.0066667
        k(  282) = (   0.2000000   0.3833333   0.0000000), wk =   0.0066667
        k(  283) = (   0.2000000   0.4000000   0.0000000), wk =   0.0033333
        k(  284) = (   0.2166667   0.2166667   0.0000000), wk =   0.0033333
        k(  285) = (   0.2166667   0.2333333   0.0000000), wk =   0.0066667
        k(  286) = (   0.2166667   0.2500000   0.0000000), wk =   0.0066667
        k(  287) = (   0.2166667   0.2666667   0.0000000), wk =   0.0066667
        k(  288) = (   0.2166667   0.2833333   0.0000000), wk =   0.0066667
        k(  289) = (   0.2166667   0.3000000   0.0000000), wk =   0.0066667
        k(  290) = (   0.2166667   0.3166667   0.0000000), wk =   0.0066667
        k(  291) = (   0.2166667   0.3333333   0.0000000), wk =   0.0066667
        k(  292) = (   0.2166667   0.3500000   0.0000000), wk =   0.0066667
        k(  293) = (   0.2166667   0.3666667   0.0000000), wk =   0.0066667
        k(  294) = (   0.2166667   0.3833333   0.0000000), wk =   0.0066667
        k(  295) = (   0.2333333   0.2333333   0.0000000), wk =   0.0033333
        k(  296) = (   0.2333333   0.2500000   0.0000000), wk =   0.0066667
        k(  297) = (   0.2333333   0.2666667   0.0000000), wk =   0.0066667
        k(  298) = (   0.2333333   0.2833333   0.0000000), wk =   0.0066667
        k(  299) = (   0.2333333   0.3000000   0.0000000), wk =   0.0066667
        k(  300) = (   0.2333333   0.3166667   0.0000000), wk =   0.0066667
        k(  301) = (   0.2333333   0.3333333   0.0000000), wk =   0.0066667
        k(  302) = (   0.2333333   0.3500000   0.0000000), wk =   0.0066667
        k(  303) = (   0.2333333   0.3666667   0.0000000), wk =   0.0066667
        k(  304) = (   0.2333333   0.3833333   0.0000000), wk =   0.0033333
        k(  305) = (   0.2500000   0.2500000   0.0000000), wk =   0.0033333
        k(  306) = (   0.2500000   0.2666667   0.0000000), wk =   0.0066667
        k(  307) = (   0.2500000   0.2833333   0.0000000), wk =   0.0066667
        k(  308) = (   0.2500000   0.3000000   0.0000000), wk =   0.0066667
        k(  309) = (   0.2500000   0.3166667   0.0000000), wk =   0.0066667
        k(  310) = (   0.2500000   0.3333333   0.0000000), wk =   0.0066667
        k(  311) = (   0.2500000   0.3500000   0.0000000), wk =   0.0066667
        k(  312) = (   0.2500000   0.3666667   0.0000000), wk =   0.0066667
        k(  313) = (   0.2666667   0.2666667   0.0000000), wk =   0.0033333
        k(  314) = (   0.2666667   0.2833333   0.0000000), wk =   0.0066667
        k(  315) = (   0.2666667   0.3000000   0.0000000), wk =   0.0066667
        k(  316) = (   0.2666667   0.3166667   0.0000000), wk =   0.0066667
        k(  317) = (   0.2666667   0.3333333   0.0000000), wk =   0.0066667
        k(  318) = (   0.2666667   0.3500000   0.0000000), wk =   0.0066667
        k(  319) = (   0.2666667   0.3666667   0.0000000), wk =   0.0033333
        k(  320) = (   0.2833333   0.2833333   0.0000000), wk =   0.0033333
        k(  321) = (   0.2833333   0.3000000   0.0000000), wk =   0.0066667
        k(  322) = (   0.2833333   0.3166667   0.0000000), wk =   0.0066667
        k(  323) = (   0.2833333   0.3333333   0.0000000), wk =   0.0066667
        k(  324) = (   0.2833333   0.3500000   0.0000000), wk =   0.0066667
        k(  325) = (   0.3000000   0.3000000   0.0000000), wk =   0.0033333
        k(  326) = (   0.3000000   0.3166667   0.0000000), wk =   0.0066667
        k(  327) = (   0.3000000   0.3333333   0.0000000), wk =   0.0066667
        k(  328) = (   0.3000000   0.3500000   0.0000000), wk =   0.0033333
        k(  329) = (   0.3166667   0.3166667   0.0000000), wk =   0.0033333
        k(  330) = (   0.3166667   0.3333333   0.0000000), wk =   0.0066667
        k(  331) = (   0.3333333   0.3333333   0.0000000), wk =   0.0011111

     Dense  grid:    44285 G-vectors     FFT dimensions: (  24,  24, 192)

     Dynamical RAM for                 wfc:       0.17 MB

     Dynamical RAM for     wfc (w. buffer):       0.17 MB

     Dynamical RAM for           str. fact:       0.08 MB

     Dynamical RAM for           local pot:       0.00 MB

     Dynamical RAM for          nlocal pot:       0.34 MB

     Dynamical RAM for                qrad:       0.36 MB

     Dynamical RAM for          rho,v,vnew:       0.57 MB

     Dynamical RAM for           G-vectors:       0.36 MB

     Dynamical RAM for          h,s,v(r/c):       0.05 MB

     Dynamical RAM for          <psi|beta>:       0.01 MB

     Dynamical RAM for                 psi:       0.34 MB

     Dynamical RAM for                hpsi:       0.34 MB

     Dynamical RAM for      wfcinit/wfcrot:       0.34 MB

     Estimated static dynamical RAM per process >       2.57 MB

     Estimated max dynamical RAM per process >       3.30 MB

     Estimated total dynamical RAM >      26.39 MB

     The potential is recalculated from file :
     ./tmp/C2L_AA_PBE_vdW.save/charge-density



     %%%%%%%%%%%%%%%%%%%%%%%%%%%%%%%%%%%%%%%%%%%%%%%%%%%%%%%%%%%%%%%%%%%%%%%%
     %                                                                      %
     % You are using vdW-DF, which was implemented by the Thonhauser group. %
     % Please cite the following two papers that made this development      %
     % possible and the two reviews that describe the various versions:     %
     %                                                                      %
     %   T. Thonhauser et al., PRL 115, 136402 (2015).                      %
     %   T. Thonhauser et al., PRB 76, 125112 (2007).                       %
     %   K. Berland et al., Rep. Prog. Phys. 78, 066501 (2015).             %
     %   D.C. Langreth et al., J. Phys.: Condens. Matter 21, 084203 (2009). %
     %                                                                      %
     % If you are calculating stress with vdW-DF, please also cite:         %
     %                                                                      %
     %   R. Sabatini et al., J. Phys.: Condens. Matter 24, 424209 (2012).   %
     %                                                                      %
     %%%%%%%%%%%%%%%%%%%%%%%%%%%%%%%%%%%%%%%%%%%%%%%%%%%%%%%%%%%%%%%%%%%%%%%%

     %%%%%%%%%%%%%%%%%%%%%%%%%%%%%%%%%%%%%%%%%%%%%%%%%%%%%%%%%%%%%%%%%%%%%%%%
     %                                                                      %
     %  vdW-DF NEWS:                                                        %
     %                                                                      %
     %  * vdW-DF3 is now available. DOI: 10.1021/acs.jctc.0c00471           %
     %    use with input_dft = 'vdW-DF3-opt1' or 'vdW-DF3-opt2'             %
     %                                                                      %
     %  * Unscreened and range-separated hybrid vdW-DF-cx functionals       %
     %    DOI: 10.1063/1.4986522 and 10.1088/1361-648X/ac2ad2               %
     %    use with input_dft = 'vdW-DF-cx0'    and 'vdW-DF-ahcx'            %
     %  * Unscreened and range-separated hybrid vdW-DF2-b86r functionals    %
     %    DOI: 10.1063/1.4986522 and DOI: 10.1103/PhysRevX.12.041003        %
     %    use with input_dft = 'vdW-DF2-br0' and 'vdW-DF2-ahbr'             %
     %                                                                      %
     %%%%%%%%%%%%%%%%%%%%%%%%%%%%%%%%%%%%%%%%%%%%%%%%%%%%%%%%%%%%%%%%%%%%%%%%


     Carrying out vdW-DF run using the following parameters:
     Nqs    =  20  Npoints =  1024  r_max =  100.000
     q_mesh =  0.00001000  0.04494208  0.09755937  0.15916263
               0.23128650  0.31572767  0.41458969  0.53033537
               0.66584808  0.82450364  1.01025438  1.22772762
               1.48234092  1.78043706  2.12944203  2.53805004
               3.01644009  3.57652955  4.23227104  5.00000000


     -----------------------------------------------
     Non-local corr. energy    =       0.19650400 Ry
     -----------------------------------------------

     Starting wfcs are   16 randomized atomic wfcs

     Band Structure Calculation
     Davidson diagonalization with overlap

     Computing kpt #:     1  of   331
     total cpu time spent up to now is       10.5 secs

     Computing kpt #:     2  of   331
     total cpu time spent up to now is       10.7 secs

     Computing kpt #:     3  of   331
     total cpu time spent up to now is       10.9 secs

     Computing kpt #:     4  of   331
     total cpu time spent up to now is       11.1 secs

     Computing kpt #:     5  of   331
     total cpu time spent up to now is       11.3 secs

     Computing kpt #:     6  of   331
     total cpu time spent up to now is       11.4 secs

     Computing kpt #:     7  of   331
     total cpu time spent up to now is       11.6 secs

     Computing kpt #:     8  of   331
     total cpu time spent up to now is       11.7 secs

     Computing kpt #:     9  of   331
     total cpu time spent up to now is       11.8 secs

     Computing kpt #:    10  of   331
     total cpu time spent up to now is       12.0 secs

     Computing kpt #:    11  of   331
     total cpu time spent up to now is       12.1 secs

     Computing kpt #:    12  of   331
     total cpu time spent up to now is       12.3 secs

     Computing kpt #:    13  of   331
     total cpu time spent up to now is       12.4 secs

     Computing kpt #:    14  of   331
     total cpu time spent up to now is       12.6 secs

     Computing kpt #:    15  of   331
     total cpu time spent up to now is       12.8 secs

     Computing kpt #:    16  of   331
     total cpu time spent up to now is       13.0 secs

     Computing kpt #:    17  of   331
     total cpu time spent up to now is       13.2 secs

     Computing kpt #:    18  of   331
     total cpu time spent up to now is       13.3 secs

     Computing kpt #:    19  of   331
     total cpu time spent up to now is       13.4 secs

     Computing kpt #:    20  of   331
     total cpu time spent up to now is       13.6 secs

     Computing kpt #:    21  of   331
     total cpu time spent up to now is       13.7 secs

     Computing kpt #:    22  of   331
     total cpu time spent up to now is       13.8 secs

     Computing kpt #:    23  of   331
     total cpu time spent up to now is       14.0 secs

     Computing kpt #:    24  of   331
     total cpu time spent up to now is       14.1 secs

     Computing kpt #:    25  of   331
     total cpu time spent up to now is       14.3 secs

     Computing kpt #:    26  of   331
     total cpu time spent up to now is       14.5 secs

     Computing kpt #:    27  of   331
     total cpu time spent up to now is       14.6 secs

     Computing kpt #:    28  of   331
     total cpu time spent up to now is       14.7 secs

     Computing kpt #:    29  of   331
     total cpu time spent up to now is       14.9 secs

     Computing kpt #:    30  of   331
     total cpu time spent up to now is       15.0 secs

     Computing kpt #:    31  of   331
     total cpu time spent up to now is       15.2 secs

     Computing kpt #:    32  of   331
     total cpu time spent up to now is       15.3 secs

     Computing kpt #:    33  of   331
     total cpu time spent up to now is       15.5 secs

     Computing kpt #:    34  of   331
     total cpu time spent up to now is       15.7 secs

     Computing kpt #:    35  of   331
     total cpu time spent up to now is       15.9 secs

     Computing kpt #:    36  of   331
     total cpu time spent up to now is       16.1 secs

     Computing kpt #:    37  of   331
     total cpu time spent up to now is       16.3 secs

     Computing kpt #:    38  of   331
     total cpu time spent up to now is       16.5 secs

     Computing kpt #:    39  of   331
     total cpu time spent up to now is       16.6 secs

     Computing kpt #:    40  of   331
     total cpu time spent up to now is       16.8 secs

     Computing kpt #:    41  of   331
     total cpu time spent up to now is       17.0 secs

     Computing kpt #:    42  of   331
     total cpu time spent up to now is       17.1 secs

     Computing kpt #:    43  of   331
     total cpu time spent up to now is       17.3 secs

     Computing kpt #:    44  of   331
     total cpu time spent up to now is       17.4 secs

     Computing kpt #:    45  of   331
     total cpu time spent up to now is       17.6 secs

     Computing kpt #:    46  of   331
     total cpu time spent up to now is       17.8 secs

     Computing kpt #:    47  of   331
     total cpu time spent up to now is       18.0 secs

     Computing kpt #:    48  of   331
     total cpu time spent up to now is       18.1 secs

     Computing kpt #:    49  of   331
     total cpu time spent up to now is       18.3 secs

     Computing kpt #:    50  of   331
     total cpu time spent up to now is       18.5 secs

     Computing kpt #:    51  of   331
     total cpu time spent up to now is       18.7 secs

     Computing kpt #:    52  of   331
     total cpu time spent up to now is       18.8 secs

     Computing kpt #:    53  of   331
     total cpu time spent up to now is       19.0 secs

     Computing kpt #:    54  of   331
     total cpu time spent up to now is       19.1 secs

     Computing kpt #:    55  of   331
     total cpu time spent up to now is       19.3 secs

     Computing kpt #:    56  of   331
     total cpu time spent up to now is       19.4 secs

     Computing kpt #:    57  of   331
     total cpu time spent up to now is       19.6 secs

     Computing kpt #:    58  of   331
     total cpu time spent up to now is       19.8 secs

     Computing kpt #:    59  of   331
     total cpu time spent up to now is       19.9 secs

     Computing kpt #:    60  of   331
     total cpu time spent up to now is       20.1 secs

     Computing kpt #:    61  of   331
     total cpu time spent up to now is       20.2 secs

     Computing kpt #:    62  of   331
     total cpu time spent up to now is       20.4 secs

     Computing kpt #:    63  of   331
     total cpu time spent up to now is       20.5 secs

     Computing kpt #:    64  of   331
     total cpu time spent up to now is       20.7 secs

     Computing kpt #:    65  of   331
     total cpu time spent up to now is       20.8 secs

     Computing kpt #:    66  of   331
     total cpu time spent up to now is       21.0 secs

     Computing kpt #:    67  of   331
     total cpu time spent up to now is       21.1 secs

     Computing kpt #:    68  of   331
     total cpu time spent up to now is       21.3 secs

     Computing kpt #:    69  of   331
     total cpu time spent up to now is       21.5 secs

     Computing kpt #:    70  of   331
     total cpu time spent up to now is       21.6 secs

     Computing kpt #:    71  of   331
     total cpu time spent up to now is       21.7 secs

     Computing kpt #:    72  of   331
     total cpu time spent up to now is       21.9 secs

     Computing kpt #:    73  of   331
     total cpu time spent up to now is       22.1 secs

     Computing kpt #:    74  of   331
     total cpu time spent up to now is       22.4 secs

     Computing kpt #:    75  of   331
     total cpu time spent up to now is       22.5 secs

     Computing kpt #:    76  of   331
     total cpu time spent up to now is       22.7 secs

     Computing kpt #:    77  of   331
     total cpu time spent up to now is       22.9 secs

     Computing kpt #:    78  of   331
     total cpu time spent up to now is       23.1 secs

     Computing kpt #:    79  of   331
     total cpu time spent up to now is       23.2 secs

     Computing kpt #:    80  of   331
     total cpu time spent up to now is       23.4 secs

     Computing kpt #:    81  of   331
     total cpu time spent up to now is       23.5 secs

     Computing kpt #:    82  of   331
     total cpu time spent up to now is       23.7 secs

     Computing kpt #:    83  of   331
     total cpu time spent up to now is       23.9 secs

     Computing kpt #:    84  of   331
     total cpu time spent up to now is       24.0 secs

     Computing kpt #:    85  of   331
     total cpu time spent up to now is       24.2 secs

     Computing kpt #:    86  of   331
     total cpu time spent up to now is       24.3 secs

     Computing kpt #:    87  of   331
     total cpu time spent up to now is       24.5 secs

     Computing kpt #:    88  of   331
     total cpu time spent up to now is       24.6 secs

     Computing kpt #:    89  of   331
     total cpu time spent up to now is       24.8 secs

     Computing kpt #:    90  of   331
     total cpu time spent up to now is       24.9 secs

     Computing kpt #:    91  of   331
     total cpu time spent up to now is       25.1 secs

     Computing kpt #:    92  of   331
     total cpu time spent up to now is       25.3 secs

     Computing kpt #:    93  of   331
     total cpu time spent up to now is       25.4 secs

     Computing kpt #:    94  of   331
     total cpu time spent up to now is       25.6 secs

     Computing kpt #:    95  of   331
     total cpu time spent up to now is       25.8 secs

     Computing kpt #:    96  of   331
     total cpu time spent up to now is       26.0 secs

     Computing kpt #:    97  of   331
     total cpu time spent up to now is       26.2 secs

     Computing kpt #:    98  of   331
     total cpu time spent up to now is       26.3 secs

     Computing kpt #:    99  of   331
     total cpu time spent up to now is       26.5 secs

     Computing kpt #:   100  of   331
     total cpu time spent up to now is       26.7 secs

     Computing kpt #:   101  of   331
     total cpu time spent up to now is       26.8 secs

     Computing kpt #:   102  of   331
     total cpu time spent up to now is       27.0 secs

     Computing kpt #:   103  of   331
     total cpu time spent up to now is       27.2 secs

     Computing kpt #:   104  of   331
     total cpu time spent up to now is       27.4 secs

     Computing kpt #:   105  of   331
     total cpu time spent up to now is       27.5 secs

     Computing kpt #:   106  of   331
     total cpu time spent up to now is       27.6 secs

     Computing kpt #:   107  of   331
     total cpu time spent up to now is       27.8 secs

     Computing kpt #:   108  of   331
     total cpu time spent up to now is       27.9 secs

     Computing kpt #:   109  of   331
     total cpu time spent up to now is       28.0 secs

     Computing kpt #:   110  of   331
     total cpu time spent up to now is       28.1 secs

     Computing kpt #:   111  of   331
     total cpu time spent up to now is       28.3 secs

     Computing kpt #:   112  of   331
     total cpu time spent up to now is       28.5 secs

     Computing kpt #:   113  of   331
     total cpu time spent up to now is       28.6 secs

     Computing kpt #:   114  of   331
     total cpu time spent up to now is       28.7 secs

     Computing kpt #:   115  of   331
     total cpu time spent up to now is       28.9 secs

     Computing kpt #:   116  of   331
     total cpu time spent up to now is       29.0 secs

     Computing kpt #:   117  of   331
     total cpu time spent up to now is       29.2 secs

     Computing kpt #:   118  of   331
     total cpu time spent up to now is       29.3 secs

     Computing kpt #:   119  of   331
     total cpu time spent up to now is       29.5 secs

     Computing kpt #:   120  of   331
     total cpu time spent up to now is       29.6 secs

     Computing kpt #:   121  of   331
     total cpu time spent up to now is       29.8 secs

     Computing kpt #:   122  of   331
     total cpu time spent up to now is       29.9 secs

     Computing kpt #:   123  of   331
     total cpu time spent up to now is       30.1 secs

     Computing kpt #:   124  of   331
     total cpu time spent up to now is       30.2 secs

     Computing kpt #:   125  of   331
     total cpu time spent up to now is       30.4 secs

     Computing kpt #:   126  of   331
     total cpu time spent up to now is       30.6 secs

     Computing kpt #:   127  of   331
     total cpu time spent up to now is       30.8 secs

     Computing kpt #:   128  of   331
     total cpu time spent up to now is       30.9 secs

     Computing kpt #:   129  of   331
     total cpu time spent up to now is       31.0 secs

     Computing kpt #:   130  of   331
     total cpu time spent up to now is       31.2 secs

     Computing kpt #:   131  of   331
     total cpu time spent up to now is       31.3 secs

     Computing kpt #:   132  of   331
     total cpu time spent up to now is       31.4 secs

     Computing kpt #:   133  of   331
     total cpu time spent up to now is       31.6 secs

     Computing kpt #:   134  of   331
     total cpu time spent up to now is       31.7 secs

     Computing kpt #:   135  of   331
     total cpu time spent up to now is       31.8 secs

     Computing kpt #:   136  of   331
     total cpu time spent up to now is       32.0 secs

     Computing kpt #:   137  of   331
     total cpu time spent up to now is       32.1 secs

     Computing kpt #:   138  of   331
     total cpu time spent up to now is       32.2 secs

     Computing kpt #:   139  of   331
     total cpu time spent up to now is       32.3 secs

     Computing kpt #:   140  of   331
     total cpu time spent up to now is       32.5 secs

     Computing kpt #:   141  of   331
     total cpu time spent up to now is       32.6 secs

     Computing kpt #:   142  of   331
     total cpu time spent up to now is       32.8 secs

     Computing kpt #:   143  of   331
     total cpu time spent up to now is       33.0 secs

     Computing kpt #:   144  of   331
     total cpu time spent up to now is       33.2 secs

     Computing kpt #:   145  of   331
     total cpu time spent up to now is       33.4 secs

     Computing kpt #:   146  of   331
     total cpu time spent up to now is       33.6 secs

     Computing kpt #:   147  of   331
     total cpu time spent up to now is       33.7 secs

     Computing kpt #:   148  of   331
[...]
     2.3034   2.8015   8.0165   8.4588   9.5311   9.9748  10.7463  10.8263

     occupation numbers 
     1.0000   1.0000   1.0000   1.0000   1.0000   1.0000   1.0000   1.0000
     0.0000   0.0000   0.0000   0.0000   0.0000   0.0000   0.0000   0.0000

          k = 0.2167 0.4523 0.0000 (  5503 PWs)   bands (ev):

   -15.8123 -15.7254 -11.3352 -11.2781  -9.3315  -9.2904  -3.6220  -2.9524
     1.9459   2.4581   8.4037   8.8335   9.7048  10.2796  10.7353  11.0306

     occupation numbers 
     1.0000   1.0000   1.0000   1.0000   1.0000   1.0000   1.0000   1.0000
     0.0000   0.0000   0.0000   0.0000   0.0000   0.0000   0.0000   0.0000

          k = 0.2167 0.4715 0.0000 (  5503 PWs)   bands (ev):

   -15.5271 -15.4420 -11.6741 -11.6154  -9.4521  -9.4105  -3.3261  -2.6708
     1.5962   2.1243   8.8036   9.2159   9.7805  10.5984  10.7780  10.9934

     occupation numbers 
     1.0000   1.0000   1.0000   1.0000   1.0000   1.0000   1.0000   1.0000
     0.0000   0.0000   0.0000   0.0000   0.0000   0.0000   0.0000   0.0000

          k = 0.2167 0.4907 0.0000 (  5509 PWs)   bands (ev):

   -15.2359 -15.1526 -12.0156 -11.9548  -9.5491  -9.5071  -3.0361  -2.3966
     1.2609   1.8053   9.2142   9.6017   9.8029  10.6568  10.9581  11.1212

     occupation numbers 
     1.0000   1.0000   1.0000   1.0000   1.0000   1.0000   1.0000   1.0000
     0.0000   0.0000   0.0000   0.0000   0.0000   0.0000   0.0000   0.0000

          k = 0.2167 0.5100 0.0000 (  5506 PWs)   bands (ev):

   -14.9421 -14.8604 -12.3528 -12.2900  -9.6244  -9.5822  -2.7618  -2.1383
     0.9495   1.5108   9.6290   9.8032   9.9837  10.6484  10.9292  11.5567

     occupation numbers 
     1.0000   1.0000   1.0000   1.0000   1.0000   1.0000   1.0000   1.0000
     0.0000   0.0000   0.0000   0.0000   0.0000   0.0000   0.0000   0.0000

          k = 0.2167 0.5292 0.0000 (  5504 PWs)   bands (ev):

   -14.6530 -14.5730 -12.6759 -12.6117  -9.6797  -9.6373  -2.5176  -1.9099
     0.6773   1.2556   9.7781  10.0614  10.3473  10.6414  10.9100  11.9789

     occupation numbers 
     1.0000   1.0000   1.0000   1.0000   1.0000   1.0000   1.0000   1.0000
     0.0000   0.0000   0.0000   0.0000   0.0000   0.0000   0.0000   0.0000

          k = 0.2167 0.5485 0.0000 (  5510 PWs)   bands (ev):

   -14.3873 -14.3086 -12.9652 -12.8997  -9.7162  -9.6734  -2.3269  -1.7329
     0.4672   1.0601   9.7664  10.4463  10.6550  10.6703  10.9136  11.7880

     occupation numbers 
     1.0000   1.0000   1.0000   1.0000   1.0000   1.0000   1.0000   1.0000
     0.0000   0.0000   0.0000   0.0000   0.0000   0.0000   0.0000   0.0000

          k = 0.2167 0.5677 0.0000 (  5512 PWs)   bands (ev):

   -14.2002 -14.1220 -13.1644 -13.0981  -9.7344  -9.6915  -2.2192  -1.6340
     0.3499   0.9516   9.7586  10.5737  10.7986  10.9334  10.9846  11.4377

     occupation numbers 
     1.0000   1.0000   1.0000   1.0000   1.0000   1.0000   1.0000   1.0000
     0.0000   0.0000   0.0000   0.0000   0.0000   0.0000   0.0000   0.0000

          k = 0.2333 0.4041 0.0000 (  5506 PWs)   bands (ev):

   -16.3639 -16.2735 -10.6317 -10.5790  -9.0616  -9.0215  -4.2163  -3.5200
     2.6823   3.1635   7.6347   8.0846   9.2375   9.7274  10.4432  10.9511

     occupation numbers 
     1.0000   1.0000   1.0000   1.0000   1.0000   1.0000   1.0000   1.0000
     0.0000   0.0000   0.0000   0.0000   0.0000   0.0000   0.0000   0.0000

          k = 0.2333 0.4234 0.0000 (  5499 PWs)   bands (ev):

   -16.1016 -16.0128 -10.9010 -10.8465  -9.2888  -9.2471  -3.9274  -3.2434
     2.3364   2.8269   7.9995   8.4385   9.5024   9.9493  10.8076  11.0809

     occupation numbers 
     1.0000   1.0000   1.0000   1.0000   1.0000   1.0000   1.0000   1.0000
     0.0000   0.0000   0.0000   0.0000   0.0000   0.0000   0.0000   0.0000

          k = 0.2333 0.4426 0.0000 (  5495 PWs)   bands (ev):

   -15.8300 -15.7429 -11.1902 -11.1338  -9.4814  -9.4389  -3.6333  -2.9621
     1.9906   2.4925   8.3782   8.8025   9.6492  10.2532  11.1260  11.1794

     occupation numbers 
     1.0000   1.0000   1.0000   1.0000   1.0000   1.0000   1.0000   1.0000
     0.0000   0.0000   0.0000   0.0000   0.0000   0.0000   0.0000   0.0000

          k = 0.2333 0.4619 0.0000 (  5499 PWs)   bands (ev):

   -15.5501 -15.4649 -11.4961 -11.4381  -9.6403  -9.5973  -3.3367  -2.6793
     1.6490   2.1632   8.7699   9.1733   9.6980  10.6233  11.1324  11.4600

     occupation numbers 
     1.0000   1.0000   1.0000   1.0000   1.0000   1.0000   1.0000   1.0000
     0.0000   0.0000   0.0000   0.0000   0.0000   0.0000   0.0000   0.0000

          k = 0.2333 0.4811 0.0000 (  5502 PWs)   bands (ev):

   -15.2632 -15.1798 -11.8134 -11.7538  -9.7681  -9.7246  -3.0422  -2.3992
     1.3156   1.8433   9.1726   9.5465   9.6958  10.9814  11.1702  11.4258

     occupation numbers 
     1.0000   1.0000   1.0000   1.0000   1.0000   1.0000   1.0000   1.0000
     0.0000   0.0000   0.0000   0.0000   0.0000   0.0000   0.0000   0.0000

          k = 0.2333 0.5004 0.0000 (  5498 PWs)   bands (ev):

   -14.9719 -14.8901 -12.1358 -12.0741  -9.8680  -9.8241  -2.7560  -2.1285
     0.9975   1.5397   9.5764   9.6784   9.9142  11.0540  11.3922  11.5115

     occupation numbers 
     1.0000   1.0000   1.0000   1.0000   1.0000   1.0000   1.0000   1.0000
     0.0000   0.0000   0.0000   0.0000   0.0000   0.0000   0.0000   0.0000

          k = 0.2333 0.5196 0.0000 (  5504 PWs)   bands (ev):

   -14.6809 -14.6009 -12.4545 -12.3911  -9.9431  -9.8989  -2.4902  -1.8780
     0.7061   1.2633   9.6317  10.0081  10.2628  11.0430  11.3681  11.9429

     occupation numbers 
     1.0000   1.0000   1.0000   1.0000   1.0000   1.0000   1.0000   1.0000
     0.0000   0.0000   0.0000   0.0000   0.0000   0.0000   0.0000   0.0000

          k = 0.2333 0.5389 0.0000 (  5502 PWs)   bands (ev):

   -14.4013 -14.3228 -12.7555 -12.6908  -9.9951  -9.9508  -2.2630  -1.6653
     0.4604   1.0323   9.6034  10.4220  10.5675  11.0320  11.3604  12.0228

     occupation numbers 
     1.0000   1.0000   1.0000   1.0000   1.0000   1.0000   1.0000   1.0000
     0.0000   0.0000   0.0000   0.0000   0.0000   0.0000   0.0000   0.0000

          k = 0.2333 0.5581 0.0000 (  5504 PWs)   bands (ev):

   -14.1645 -14.0871 -13.0059 -12.9401 -10.0257  -9.9814  -2.1027  -1.5169
     0.2893   0.8727   9.5838  10.7842  10.8023  11.0427  11.3744  11.7308

     occupation numbers 
     1.0000   1.0000   1.0000   1.0000   1.0000   1.0000   1.0000   1.0000
     0.0000   0.0000   0.0000   0.0000   0.0000   0.0000   0.0000   0.0000

          k = 0.2333 0.5774 0.0000 (  5496 PWs)   bands (ev):

   -14.0578 -13.9805 -13.1174 -13.0513 -10.0358  -9.9915  -2.0435  -1.4624
     0.2266   0.8148   9.5769  10.8626  10.9503  11.1508  11.3896  11.5014

     occupation numbers 
     1.0000   1.0000   1.0000   1.0000   1.0000   1.0000   1.0000   1.0000
     0.0000   0.0000   0.0000   0.0000   0.0000   0.0000   0.0000   0.0000

          k = 0.2500 0.4330 0.0000 (  5486 PWs)   bands (ev):

   -15.8359 -15.7490 -11.1352 -11.0793  -9.5378  -9.4948  -3.6372  -2.9655
     2.0065   2.5045   8.3697   8.7920   9.6302  10.2434  11.1691  11.3427

     occupation numbers 
     1.0000   1.0000   1.0000   1.0000   1.0000   1.0000   1.0000   1.0000
     0.0000   0.0000   0.0000   0.0000   0.0000   0.0000   0.0000   0.0000

          k = 0.2500 0.4523 0.0000 (  5487 PWs)   bands (ev):

   -15.5616 -15.4762 -11.3907 -11.3330  -9.7508  -9.7067  -3.3422  -2.6836
     1.6769   2.1835   8.7529   9.1519   9.6552  10.6091  11.4778  11.5225

     occupation numbers 
     1.0000   1.0000   1.0000   1.0000   1.0000   1.0000   1.0000   1.0000
     0.0000   0.0000   0.0000   0.0000   0.0000   0.0000   0.0000   0.0000

          k = 0.2500 0.4715 0.0000 (  5487 PWs)   bands (ev):

   -15.2796 -15.1962 -11.6659 -11.6069  -9.9258  -9.8812  -3.0459  -2.4009
     1.3507   1.8675   9.1473   9.5129   9.6284  11.0071  11.5056  11.7750

     occupation numbers 
     1.0000   1.0000   1.0000   1.0000   1.0000   1.0000   1.0000   1.0000
     0.0000   0.0000   0.0000   0.0000   0.0000   0.0000   0.0000   0.0000

          k = 0.2500 0.4907 0.0000 (  5488 PWs)   bands (ev):

   -14.9921 -14.9103 -11.9570 -11.8961 -10.0647 -10.0194  -2.7531  -2.1225
     1.0328   1.5609   9.5314   9.5989   9.8669  11.3670  11.5543  11.7875

     occupation numbers 
     1.0000   1.0000   1.0000   1.0000   1.0000   1.0000   1.0000   1.0000
     0.0000   0.0000   0.0000   0.0000   0.0000   0.0000   0.0000   0.0000

          k = 0.2500 0.5100 0.0000 (  5481 PWs)   bands (ev):

   -14.7021 -14.6222 -12.2560 -12.1936 -10.1700 -10.1246  -2.4716  -1.8557
     0.7313   1.2723   9.5184   9.9680  10.2003  11.4220  11.7677  11.9082

     occupation numbers 
     1.0000   1.0000   1.0000   1.0000   1.0000   1.0000   1.0000   1.0000
     0.0000   0.0000   0.0000   0.0000   0.0000   0.0000   0.0000   0.0000

          k = 0.2500 0.5292 0.0000 (  5491 PWs)   bands (ev):

   -14.4167 -14.3384 -12.5525 -12.4884 -10.2461 -10.2002  -2.2157  -1.6143
     0.4598   1.0137   9.4704  10.3787  10.4911  11.4045  11.7654  12.1647

     occupation numbers 
     1.0000   1.0000   1.0000   1.0000   1.0000   1.0000   1.0000   1.0000
     0.0000   0.0000   0.0000   0.0000   0.0000   0.0000   0.0000   0.0000

          k = 0.2500 0.5485 0.0000 (  5492 PWs)   bands (ev):

   -14.1532 -14.0762 -12.8250 -12.7596 -10.2952 -10.2490  -2.0086  -1.4204
     0.2423   0.8087   9.4347  10.7087  10.7799  11.3833  11.7896  11.9893

     occupation numbers 
     1.0000   1.0000   1.0000   1.0000   1.0000   1.0000   1.0000   1.0000
     0.0000   0.0000   0.0000   0.0000   0.0000   0.0000   0.0000   0.0000

          k = 0.2500 0.5677 0.0000 (  5492 PWs)   bands (ev):

   -13.9652 -13.8889 -13.0182 -12.9520 -10.3193 -10.2730  -1.8873  -1.3079
     0.1162   0.6908   9.4159  10.8238  11.1377  11.3385  11.7531  11.8236

     occupation numbers 
     1.0000   1.0000   1.0000   1.0000   1.0000   1.0000   1.0000   1.0000
     0.0000   0.0000   0.0000   0.0000   0.0000   0.0000   0.0000   0.0000

          k = 0.2667 0.4619 0.0000 (  5484 PWs)   bands (ev):

   -15.2851 -15.2017 -11.6101 -11.5512  -9.9854  -9.9404  -3.0473  -2.4017
     1.3625   1.8755   9.1388   9.5016   9.6055  11.0023  11.7666  11.9387

     occupation numbers 
     1.0000   1.0000   1.0000   1.0000   1.0000   1.0000   1.0000   1.0000
     0.0000   0.0000   0.0000   0.0000   0.0000   0.0000   0.0000   0.0000

          k = 0.2667 0.4811 0.0000 (  5483 PWs)   bands (ev):

   -15.0023 -14.9205 -11.8507 -11.7904 -10.1799 -10.1341  -2.7518  -2.1196
     1.0515   1.5723   9.5005   9.5661   9.8429  11.4107  11.8349  11.9486

     occupation numbers 
     1.0000   1.0000   1.0000   1.0000   1.0000   1.0000   1.0000   1.0000
     0.0000   0.0000   0.0000   0.0000   0.0000   0.0000   0.0000   0.0000

          k = 0.2667 0.5004 0.0000 (  5480 PWs)   bands (ev):

   -14.7154 -14.6354 -12.1102 -12.0485 -10.3333 -10.2870  -2.4609  -1.8428
     0.7478   1.2782   9.4477   9.9434  10.1619  11.7247  11.9109  11.9797

     occupation numbers 
     1.0000   1.0000   1.0000   1.0000   1.0000   1.0000   1.0000   1.0000
     0.0000   0.0000   0.0000   0.0000   0.0000   0.0000   0.0000   0.0000

          k = 0.2667 0.5196 0.0000 (  5481 PWs)   bands (ev):

   -14.4288 -14.3506 -12.3818 -12.3184 -10.4474 -10.4006  -2.1845  -1.5801
     0.4616   1.0024   9.3777  10.3477  10.4376  11.7293  12.0069  12.1958

     occupation numbers 
     1.0000   1.0000   1.0000   1.0000   1.0000   1.0000   1.0000   1.0000
     0.0000   0.0000   0.0000   0.0000   0.0000   0.0000   0.0000   0.0000

          k = 0.2667 0.5389 0.0000 (  5485 PWs)   bands (ev):

   -14.1525 -14.0760 -12.6512 -12.5862 -10.5256 -10.4785  -1.9391  -1.3480
     0.2090   0.7609   9.3227  10.6455  10.7460  11.6947  12.0714  12.1779

     occupation numbers 
     1.0000   1.0000   1.0000   1.0000   1.0000   1.0000   1.0000   1.0000
     0.0000   0.0000   0.0000   0.0000   0.0000   0.0000   0.0000   0.0000

          k = 0.2667 0.5581 0.0000 (  5481 PWs)   bands (ev):

   -13.9155 -13.8399 -12.8858 -12.8195 -10.5711 -10.5235  -1.7572  -1.1772
     0.0229   0.5847   9.2880  10.7695  11.1201  11.6301  12.0293  12.1696

     occupation numbers 
     1.0000   1.0000   1.0000   1.0000   1.0000   1.0000   1.0000   1.0000
     0.0000   0.0000   0.0000   0.0000   0.0000   0.0000   0.0000   0.0000

          k = 0.2667 0.5774 0.0000 (  5486 PWs)   bands (ev):

   -13.8056 -13.7304 -12.9952 -12.9286 -10.5861 -10.5382  -1.6873  -1.1121
    -0.0487   0.5178   9.2761  10.8096  11.3876  11.4972  11.9432  12.2381

     occupation numbers 
     1.0000   1.0000   1.0000   1.0000   1.0000   1.0000   1.0000   1.0000
     0.0000   0.0000   0.0000   0.0000   0.0000   0.0000   0.0000   0.0000

          k = 0.2833 0.4907 0.0000 (  5482 PWs)   bands (ev):

   -14.7199 -14.6400 -12.0550 -11.9934 -10.3946 -10.3478  -2.4577  -1.8384
     0.7539   1.2803   9.4238   9.9353  10.1489  11.8123  12.0046  12.0203

     occupation numbers 
     1.0000   1.0000   1.0000   1.0000   1.0000   1.0000   1.0000   1.0000
     0.0000   0.0000   0.0000   0.0000   0.0000   0.0000   0.0000   0.0000

          k = 0.2833 0.5100 0.0000 (  5481 PWs)   bands (ev):

   -14.4354 -14.3573 -12.2797 -12.2166 -10.5646 -10.5172  -2.1691  -1.5629
     0.4631   0.9968   9.3303  10.3318  10.4102  11.9660  12.0753  12.1533

     occupation numbers 
     1.0000   1.0000   1.0000   1.0000   1.0000   1.0000   1.0000   1.0000
     0.0000   0.0000   0.0000   0.0000   0.0000   0.0000   0.0000   0.0000

          k = 0.2833 0.5292 0.0000 (  5479 PWs)   bands (ev):

   -14.1547 -14.0783 -12.5196 -12.4549 -10.6890 -10.6410  -1.8965  -1.3032
     0.1893   0.7316   9.2535  10.6050  10.7238  11.9209  12.1707  12.2756

     occupation numbers 
     1.0000   1.0000   1.0000   1.0000   1.0000   1.0000   1.0000   1.0000
     0.0000   0.0000   0.0000   0.0000   0.0000   0.0000   0.0000   0.0000

          k = 0.2833 0.5485 0.0000 (  5476 PWs)   bands (ev):

   -13.8929 -13.8177 -12.7573 -12.6909 -10.7695 -10.7210  -1.6615  -1.0803
    -0.0460   0.5054   9.1995  10.7246  11.0969  11.8508  12.2487  12.3137

     occupation numbers 
     1.0000   1.0000   1.0000   1.0000   1.0000   1.0000   1.0000   1.0000
     0.0000   0.0000   0.0000   0.0000   0.0000   0.0000   0.0000   0.0000

          k = 0.2833 0.5677 0.0000 (  5474 PWs)   bands (ev):

   -13.6988 -13.6245 -12.9399 -12.8728 -10.8088 -10.7601  -1.5125  -0.9397
    -0.1954   0.3631   9.1718  10.7783  11.4188  11.7192  12.1858  12.4685

     occupation numbers 
     1.0000   1.0000   1.0000   1.0000   1.0000   1.0000   1.0000   1.0000
     0.0000   0.0000   0.0000   0.0000   0.0000   0.0000   0.0000   0.0000

          k = 0.3000 0.5196 0.0000 (  5476 PWs)   bands (ev):

   -14.1558 -14.0796 -12.4689 -12.4046 -10.7495 -10.7016  -1.8819  -1.2877
     0.1825   0.7219   9.2301  10.5911  10.7163  12.0095  12.1923  12.2987

     occupation numbers 
     1.0000   1.0000   1.0000   1.0000   1.0000   1.0000   1.0000   1.0000
     0.0000   0.0000   0.0000   0.0000   0.0000   0.0000   0.0000   0.0000

          k = 0.3000 0.5389 0.0000 (  5480 PWs)   bands (ev):

   -13.8844 -13.8097 -12.6757 -12.6095 -10.8829 -10.8342  -1.6107  -1.0280
    -0.0834   0.4622   9.1544  10.7001  11.0838  11.9698  12.3595  12.3693

     occupation numbers 
     1.0000   1.0000   1.0000   1.0000   1.0000   1.0000   1.0000   1.0000
     0.0000   0.0000   0.0000   0.0000   0.0000   0.0000   0.0000   0.0000

          k = 0.3000 0.5581 0.0000 (  5482 PWs)   bands (ev):

   -13.6429 -13.5695 -12.8790 -12.8114 -10.9626 -10.9135  -1.3851  -0.8124
    -0.3058   0.2466   9.1074  10.7525  11.4114  11.8837  12.3632  12.5463

     occupation numbers 
     1.0000   1.0000   1.0000   1.0000   1.0000   1.0000   1.0000   1.0000
     0.0000   0.0000   0.0000   0.0000   0.0000   0.0000   0.0000   0.0000

          k = 0.3000 0.5774 0.0000 (  5488 PWs)   bands (ev):

   -13.5204 -13.4476 -12.9888 -12.9207 -10.9890 -10.9398  -1.2848  -0.7170
    -0.4050   0.1514   9.0915  10.7675  11.6135  11.7752  12.3466  12.6623

     occupation numbers 
     1.0000   1.0000   1.0000   1.0000   1.0000   1.0000   1.0000   1.0115
     0.0002   0.0000   0.0000   0.0000   0.0000   0.0000   0.0000   0.0000

          k = 0.3167 0.5485 0.0000 (  5492 PWs)   bands (ev):

   -13.6262 -13.5531 -12.8519 -12.7843 -11.0186 -10.9693  -1.3363  -0.7633
    -0.3490   0.2012   9.0857  10.7429  11.4073  11.9426  12.4277  12.5707

     occupation numbers 
     1.0000   1.0000   1.0000   1.0000   1.0000   1.0000   1.0000   1.0007
     0.0000   0.0000   0.0000   0.0000   0.0000   0.0000   0.0000   0.0000

          k = 0.3167 0.5677 0.0000 (  5492 PWs)   bands (ev):

   -13.4103 -13.3385 -13.0255 -12.9563 -11.0882 -11.0386  -1.1105  -0.5701
    -0.5452  -0.0151   9.0506  10.7575  11.6582  11.8669  12.4350  12.7531

     occupation numbers 
     1.0000   1.0000   1.0000   1.0000   1.0000   1.0000   1.0000   0.6291
     0.3648   0.0000   0.0000   0.0000   0.0000   0.0000   0.0000   0.0000

          k = 0.3333 0.5774 0.0000 (  5484 PWs)   bands (ev):

   -13.2026 -13.2026 -13.1320 -13.1320 -11.1318 -11.0820  -0.8383  -0.8383
    -0.2790  -0.2790   9.0314  10.7573  11.8059  11.8059  12.4535  12.8923

     occupation numbers 
     1.0000   1.0000   1.0000   1.0000   1.0000   1.0000   1.0000   1.0000
     0.0000   0.0000   0.0000   0.0000   0.0000   0.0000   0.0000   0.0000

     the Fermi energy is    -0.5489 ev
     (compare with:    -0.5156 eV, computed in scf)

     Writing all to output data dir ./tmp/C2L_AA_PBE_vdW.save/

     init_run     :     10.23s CPU     10.34s WALL (       1 calls)
     electrons    :     51.53s CPU     51.72s WALL (       1 calls)

     Called by init_run:
     wfcinit      :      0.00s CPU      0.00s WALL (       1 calls)
     wfcinit:atom :      0.06s CPU      0.06s WALL (     331 calls)
     wfcinit:wfcr :      2.49s CPU      2.52s WALL (     331 calls)
     potinit      :      9.86s CPU      9.97s WALL (       1 calls)
     hinit0       :      0.32s CPU      0.32s WALL (       1 calls)

     Called by electrons:
     c_bands      :     51.52s CPU     51.71s WALL (       1 calls)
     v_of_rho     :      9.86s CPU      9.96s WALL (       1 calls)
     v_h          :      0.00s CPU      0.00s WALL (       1 calls)
     v_xc         :      9.86s CPU      9.96s WALL (       1 calls)
     vdW_kernel   :      9.81s CPU      9.91s WALL (       1 calls)

     Called by c_bands:
     init_us_2    :      0.06s CPU      0.06s WALL (     331 calls)
     init_us_2:cp :      0.06s CPU      0.06s WALL (     331 calls)
     cegterg      :     48.59s CPU     48.69s WALL (     664 calls)

     Called by sum_band:

     Called by *egterg:
     cdiaghg      :      3.37s CPU      3.43s WALL (    9811 calls)
     cegterg:over :      3.80s CPU      3.91s WALL (    9480 calls)
     cegterg:upda :      3.24s CPU      3.09s WALL (    9480 calls)
     cegterg:last :      4.51s CPU      3.46s WALL (    4398 calls)
     h_psi        :     34.13s CPU     34.98s WALL (   10475 calls)
     g_psi        :      0.30s CPU      0.41s WALL (    9480 calls)

     Called by h_psi:
     h_psi:calbec :      2.59s CPU      2.65s WALL (   10475 calls)
     vloc_psi     :     28.27s CPU     29.41s WALL (   10475 calls)
     add_vuspsi   :      2.98s CPU      2.57s WALL (   10475 calls)

     General routines
     calbec       :      2.57s CPU      2.62s WALL (   10475 calls)
     fft          :      0.28s CPU      0.29s WALL (      61 calls)
     fftw         :     25.31s CPU     26.21s WALL (  154548 calls)
     davcio       :      0.00s CPU      0.09s WALL (     662 calls)

     Parallel routines

     PWSCF        :   1m 2.69s CPU   1m 3.49s WALL


   This run was terminated on:  10:11:56  16Apr2024            

=------------------------------------------------------------------------------=
   JOB DONE.
=------------------------------------------------------------------------------=
