
     Program PROJWFC v.7.2 starts on 16Apr2024 at 10:11:56 

     This program is part of the open-source Quantum ESPRESSO suite
     for quantum simulation of materials; please cite
         "P. Giannozzi et al., J. Phys.:Condens. Matter 21 395502 (2009);
         "P. Giannozzi et al., J. Phys.:Condens. Matter 29 465901 (2017);
         "P. Giannozzi et al., J. Chem. Phys. 152 154105 (2020);
          URL http://www.quantum-espresso.org", 
     in publications or presentations arising from this work. More details at
     http://www.quantum-espresso.org/quote

     Parallel version (MPI & OpenMP), running on       8 processor cores
     Number of MPI processes:                 8
     Threads/MPI process:                     1

     MPI processes distributed on     1 nodes
     R & G space division:  proc/nbgrp/npool/nimage =       8
     0 MiB available memory on the printing compute node when the environment starts


     Reading xml data from directory:

     ./tmp/C2L_AA_PBE_vdW.save/

     IMPORTANT: XC functional enforced from input :
     Exchange-correlation= VDW-DF2-B86R
                           (   1   4  26   0   2   0   0)
     Any further DFT definition will be discarded
     Please, verify this is what you really want


     Parallelization info
     --------------------
     sticks:   dense  smooth     PW     G-vecs:    dense   smooth      PW
     Min          45      45     13                 5519     5519     941
     Max          46      46     14                 5546     5546     968
     Sum         361     361    109                44285    44285    7663

     Using Slab Decomposition



     %%%%%%%%%%%%%%%%%%%%%%%%%%%%%%%%%%%%%%%%%%%%%%%%%%%%%%%%%%%%%%%%%%%%%%%%
     %                                                                      %
     % You are using vdW-DF, which was implemented by the Thonhauser group. %
     % Please cite the following two papers that made this development      %
     % possible and the two reviews that describe the various versions:     %
     %                                                                      %
     %   T. Thonhauser et al., PRL 115, 136402 (2015).                      %
     %   T. Thonhauser et al., PRB 76, 125112 (2007).                       %
     %   K. Berland et al., Rep. Prog. Phys. 78, 066501 (2015).             %
     %   D.C. Langreth et al., J. Phys.: Condens. Matter 21, 084203 (2009). %
     %                                                                      %
     % If you are calculating stress with vdW-DF, please also cite:         %
     %                                                                      %
     %   R. Sabatini et al., J. Phys.: Condens. Matter 24, 424209 (2012).   %
     %                                                                      %
     %%%%%%%%%%%%%%%%%%%%%%%%%%%%%%%%%%%%%%%%%%%%%%%%%%%%%%%%%%%%%%%%%%%%%%%%

     %%%%%%%%%%%%%%%%%%%%%%%%%%%%%%%%%%%%%%%%%%%%%%%%%%%%%%%%%%%%%%%%%%%%%%%%
     %                                                                      %
     %  vdW-DF NEWS:                                                        %
     %                                                                      %
     %  * vdW-DF3 is now available. DOI: 10.1021/acs.jctc.0c00471           %
     %    use with input_dft = 'vdW-DF3-opt1' or 'vdW-DF3-opt2'             %
     %                                                                      %
     %  * Unscreened and range-separated hybrid vdW-DF-cx functionals       %
     %    DOI: 10.1063/1.4986522 and 10.1088/1361-648X/ac2ad2               %
     %    use with input_dft = 'vdW-DF-cx0'    and 'vdW-DF-ahcx'            %
     %  * Unscreened and range-separated hybrid vdW-DF2-b86r functionals    %
     %    DOI: 10.1063/1.4986522 and DOI: 10.1103/PhysRevX.12.041003        %
     %    use with input_dft = 'vdW-DF2-br0' and 'vdW-DF2-ahbr'             %
     %                                                                      %
     %%%%%%%%%%%%%%%%%%%%%%%%%%%%%%%%%%%%%%%%%%%%%%%%%%%%%%%%%%%%%%%%%%%%%%%%



     Gaussian broadening (read from file): ngauss,degauss=  -1    0.005000


     Calling projwave .... 
     Subspace diagonalization in iterative solution of the eigenvalue problem:
     one sub-group per band group will be used
     ELPA distributed-memory algorithm (size of sub-group:  2*  2 procs)

     linear algebra parallelized on   4 procs

  Problem Sizes 
  natomwfc =           16
  nx       =            8
  nbnd     =           16
  nkstot   =          331
  npwx     =          726
  nkb      =           32


     Atomic states used for projection
     (read from pseudopotential files):

     state #   1: atom   1 (C  ), wfc  1 (l=0 m= 1)
     state #   2: atom   1 (C  ), wfc  2 (l=1 m= 1)
     state #   3: atom   1 (C  ), wfc  2 (l=1 m= 2)
     state #   4: atom   1 (C  ), wfc  2 (l=1 m= 3)
     state #   5: atom   2 (C  ), wfc  1 (l=0 m= 1)
     state #   6: atom   2 (C  ), wfc  2 (l=1 m= 1)
     state #   7: atom   2 (C  ), wfc  2 (l=1 m= 2)
     state #   8: atom   2 (C  ), wfc  2 (l=1 m= 3)
     state #   9: atom   3 (C  ), wfc  1 (l=0 m= 1)
     state #  10: atom   3 (C  ), wfc  2 (l=1 m= 1)
     state #  11: atom   3 (C  ), wfc  2 (l=1 m= 2)
     state #  12: atom   3 (C  ), wfc  2 (l=1 m= 3)
     state #  13: atom   4 (C  ), wfc  1 (l=0 m= 1)
     state #  14: atom   4 (C  ), wfc  2 (l=1 m= 1)
     state #  15: atom   4 (C  ), wfc  2 (l=1 m= 2)
     state #  16: atom   4 (C  ), wfc  2 (l=1 m= 3)

 k =   0.0000000000  0.0000000000  0.0000000000
==== e(   1) =   -20.11691 eV ==== 
     psi = 0.246*[#   9]+0.246*[#  13]+0.245*[#   1]+0.245*[#   5]
    |psi|^2 = 0.983
==== e(   2) =   -20.00117 eV ==== 
     psi = 0.247*[#   1]+0.247*[#   5]+0.247*[#   9]+0.247*[#  13]
    |psi|^2 = 0.989
==== e(   3) =    -8.60634 eV ==== 
     psi = 0.238*[#   2]+0.238*[#   6]+0.238*[#  10]+0.238*[#  14]
    |psi|^2 = 0.953
==== e(   4) =    -7.76719 eV ==== 
     psi = 0.241*[#   2]+0.241*[#   6]+0.241*[#  10]+0.241*[#  14]
    |psi|^2 = 0.968
==== e(   5) =    -3.63407 eV ==== 
     psi = 0.126*[#  11]+0.126*[#  12]+0.126*[#  15]+0.126*[#  16]+0.123*[#   3]
          +0.123*[#   4]+0.123*[#   7]+0.123*[#   8]
    |psi|^2 = 0.997
==== e(   6) =    -3.63401 eV ==== 
     psi = 0.126*[#  11]+0.126*[#  12]+0.126*[#  15]+0.126*[#  16]+0.123*[#   3]
          +0.123*[#   4]+0.123*[#   7]+0.123*[#   8]
    |psi|^2 = 0.997
==== e(   7) =    -3.62385 eV ==== 
     psi = 0.126*[#   3]+0.126*[#   4]+0.126*[#   7]+0.126*[#   8]+0.123*[#  11]
          +0.123*[#  12]+0.123*[#  15]+0.123*[#  16]
    |psi|^2 = 0.997
==== e(   8) =    -3.62379 eV ==== 
     psi = 0.126*[#   3]+0.126*[#   4]+0.126*[#   7]+0.126*[#   8]+0.123*[#  11]
          +0.123*[#  12]+0.123*[#  15]+0.123*[#  16]
    |psi|^2 = 0.997
==== e(   9) =     2.51677 eV ==== 
     psi = 0.002*[#   1]+0.002*[#   5]+0.002*[#   9]+0.002*[#  13]+0.001*[#   2]
          +0.001*[#   6]+0.001*[#  10]+0.001*[#  14]
    |psi|^2 = 0.012
==== e(  10) =     2.96927 eV ==== 
     psi = 0.005*[#   2]+0.005*[#   6]+0.005*[#  10]+0.005*[#  14]
    |psi|^2 = 0.022
==== e(  11) =     4.03967 eV ==== 

    |psi|^2 = 0.002
==== e(  12) =     5.22557 eV ==== 
     psi = 0.001*[#   2]+0.001*[#   6]+0.001*[#  10]+0.001*[#  14]
    |psi|^2 = 0.005
==== e(  13) =     5.38536 eV ==== 
     psi = 0.004*[#   2]+0.004*[#   6]+0.004*[#  10]+0.004*[#  14]
    |psi|^2 = 0.018
==== e(  14) =     7.28185 eV ==== 
     psi = 0.004*[#   2]+0.004*[#   6]+0.004*[#  10]+0.004*[#  14]
    |psi|^2 = 0.017
==== e(  15) =     7.82092 eV ==== 
     psi = 0.119*[#  11]+0.119*[#  12]+0.119*[#  15]+0.119*[#  16]+0.119*[#   3]
          +0.119*[#   4]+0.119*[#   7]+0.119*[#   8]
    |psi|^2 = 0.951
==== e(  16) =     7.82099 eV ==== 
     psi = 0.119*[#  11]+0.119*[#  12]+0.119*[#  15]+0.119*[#  16]+0.119*[#   3]
          +0.119*[#   4]+0.119*[#   7]+0.119*[#   8]
    |psi|^2 = 0.951

 k =   0.0000000000  0.0192450090  0.0000000000
==== e(   1) =   -20.11023 eV ==== 
     psi = 0.245*[#   9]+0.245*[#  13]+0.245*[#   1]+0.245*[#   5]
    |psi|^2 = 0.983
==== e(   2) =   -19.99461 eV ==== 
     psi = 0.246*[#   1]+0.246*[#   5]+0.246*[#   9]+0.246*[#  13]
    |psi|^2 = 0.989
==== e(   3) =    -8.59829 eV ==== 
     psi = 0.238*[#   2]+0.238*[#   6]+0.238*[#  10]+0.238*[#  14]
    |psi|^2 = 0.954
==== e(   4) =    -7.75921 eV ==== 
     psi = 0.241*[#   2]+0.241*[#   6]+0.241*[#  10]+0.241*[#  14]
    |psi|^2 = 0.968
==== e(   5) =    -3.66124 eV ==== 
     psi = 0.126*[#  11]+0.126*[#  12]+0.126*[#  15]+0.126*[#  16]+0.123*[#   3]
          +0.123*[#   4]+0.123*[#   7]+0.123*[#   8]
    |psi|^2 = 0.997
==== e(   6) =    -3.65098 eV ==== 
     psi = 0.126*[#   3]+0.126*[#   4]+0.126*[#   7]+0.126*[#   8]+0.123*[#  11]
          +0.123*[#  12]+0.123*[#  15]+0.123*[#  16]
    |psi|^2 = 0.997
==== e(   7) =    -3.64853 eV ==== 
     psi = 0.126*[#  11]+0.126*[#  12]+0.126*[#  15]+0.126*[#  16]+0.123*[#   3]
          +0.123*[#   4]+0.123*[#   7]+0.123*[#   8]
    |psi|^2 = 0.997
==== e(   8) =    -3.63823 eV ==== 
     psi = 0.126*[#   3]+0.126*[#   4]+0.126*[#   7]+0.126*[#   8]+0.123*[#  11]
          +0.123*[#  12]+0.123*[#  15]+0.123*[#  16]
    |psi|^2 = 0.997
==== e(   9) =     2.52556 eV ==== 
     psi = 0.002*[#   1]+0.002*[#   5]+0.002*[#   9]+0.002*[#  13]+0.001*[#   2]
          +0.001*[#   6]+0.001*[#  10]+0.001*[#  14]
    |psi|^2 = 0.013
==== e(  10) =     2.97817 eV ==== 
     psi = 0.005*[#   2]+0.005*[#   6]+0.005*[#  10]+0.005*[#  14]
    |psi|^2 = 0.022
==== e(  11) =     4.04869 eV ==== 

    |psi|^2 = 0.002
==== e(  12) =     5.23451 eV ==== 
     psi = 0.001*[#   2]+0.001*[#   6]+0.001*[#  10]+0.001*[#  14]
    |psi|^2 = 0.005
==== e(  13) =     5.39365 eV ==== 
     psi = 0.004*[#   2]+0.004*[#   6]+0.004*[#  10]+0.004*[#  14]
    |psi|^2 = 0.018
==== e(  14) =     7.29025 eV ==== 
     psi = 0.004*[#   2]+0.004*[#   6]+0.004*[#  10]+0.004*[#  14]
    |psi|^2 = 0.017
==== e(  15) =     7.82688 eV ==== 
     psi = 0.120*[#  11]+0.120*[#  12]+0.120*[#  15]+0.120*[#  16]+0.117*[#   3]
          +0.117*[#   4]+0.117*[#   7]+0.117*[#   8]
    |psi|^2 = 0.950
==== e(  16) =     7.85094 eV ==== 
     psi = 0.119*[#  11]+0.119*[#  12]+0.119*[#  15]+0.119*[#  16]+0.119*[#   3]
          +0.119*[#   4]+0.119*[#   7]+0.119*[#   8]
    |psi|^2 = 0.951

 k =   0.0000000000  0.0384900179  0.0000000000
==== e(   1) =   -20.09055 eV ==== 
     psi = 0.243*[#   9]+0.243*[#  13]+0.243*[#   1]+0.243*[#   5]+0.001*[#   3]
          +0.001*[#   4]+0.001*[#   7]+0.001*[#   8]+0.001*[#  11]+0.001*[#  12]
          +0.001*[#  15]+0.001*[#  16]
    |psi|^2 = 0.983
==== e(   2) =   -19.97506 eV ==== 
     psi = 0.245*[#   1]+0.245*[#   5]+0.244*[#   9]+0.244*[#  13]+0.001*[#   3]
          +0.001*[#   4]+0.001*[#   7]+0.001*[#   8]+0.001*[#  11]+0.001*[#  12]
          +0.001*[#  15]+0.001*[#  16]
    |psi|^2 = 0.989
==== e(   3) =    -8.57443 eV ==== 
     psi = 0.238*[#   2]+0.238*[#   6]+0.238*[#  10]+0.238*[#  14]
    |psi|^2 = 0.954
==== e(   4) =    -7.73601 eV ==== 
     psi = 0.241*[#   2]+0.241*[#   6]+0.241*[#  10]+0.241*[#  14]
    |psi|^2 = 0.968
==== e(   5) =    -3.74280 eV ==== 
     psi = 0.125*[#  11]+0.125*[#  12]+0.125*[#  15]+0.125*[#  16]+0.123*[#   3]
          +0.123*[#   4]+0.123*[#   7]+0.123*[#   8]+0.001*[#   1]+0.001*[#   5]
          +0.001*[#   9]+0.001*[#  13]
    |psi|^2 = 0.997
==== e(   6) =    -3.73269 eV ==== 
     psi = 0.125*[#   3]+0.125*[#   4]+0.125*[#   7]+0.125*[#   8]+0.123*[#  11]
          +0.123*[#  12]+0.123*[#  15]+0.123*[#  16]+0.001*[#   1]+0.001*[#   5]
          +0.001*[#   9]+0.001*[#  13]
    |psi|^2 = 0.997
==== e(   7) =    -3.69141 eV ==== 
     psi = 0.126*[#  11]+0.126*[#  12]+0.126*[#  15]+0.126*[#  16]+0.123*[#   3]
          +0.123*[#   4]+0.123*[#   7]+0.123*[#   8]
    |psi|^2 = 0.997
==== e(   8) =    -3.68092 eV ==== 
     psi = 0.126*[#   3]+0.126*[#   4]+0.126*[#   7]+0.126*[#   8]+0.123*[#  11]
          +0.123*[#  12]+0.123*[#  15]+0.123*[#  16]
    |psi|^2 = 0.997
==== e(   9) =     2.55191 eV ==== 
     psi = 0.002*[#   1]+0.002*[#   5]+0.002*[#   9]+0.002*[#  13]+0.001*[#   2]
          +0.001*[#   6]+0.001*[#  10]+0.001*[#  14]
    |psi|^2 = 0.015
==== e(  10) =     3.00481 eV ==== 
     psi = 0.005*[#   2]+0.005*[#   6]+0.005*[#  10]+0.005*[#  14]
    |psi|^2 = 0.023
==== e(  11) =     4.07577 eV ==== 

    |psi|^2 = 0.002
==== e(  12) =     5.26145 eV ==== 
     psi = 0.001*[#   2]+0.001*[#   6]+0.001*[#  10]+0.001*[#  14]
    |psi|^2 = 0.005
==== e(  13) =     5.41868 eV ==== 
     psi = 0.004*[#   2]+0.004*[#   6]+0.004*[#  10]+0.004*[#  14]
    |psi|^2 = 0.019
==== e(  14) =     7.31548 eV ==== 
     psi = 0.004*[#   2]+0.004*[#   6]+0.004*[#  10]+0.004*[#  14]
    |psi|^2 = 0.017
==== e(  15) =     7.83892 eV ==== 
     psi = 0.117*[#  11]+0.117*[#  12]+0.117*[#  15]+0.117*[#  16]+0.116*[#   3]
          +0.116*[#   4]+0.116*[#   7]+0.116*[#   8]+0.003*[#   1]+0.003*[#   5]
          +0.003*[#   9]+0.003*[#  13]
    |psi|^2 = 0.946
==== e(  16) =     7.87624 eV ==== 
     psi = 0.117*[#   3]+0.117*[#   4]+0.117*[#   7]+0.117*[#   8]+0.116*[#  11]
          +0.116*[#  12]+0.116*[#  15]+0.116*[#  16]+0.003*[#   1]+0.003*[#   5]
          +0.003*[#   9]+0.003*[#  13]
    |psi|^2 = 0.943

 k =   0.0000000000  0.0577350269  0.0000000000
==== e(   1) =   -20.05775 eV ==== 
     psi = 0.240*[#   9]+0.240*[#  13]+0.239*[#   1]+0.239*[#   5]+0.003*[#   3]
          +0.003*[#   4]+0.003*[#   7]+0.003*[#   8]+0.003*[#  11]+0.003*[#  12]
          +0.003*[#  15]+0.003*[#  16]
    |psi|^2 = 0.983
==== e(   2) =   -19.94253 eV ==== 
     psi = 0.242*[#   1]+0.242*[#   5]+0.241*[#   9]+0.241*[#  13]+0.003*[#   3]
          +0.003*[#   4]+0.003*[#   7]+0.003*[#   8]+0.003*[#  11]+0.003*[#  12]
          +0.003*[#  15]+0.003*[#  16]
    |psi|^2 = 0.989
==== e(   3) =    -8.53458 eV ==== 
     psi = 0.238*[#   2]+0.238*[#   6]+0.238*[#  10]+0.238*[#  14]
    |psi|^2 = 0.955
==== e(   4) =    -7.69720 eV ==== 
     psi = 0.242*[#   2]+0.242*[#   6]+0.242*[#  10]+0.242*[#  14]
    |psi|^2 = 0.969
==== e(   5) =    -3.87780 eV ==== 
     psi = 0.124*[#  11]+0.124*[#  12]+0.124*[#  15]+0.124*[#  16]+0.122*[#   3]
          +0.122*[#   4]+0.122*[#   7]+0.122*[#   8]+0.003*[#   1]+0.003*[#   5]
          +0.003*[#   9]+0.003*[#  13]
    |psi|^2 = 0.997
==== e(   6) =    -3.86585 eV ==== 
     psi = 0.124*[#   3]+0.124*[#   4]+0.124*[#   7]+0.124*[#   8]+0.122*[#  11]
          +0.122*[#  12]+0.122*[#  15]+0.122*[#  16]+0.003*[#   1]+0.003*[#   5]
          +0.003*[#   9]+0.003*[#  13]
    |psi|^2 = 0.997
==== e(   7) =    -3.76210 eV ==== 
     psi = 0.126*[#  11]+0.126*[#  12]+0.126*[#  15]+0.126*[#  16]+0.123*[#   3]
          +0.123*[#   4]+0.123*[#   7]+0.123*[#   8]
    |psi|^2 = 0.997
==== e(   8) =    -3.75118 eV ==== 
     psi = 0.126*[#   3]+0.126*[#   4]+0.126*[#   7]+0.126*[#   8]+0.123*[#  11]
          +0.123*[#  12]+0.123*[#  15]+0.123*[#  16]
    |psi|^2 = 0.997
==== e(   9) =     2.59584 eV ==== 
     psi = 0.002*[#   1]+0.002*[#   5]+0.002*[#   9]+0.002*[#  13]+0.001*[#   2]
          +0.001*[#   3]+0.001*[#   4]+0.001*[#   6]+0.001*[#   7]+0.001*[#   8]
          +0.001*[#  10]+0.001*[#  11]+0.001*[#  12]+0.001*[#  14]+0.001*[#  15]
          +0.001*[#  16]
    |psi|^2 = 0.018
==== e(  10) =     3.04922 eV ==== 
     psi = 0.005*[#   2]+0.005*[#   6]+0.005*[#  10]+0.005*[#  14]
    |psi|^2 = 0.023
==== e(  11) =     4.12090 eV ==== 

    |psi|^2 = 0.002
==== e(  12) =     5.30636 eV ==== 

    |psi|^2 = 0.005
==== e(  13) =     5.46044 eV ==== 
     psi = 0.004*[#   2]+0.004*[#   6]+0.004*[#  10]+0.004*[#  14]
    |psi|^2 = 0.019
==== e(  14) =     7.35756 eV ==== 
     psi = 0.004*[#   2]+0.004*[#   6]+0.004*[#  10]+0.004*[#  14]
    |psi|^2 = 0.017
==== e(  15) =     7.85722 eV ==== 
     psi = 0.115*[#   3]+0.115*[#   4]+0.115*[#   7]+0.115*[#   8]+0.114*[#  11]
          +0.114*[#  12]+0.114*[#  15]+0.114*[#  16]+0.006*[#   1]+0.006*[#   5]
          +0.006*[#   9]+0.006*[#  13]
    |psi|^2 = 0.941
==== e(  16) =     7.89036 eV ==== 
     psi = 0.114*[#  11]+0.114*[#  12]+0.114*[#  15]+0.114*[#  16]+0.114*[#   3]
          +0.114*[#   4]+0.114*[#   7]+0.114*[#   8]+0.006*[#   1]+0.006*[#   5]
          +0.006*[#   9]+0.006*[#  13]
    |psi|^2 = 0.934

 k =   0.0000000000  0.0769800359  0.0000000000
==== e(   1) =   -20.01184 eV ==== 
     psi = 0.236*[#   9]+0.236*[#  13]+0.235*[#   1]+0.235*[#   5]+0.005*[#   3]
          +0.005*[#   4]+0.005*[#   7]+0.005*[#   8]+0.005*[#  11]+0.005*[#  12]
          +0.005*[#  15]+0.005*[#  16]
    |psi|^2 = 0.983
==== e(   2) =   -19.89692 eV ==== 
     psi = 0.238*[#   1]+0.238*[#   5]+0.237*[#   9]+0.237*[#  13]+0.005*[#   3]
          +0.005*[#   4]+0.005*[#   7]+0.005*[#   8]+0.005*[#  11]+0.005*[#  12]
          +0.005*[#  15]+0.005*[#  16]
    |psi|^2 = 0.989
==== e(   3) =    -8.47892 eV ==== 
     psi = 0.239*[#   2]+0.239*[#   6]+0.239*[#  10]+0.239*[#  14]
    |psi|^2 = 0.956
==== e(   4) =    -7.64303 eV ==== 
     psi = 0.242*[#   2]+0.242*[#   6]+0.242*[#  10]+0.242*[#  14]
    |psi|^2 = 0.970
==== e(   5) =    -4.06046 eV ==== 
     psi = 0.123*[#  11]+0.123*[#  12]+0.123*[#  15]+0.123*[#  16]+0.121*[#   3]
          +0.121*[#   4]+0.121*[#   7]+0.121*[#   8]+0.005*[#   1]+0.005*[#   5]
          +0.005*[#   9]+0.005*[#  13]
    |psi|^2 = 0.997
==== e(   6) =    -4.04677 eV ==== 
     psi = 0.123*[#   3]+0.123*[#   4]+0.123*[#   7]+0.123*[#   8]+0.121*[#  11]
          +0.121*[#  12]+0.121*[#  15]+0.121*[#  16]+0.005*[#   1]+0.005*[#   5]
          +0.005*[#   9]+0.005*[#  13]
    |psi|^2 = 0.997
==== e(   7) =    -3.85651 eV ==== 
     psi = 0.126*[#  11]+0.126*[#  12]+0.126*[#  15]+0.126*[#  16]+0.123*[#   3]
          +0.123*[#   4]+0.123*[#   7]+0.123*[#   8]
    |psi|^2 = 0.997
==== e(   8) =    -3.84544 eV ==== 
     psi = 0.126*[#   3]+0.126*[#   4]+0.126*[#   7]+0.126*[#   8]+0.123*[#  11]
          +0.123*[#  12]+0.123*[#  15]+0.123*[#  16]
    |psi|^2 = 0.997
==== e(   9) =     2.65734 eV ==== 
     psi = 0.002*[#   3]+0.002*[#   4]+0.002*[#   7]+0.002*[#   8]+0.002*[#  11]
          +0.002*[#  12]+0.002*[#  15]+0.002*[#  16]+0.001*[#   1]+0.001*[#   5]
          +0.001*[#   9]+0.001*[#  13]+0.001*[#   2]+0.001*[#   6]+0.001*[#  10]
          +0.001*[#  14]
    |psi|^2 = 0.022
==== e(  10) =     3.11138 eV ==== 
     psi = 0.005*[#   2]+0.005*[#   6]+0.005*[#  10]+0.005*[#  14]
    |psi|^2 = 0.024
==== e(  11) =     4.18409 eV ==== 

    |psi|^2 = 0.003
==== e(  12) =     5.36922 eV ==== 

    |psi|^2 = 0.005
==== e(  13) =     5.51886 eV ==== 
     psi = 0.004*[#   2]+0.004*[#   6]+0.004*[#  10]+0.004*[#  14]
    |psi|^2 = 0.019
==== e(  14) =     7.41634 eV ==== 
     psi = 0.004*[#   2]+0.004*[#   6]+0.004*[#  10]+0.004*[#  14]
    |psi|^2 = 0.018
==== e(  15) =     7.87429 eV ==== 
     psi = 0.111*[#  11]+0.111*[#  12]+0.111*[#  15]+0.111*[#  16]+0.111*[#   3]
          +0.111*[#   4]+0.111*[#   7]+0.111*[#   8]+0.012*[#   9]+0.012*[#  13]
          +0.011*[#   1]+0.011*[#   5]
    |psi|^2 = 0.934
==== e(  16) =     7.90715 eV ==== 
     psi = 0.111*[#   3]+0.111*[#   4]+0.111*[#   7]+0.111*[#   8]+0.110*[#  11]
          +0.110*[#  12]+0.110*[#  15]+0.110*[#  16]+0.011*[#   1]+0.011*[#   5]
          +0.011*[#   9]+0.011*[#  13]
    |psi|^2 = 0.925

 k =   0.0000000000  0.0962250449  0.0000000000
==== e(   1) =   -19.95280 eV ==== 
     psi = 0.231*[#   9]+0.231*[#  13]+0.230*[#   1]+0.230*[#   5]+0.007*[#   3]
          +0.007*[#   4]+0.007*[#   7]+0.007*[#   8]+0.007*[#  11]+0.007*[#  12]
          +0.007*[#  15]+0.007*[#  16]
    |psi|^2 = 0.983
==== e(   2) =   -19.83842 eV ==== 
     psi = 0.233*[#   1]+0.233*[#   5]+0.233*[#   9]+0.233*[#  13]+0.007*[#   3]
          +0.007*[#   4]+0.007*[#   7]+0.007*[#   8]+0.007*[#  11]+0.007*[#  12]
          +0.007*[#  15]+0.007*[#  16]
    |psi|^2 = 0.988
==== e(   3) =    -8.40786 eV ==== 
     psi = 0.239*[#   2]+0.239*[#   6]+0.239*[#  10]+0.239*[#  14]
    |psi|^2 = 0.957
==== e(   4) =    -7.57330 eV ==== 
     psi = 0.242*[#   2]+0.242*[#   6]+0.242*[#  10]+0.242*[#  14]
    |psi|^2 = 0.971
==== e(   5) =    -4.28721 eV ==== 
     psi = 0.121*[#  11]+0.121*[#  12]+0.121*[#  15]+0.121*[#  16]+0.120*[#   3]
          +0.120*[#   4]+0.120*[#   7]+0.120*[#   8]+0.008*[#   9]+0.008*[#  13]
          +0.008*[#   1]+0.008*[#   5]
    |psi|^2 = 0.997
==== e(   6) =    -4.27130 eV ==== 
     psi = 0.121*[#   3]+0.121*[#   4]+0.121*[#   7]+0.121*[#   8]+0.120*[#  11]
          +0.120*[#  12]+0.120*[#  15]+0.120*[#  16]+0.008*[#   1]+0.008*[#   5]
          +0.008*[#   9]+0.008*[#  13]
    |psi|^2 = 0.997
==== e(   7) =    -3.97271 eV ==== 
     psi = 0.126*[#  11]+0.126*[#  12]+0.126*[#  15]+0.126*[#  16]+0.123*[#   3]
          +0.123*[#   4]+0.123*[#   7]+0.123*[#   8]
    |psi|^2 = 0.997
==== e(   8) =    -3.96133 eV ==== 
     psi = 0.126*[#   3]+0.126*[#   4]+0.126*[#   7]+0.126*[#   8]+0.123*[#  11]
          +0.123*[#  12]+0.123*[#  15]+0.123*[#  16]
    |psi|^2 = 0.997
==== e(   9) =     2.73641 eV ==== 
     psi = 0.002*[#   3]+0.002*[#   4]+0.002*[#   7]+0.002*[#   8]+0.002*[#  11]
          +0.002*[#  12]+0.002*[#  15]+0.002*[#  16]
    |psi|^2 = 0.027
==== e(  10) =     3.19130 eV ==== 
     psi = 0.005*[#   2]+0.005*[#   6]+0.005*[#  10]+0.005*[#  14]
    |psi|^2 = 0.025
==== e(  11) =     4.26533 eV ==== 

    |psi|^2 = 0.003
==== e(  12) =     5.45005 eV ==== 

    |psi|^2 = 0.005
==== e(  13) =     5.59384 eV ==== 
     psi = 0.003*[#   2]+0.003*[#   6]+0.003*[#  10]+0.003*[#  14]
    |psi|^2 = 0.019
==== e(  14) =     7.49155 eV ==== 
     psi = 0.004*[#   2]+0.004*[#   6]+0.004*[#  10]+0.004*[#  14]
    |psi|^2 = 0.019
==== e(  15) =     7.89048 eV ==== 
     psi = 0.107*[#  11]+0.107*[#  12]+0.107*[#  15]+0.107*[#  16]+0.106*[#   3]
          +0.106*[#   4]+0.106*[#   7]+0.106*[#   8]+0.018*[#   9]+0.018*[#  13]
          +0.018*[#   1]+0.018*[#   5]
    |psi|^2 = 0.925
==== e(  16) =     7.92182 eV ==== 
     psi = 0.106*[#   3]+0.106*[#   4]+0.106*[#   7]+0.106*[#   8]+0.106*[#  11]
          +0.106*[#  12]+0.106*[#  15]+0.106*[#  16]+0.017*[#   1]+0.017*[#   5]
          +0.017*[#   9]+0.017*[#  13]
    |psi|^2 = 0.917

 k =   0.0000000000  0.1154700538  0.0000000000
==== e(   1) =   -19.88070 eV ==== 
     psi = 0.225*[#   9]+0.225*[#  13]+0.225*[#   1]+0.225*[#   5]+0.010*[#   3]
          +0.010*[#   4]+0.010*[#   7]+0.010*[#   8]+0.010*[#  11]+0.010*[#  12]
          +0.010*[#  15]+0.010*[#  16]
    |psi|^2 = 0.982
==== e(   2) =   -19.76692 eV ==== 
     psi = 0.228*[#   1]+0.228*[#   5]+0.227*[#   9]+0.227*[#  13]+0.010*[#   3]
          +0.010*[#   4]+0.010*[#   7]+0.010*[#   8]+0.010*[#  11]+0.010*[#  12]
          +0.010*[#  15]+0.010*[#  16]
    |psi|^2 = 0.988
==== e(   3) =    -8.32083 eV ==== 
     psi = 0.239*[#   2]+0.239*[#   6]+0.239*[#  10]+0.239*[#  14]
    |psi|^2 = 0.959
==== e(   4) =    -7.48820 eV ==== 
     psi = 0.243*[#   2]+0.243*[#   6]+0.243*[#  10]+0.243*[#  14]
    |psi|^2 = 0.973
==== e(   5) =    -4.55395 eV ==== 
     psi = 0.120*[#  11]+0.120*[#  12]+0.120*[#  15]+0.120*[#  16]+0.118*[#   3]
          +0.118*[#   4]+0.118*[#   7]+0.118*[#   8]+0.012*[#   9]+0.012*[#  13]
          +0.011*[#   1]+0.011*[#   5]
    |psi|^2 = 0.997
==== e(   6) =    -4.53618 eV ==== 
     psi = 0.120*[#   3]+0.120*[#   4]+0.120*[#   7]+0.120*[#   8]+0.118*[#  11]
          +0.118*[#  12]+0.118*[#  15]+0.118*[#  16]+0.011*[#   1]+0.011*[#   5]
          +0.011*[#   9]+0.011*[#  13]
    |psi|^2 = 0.997
==== e(   7) =    -4.10809 eV ==== 
     psi = 0.126*[#  11]+0.126*[#  12]+0.126*[#  15]+0.126*[#  16]+0.124*[#   3]
          +0.124*[#   4]+0.124*[#   7]+0.124*[#   8]
    |psi|^2 = 0.997
==== e(   8) =    -4.09536 eV ==== 
     psi = 0.126*[#   3]+0.126*[#   4]+0.126*[#   7]+0.126*[#   8]+0.124*[#  11]
          +0.124*[#  12]+0.124*[#  15]+0.124*[#  16]
    |psi|^2 = 0.997
==== e(   9) =     2.83307 eV ==== 
     psi = 0.003*[#   3]+0.003*[#   4]+0.003*[#   7]+0.003*[#   8]+0.003*[#  11]
          +0.003*[#  12]+0.003*[#  15]+0.003*[#  16]
    |psi|^2 = 0.032
==== e(  10) =     3.28895 eV ==== 
     psi = 0.004*[#   2]+0.004*[#   6]+0.004*[#  10]+0.004*[#  14]+0.001*[#   3]
          +0.001*[#   4]+0.001*[#   7]+0.001*[#   8]+0.001*[#  11]+0.001*[#  12]
          +0.001*[#  15]+0.001*[#  16]
    |psi|^2 = 0.026
==== e(  11) =     4.36464 eV ==== 

    |psi|^2 = 0.004
==== e(  12) =     5.54884 eV ==== 

    |psi|^2 = 0.005
==== e(  13) =     5.68549 eV ==== 
     psi = 0.003*[#   2]+0.003*[#   6]+0.003*[#  10]+0.003*[#  14]
    |psi|^2 = 0.019
==== e(  14) =     7.58305 eV ==== 
     psi = 0.004*[#   2]+0.004*[#   6]+0.004*[#  10]+0.004*[#  14]
    |psi|^2 = 0.022
==== e(  15) =     7.90108 eV ==== 
     psi = 0.102*[#  11]+0.102*[#  12]+0.102*[#  15]+0.102*[#  16]+0.101*[#   3]
          +0.101*[#   4]+0.101*[#   7]+0.101*[#   8]+0.026*[#   9]+0.026*[#  13]
          +0.026*[#   1]+0.026*[#   5]
    |psi|^2 = 0.914
==== e(  16) =     7.93052 eV ==== 
     psi = 0.102*[#   3]+0.102*[#   4]+0.102*[#   7]+0.102*[#   8]+0.101*[#  11]
          +0.101*[#  12]+0.101*[#  15]+0.101*[#  16]+0.024*[#   1]+0.024*[#   5]
          +0.024*[#   9]+0.024*[#  13]
    |psi|^2 = 0.910

 k =   0.0000000000  0.1347150628  0.0000000000
==== e(   1) =   -19.79557 eV ==== 
     psi = 0.219*[#   9]+0.219*[#  13]+0.219*[#   1]+0.219*[#   5]+0.013*[#   3]
          +0.013*[#   4]+0.013*[#   7]+0.013*[#   8]+0.013*[#  11]+0.013*[#  12]
          +0.013*[#  15]+0.013*[#  16]
    |psi|^2 = 0.982
==== e(   2) =   -19.68240 eV ==== 
     psi = 0.222*[#   1]+0.222*[#   5]+0.221*[#   9]+0.221*[#  13]+0.013*[#   3]
          +0.013*[#   4]+0.013*[#   7]+0.013*[#   8]+0.013*[#  11]+0.013*[#  12]
          +0.013*[#  15]+0.013*[#  16]
    |psi|^2 = 0.988
==== e(   3) =    -8.21800 eV ==== 
     psi = 0.240*[#   2]+0.240*[#   6]+0.240*[#  10]+0.240*[#  14]
    |psi|^2 = 0.961
==== e(   4) =    -7.38812 eV ==== 
     psi = 0.243*[#   2]+0.243*[#   6]+0.243*[#  10]+0.243*[#  14]
    |psi|^2 = 0.974
==== e(   5) =    -4.85587 eV ==== 
     psi = 0.118*[#  11]+0.118*[#  12]+0.118*[#  15]+0.118*[#  16]+0.116*[#   3]
          +0.116*[#   4]+0.116*[#   7]+0.116*[#   8]+0.015*[#   9]+0.015*[#  13]
          +0.015*[#   1]+0.015*[#   5]
    |psi|^2 = 0.996
==== e(   6) =    -4.83594 eV ==== 
     psi = 0.118*[#   3]+0.118*[#   4]+0.118*[#   7]+0.118*[#   8]+0.117*[#  11]
          +0.117*[#  12]+0.117*[#  15]+0.117*[#  16]+0.015*[#   1]+0.015*[#   5]
          +0.015*[#   9]+0.015*[#  13]
    |psi|^2 = 0.997
==== e(   7) =    -4.25779 eV ==== 
     psi = 0.126*[#  11]+0.126*[#  12]+0.126*[#  15]+0.126*[#  16]+0.124*[#   3]
          +0.124*[#   4]+0.124*[#   7]+0.124*[#   8]
    |psi|^2 = 0.998
==== e(   8) =    -4.24446 eV ==== 
     psi = 0.126*[#   3]+0.126*[#   4]+0.126*[#   7]+0.126*[#   8]+0.124*[#  11]
          +0.124*[#  12]+0.124*[#  15]+0.124*[#  16]
    |psi|^2 = 0.997
==== e(   9) =     2.94729 eV ==== 
     psi = 0.004*[#   3]+0.004*[#   4]+0.004*[#   7]+0.004*[#   8]+0.004*[#  11]
          +0.004*[#  12]+0.004*[#  15]+0.004*[#  16]
    |psi|^2 = 0.036
==== e(  10) =     3.40428 eV ==== 
     psi = 0.004*[#   2]+0.004*[#   6]+0.004*[#  10]+0.004*[#  14]+0.001*[#   3]
          +0.001*[#   4]+0.001*[#   7]+0.001*[#   8]+0.001*[#  11]+0.001*[#  12]
          +0.001*[#  15]+0.001*[#  16]
    |psi|^2 = 0.026
==== e(  11) =     4.48197 eV ==== 

    |psi|^2 = 0.004
==== e(  12) =     5.66550 eV ==== 

    |psi|^2 = 0.005
==== e(  13) =     5.79361 eV ==== 
     psi = 0.003*[#   2]+0.003*[#   6]+0.003*[#  10]+0.003*[#  14]
    |psi|^2 = 0.018
==== e(  14) =     7.68960 eV ==== 
     psi = 0.004*[#   2]+0.004*[#   6]+0.004*[#  10]+0.004*[#  14]+0.002*[#   3]
          +0.002*[#   4]+0.002*[#   7]+0.002*[#   8]+0.002*[#  11]+0.002*[#  12]
          +0.002*[#  15]+0.002*[#  16]+0.001*[#   1]+0.001*[#   5]+0.001*[#   9]
          +0.001*[#  13]
    |psi|^2 = 0.037
==== e(  15) =     7.90309 eV ==== 
     psi = 0.095*[#  11]+0.095*[#  12]+0.095*[#  15]+0.095*[#  16]+0.094*[#   3]
          +0.094*[#   4]+0.094*[#   7]+0.094*[#   8]+0.034*[#   1]+0.034*[#   5]
          +0.034*[#   9]+0.034*[#  13]
    |psi|^2 = 0.893
==== e(  16) =     7.93211 eV ==== 
     psi = 0.097*[#   3]+0.097*[#   4]+0.097*[#   7]+0.097*[#   8]+0.097*[#  11]
          +0.097*[#  12]+0.097*[#  15]+0.097*[#  16]+0.033*[#   1]+0.033*[#   5]
          +0.033*[#   9]+0.033*[#  13]
    |psi|^2 = 0.906

 k =   0.0000000000  0.1539600718  0.0000000000
==== e(   1) =   -19.69751 eV ==== 
     psi = 0.213*[#   9]+0.213*[#  13]+0.212*[#   1]+0.212*[#   5]+0.016*[#   3]
          +0.016*[#   4]+0.016*[#   7]+0.016*[#   8]+0.016*[#  11]+0.016*[#  12]
          +0.016*[#  15]+0.016*[#  16]
    |psi|^2 = 0.982
==== e(   2) =   -19.58495 eV ==== 
     psi = 0.216*[#   1]+0.216*[#   5]+0.215*[#   9]+0.215*[#  13]+0.016*[#   3]
          +0.016*[#   4]+0.016*[#   7]+0.016*[#   8]+0.016*[#  11]+0.016*[#  12]
          +0.016*[#  15]+0.016*[#  16]
    |psi|^2 = 0.988
==== e(   3) =    -8.09958 eV ==== 
     psi = 0.240*[#   2]+0.240*[#   6]+0.240*[#  10]+0.240*[#  14]
    |psi|^2 = 0.963
==== e(   4) =    -7.27316 eV ==== 
     psi = 0.244*[#   2]+0.244*[#   6]+0.244*[#  10]+0.244*[#  14]
    |psi|^2 = 0.976
==== e(   5) =    -5.18851 eV ==== 
     psi = 0.116*[#  11]+0.116*[#  12]+0.116*[#  15]+0.116*[#  16]+0.114*[#   3]
          +0.114*[#   4]+0.114*[#   7]+0.114*[#   8]+0.019*[#   9]+0.019*[#  13]
          +0.019*[#   1]+0.019*[#   5]
    |psi|^2 = 0.996
==== e(   6) =    -5.16630 eV ==== 
     psi = 0.116*[#   3]+0.116*[#   4]+0.116*[#   7]+0.116*[#   8]+0.115*[#  11]
          +0.115*[#  12]+0.115*[#  15]+0.115*[#  16]+0.019*[#   1]+0.019*[#   5]
          +0.018*[#   9]+0.018*[#  13]
    |psi|^2 = 0.997
==== e(   7) =    -4.41924 eV ==== 
     psi = 0.126*[#  11]+0.126*[#  12]+0.126*[#  15]+0.126*[#  16]+0.124*[#   3]
          +0.124*[#   4]+0.124*[#   7]+0.124*[#   8]
    |psi|^2 = 0.998
==== e(   8) =    -4.40531 eV ==== 
     psi = 0.126*[#   3]+0.126*[#   4]+0.126*[#   7]+0.126*[#   8]+0.124*[#  11]
          +0.124*[#  12]+0.124*[#  15]+0.124*[#  16]
    |psi|^2 = 0.997
==== e(   9) =     3.07905 eV ==== 
     psi = 0.004*[#   3]+0.004*[#   4]+0.004*[#   7]+0.004*[#   8]+0.004*[#  11]
          +0.004*[#  12]+0.004*[#  15]+0.004*[#  16]
    |psi|^2 = 0.040
==== e(  10) =     3.53725 eV ==== 
     psi = 0.004*[#   2]+0.004*[#   6]+0.004*[#  10]+0.004*[#  14]+0.001*[#   3]
          +0.001*[#   4]+0.001*[#   7]+0.001*[#   8]+0.001*[#  11]+0.001*[#  12]
          +0.001*[#  15]+0.001*[#  16]
    |psi|^2 = 0.027
==== e(  11) =     4.61733 eV ==== 

    |psi|^2 = 0.005
==== e(  12) =     5.80010 eV ==== 

    |psi|^2 = 0.005
==== e(  13) =     5.91802 eV ==== 
     psi = 0.003*[#   2]+0.003*[#   6]+0.003*[#  10]+0.003*[#  14]
    |psi|^2 = 0.018
==== e(  14) =     7.80274 eV ==== 
     psi = 0.015*[#   3]+0.015*[#   4]+0.015*[#   7]+0.015*[#   8]+0.015*[#  11]
          +0.015*[#  12]+0.015*[#  15]+0.015*[#  16]+0.009*[#   1]+0.009*[#   5]
          +0.009*[#   9]+0.009*[#  13]+0.003*[#  10]+0.003*[#  14]+0.003*[#   2]
          +0.003*[#   6]
    |psi|^2 = 0.169
==== e(  15) =     7.90336 eV ==== 
     psi = 0.077*[#  11]+0.077*[#  12]+0.077*[#  15]+0.077*[#  16]+0.075*[#   3]
          +0.075*[#   4]+0.075*[#   7]+0.075*[#   8]+0.036*[#   9]+0.036*[#  13]
          +0.036*[#   1]+0.036*[#   5]
    |psi|^2 = 0.755
==== e(  16) =     7.92413 eV ==== 
     psi = 0.092*[#   3]+0.092*[#   4]+0.092*[#   7]+0.092*[#   8]+0.091*[#  11]
          +0.091*[#  12]+0.091*[#  15]+0.091*[#  16]+0.043*[#   1]+0.043*[#   5]
          +0.042*[#   9]+0.042*[#  13]
    |psi|^2 = 0.902

 k =   0.0000000000  0.1732050808  0.0000000000
==== e(   1) =   -19.58645 eV ==== 
     psi = 0.206*[#   9]+0.206*[#  13]+0.206*[#   1]+0.206*[#   5]+0.020*[#   3]
          +0.020*[#   4]+0.020*[#   7]+0.020*[#   8]+0.020*[#  11]+0.020*[#  12]
          +0.020*[#  15]+0.020*[#  16]
    |psi|^2 = 0.982
==== e(   2) =   -19.47473 eV ==== 
     psi = 0.209*[#   1]+0.209*[#   5]+0.209*[#   9]+0.209*[#  13]+0.019*[#   3]
          +0.019*[#   4]+0.019*[#   7]+0.019*[#   8]+0.019*[#  11]+0.019*[#  12]
          +0.019*[#  15]+0.019*[#  16]
    |psi|^2 = 0.988
==== e(   3) =    -7.96607 eV ==== 
     psi = 0.241*[#   2]+0.241*[#   6]+0.241*[#  10]+0.241*[#  14]
    |psi|^2 = 0.966
==== e(   4) =    -7.14315 eV ==== 
     psi = 0.244*[#   2]+0.244*[#   6]+0.244*[#  10]+0.244*[#  14]
    |psi|^2 = 0.978
==== e(   5) =    -5.54710 eV ==== 
     psi = 0.113*[#  11]+0.113*[#  12]+0.113*[#  15]+0.113*[#  16]+0.112*[#   3]
          +0.112*[#   4]+0.112*[#   7]+0.112*[#   8]+0.023*[#   9]+0.023*[#  13]
          +0.023*[#   1]+0.023*[#   5]
    |psi|^2 = 0.995
==== e(   6) =    -5.52206 eV ==== 
     psi = 0.114*[#   3]+0.114*[#   4]+0.114*[#   7]+0.114*[#   8]+0.113*[#  11]
          +0.113*[#  12]+0.113*[#  15]+0.113*[#  16]+0.023*[#   1]+0.023*[#   5]
          +0.022*[#   9]+0.022*[#  13]
    |psi|^2 = 0.996
==== e(   7) =    -4.58932 eV ==== 
     psi = 0.126*[#  11]+0.126*[#  12]+0.126*[#  15]+0.126*[#  16]+0.124*[#   3]
          +0.124*[#   4]+0.124*[#   7]+0.124*[#   8]
    |psi|^2 = 0.998
==== e(   8) =    -4.57482 eV ==== 
     psi = 0.126*[#   3]+0.126*[#   4]+0.126*[#   7]+0.126*[#   8]+0.124*[#  11]
          +0.124*[#  12]+0.124*[#  15]+0.124*[#  16]
    |psi|^2 = 0.998
==== e(   9) =     3.22833 eV ==== 
     psi = 0.005*[#   3]+0.005*[#   4]+0.005*[#   7]+0.005*[#   8]+0.005*[#  11]
          +0.005*[#  12]+0.005*[#  15]+0.005*[#  16]
    |psi|^2 = 0.043
==== e(  10) =     3.68785 eV ==== 
     psi = 0.003*[#   2]+0.003*[#   6]+0.003*[#  10]+0.003*[#  14]+0.002*[#   3]
          +0.002*[#   4]+0.002*[#   7]+0.002*[#   8]+0.002*[#  11]+0.002*[#  12]
          +0.002*[#  15]+0.002*[#  16]
    |psi|^2 = 0.027
==== e(  11) =     4.77071 eV ==== 

    |psi|^2 = 0.005
==== e(  12) =     5.95249 eV ==== 

    |psi|^2 = 0.005
==== e(  13) =     6.05834 eV ==== 
     psi = 0.003*[#   2]+0.003*[#   6]+0.003*[#  10]+0.003*[#  14]
    |psi|^2 = 0.017
==== e(  14) =     7.84603 eV ==== 
     psi = 0.075*[#  11]+0.075*[#  12]+0.075*[#  15]+0.075*[#  16]+0.075*[#   3]
          +0.075*[#   4]+0.075*[#   7]+0.075*[#   8]+0.049*[#   1]+0.049*[#   5]
          +0.049*[#   9]+0.049*[#  13]
    |psi|^2 = 0.797
==== e(  15) =     7.90425 eV ==== 
     psi = 0.086*[#   3]+0.086*[#   4]+0.086*[#   7]+0.086*[#   8]+0.086*[#  11]
          +0.086*[#  12]+0.086*[#  15]+0.086*[#  16]+0.052*[#   1]+0.052*[#   5]
          +0.052*[#   9]+0.052*[#  13]
    |psi|^2 = 0.900
==== e(  16) =     7.97576 eV ==== 
     psi = 0.011*[#   3]+0.011*[#   4]+0.011*[#   7]+0.011*[#   8]+0.011*[#  11]
          +0.011*[#  12]+0.011*[#  15]+0.011*[#  16]+0.006*[#   1]+0.006*[#   5]
          +0.006*[#   9]+0.006*[#  13]+0.004*[#   2]+0.004*[#   6]+0.003*[#  10]
          +0.003*[#  14]
    |psi|^2 = 0.125

 k =   0.0000000000  0.1924500897  0.0000000000
==== e(   1) =   -19.46253 eV ==== 
     psi = 0.200*[#   9]+0.200*[#  13]+0.199*[#   1]+0.199*[#   5]+0.023*[#   3]
          +0.023*[#   4]+0.023*[#   7]+0.023*[#   8]+0.023*[#  11]+0.023*[#  12]
          +0.023*[#  15]+0.023*[#  16]
    |psi|^2 = 0.981
==== e(   2) =   -19.35178 eV ==== 
     psi = 0.203*[#   1]+0.203*[#   5]+0.203*[#   9]+0.203*[#  13]+0.022*[#   3]
          +0.022*[#   4]+0.022*[#   7]+0.022*[#   8]+0.022*[#  11]+0.022*[#  12]
          +0.022*[#  15]+0.022*[#  16]
    |psi|^2 = 0.987
==== e(   3) =    -7.81734 eV ==== 
     psi = 0.242*[#   2]+0.242*[#   6]+0.242*[#  10]+0.242*[#  14]
    |psi|^2 = 0.968
==== e(   4) =    -6.99838 eV ==== 
     psi = 0.245*[#   2]+0.245*[#   6]+0.245*[#  10]+0.245*[#  14]
    |psi|^2 = 0.980
==== e(   5) =    -5.92699 eV ==== 
     psi = 0.111*[#  11]+0.111*[#  12]+0.111*[#  15]+0.111*[#  16]+0.110*[#   3]
          +0.110*[#   4]+0.110*[#   7]+0.110*[#   8]+0.027*[#   9]+0.027*[#  13]
          +0.027*[#   1]+0.027*[#   5]
    |psi|^2 = 0.994
==== e(   6) =    -5.89896 eV ==== 
     psi = 0.112*[#   3]+0.112*[#   4]+0.112*[#   7]+0.112*[#   8]+0.111*[#  11]
          +0.111*[#  12]+0.111*[#  15]+0.111*[#  16]+0.027*[#   1]+0.027*[#   5]
          +0.026*[#   9]+0.026*[#  13]
    |psi|^2 = 0.996
==== e(   7) =    -4.76511 eV ==== 
     psi = 0.126*[#  11]+0.126*[#  12]+0.126*[#  15]+0.126*[#  16]+0.124*[#   3]
          +0.124*[#   4]+0.124*[#   7]+0.124*[#   8]
    |psi|^2 = 0.997
==== e(   8) =    -4.75000 eV ==== 
     psi = 0.126*[#   3]+0.126*[#   4]+0.126*[#   7]+0.126*[#   8]+0.124*[#  11]
          +0.124*[#  12]+0.124*[#  15]+0.124*[#  16]
    |psi|^2 = 0.997
==== e(   9) =     3.39511 eV ==== 
     psi = 0.005*[#   3]+0.005*[#   4]+0.005*[#   7]+0.005*[#   8]+0.005*[#  11]
          +0.005*[#  12]+0.005*[#  15]+0.005*[#  16]
    |psi|^2 = 0.045
==== e(  10) =     3.85599 eV ==== 
     psi = 0.003*[#   2]+0.003*[#   6]+0.003*[#  10]+0.003*[#  14]+0.002*[#   3]
          +0.002*[#   4]+0.002*[#   7]+0.002*[#   8]+0.002*[#  11]+0.002*[#  12]
          +0.002*[#  15]+0.002*[#  16]
    |psi|^2 = 0.026
==== e(  11) =     4.94207 eV ==== 

    |psi|^2 = 0.005
==== e(  12) =     6.12267 eV ==== 

    |psi|^2 = 0.005
==== e(  13) =     6.21401 eV ==== 
     psi = 0.003*[#   2]+0.003*[#   6]+0.003*[#  10]+0.003*[#  14]
    |psi|^2 = 0.017
==== e(  14) =     7.81927 eV ==== 
     psi = 0.078*[#  11]+0.078*[#  12]+0.078*[#  15]+0.078*[#  16]+0.078*[#   3]
          +0.078*[#   4]+0.078*[#   7]+0.078*[#   8]+0.064*[#   9]+0.064*[#  13]
          +0.064*[#   1]+0.064*[#   5]
    |psi|^2 = 0.881
==== e(  15) =     7.87357 eV ==== 
     psi = 0.081*[#   3]+0.081*[#   4]+0.081*[#   7]+0.081*[#   8]+0.081*[#  11]
          +0.081*[#  12]+0.081*[#  15]+0.081*[#  16]+0.063*[#   1]+0.063*[#   5]
          +0.063*[#   9]+0.063*[#  13]
    |psi|^2 = 0.899
==== e(  16) =     8.11499 eV ==== 
     psi = 0.010*[#   2]+0.010*[#   6]+0.009*[#  10]+0.009*[#  14]+0.002*[#   3]
          +0.002*[#   4]+0.002*[#   7]+0.002*[#   8]+0.002*[#  11]+0.002*[#  12]
          +0.002*[#  15]+0.002*[#  16]+0.001*[#   1]+0.001*[#   5]+0.001*[#   9]
          +0.001*[#  13]
    |psi|^2 = 0.061

 k =   0.0000000000  0.2116950987  0.0000000000
==== e(   1) =   -19.32570 eV ==== 
     psi = 0.193*[#   9]+0.193*[#  13]+0.193*[#   1]+0.193*[#   5]+0.026*[#   3]
          +0.026*[#   4]+0.026*[#   7]+0.026*[#   8]+0.026*[#  11]+0.026*[#  12]
          +0.026*[#  15]+0.026*[#  16]
    |psi|^2 = 0.981
==== e(   2) =   -19.21592 eV ==== 
     psi = 0.197*[#   1]+0.197*[#   5]+0.196*[#   9]+0.196*[#  13]+0.025*[#   3]
          +0.025*[#   4]+0.025*[#   7]+0.025*[#   8]+0.025*[#  11]+0.025*[#  12]
          +0.025*[#  15]+0.025*[#  16]
    |psi|^2 = 0.987
==== e(   3) =    -7.65340 eV ==== 
     psi = 0.242*[#   2]+0.242*[#   6]+0.242*[#  10]+0.242*[#  14]
    |psi|^2 = 0.971
==== e(   4) =    -6.83900 eV ==== 
     psi = 0.245*[#   2]+0.245*[#   6]+0.245*[#  10]+0.245*[#  14]
    |psi|^2 = 0.982
==== e(   5) =    -6.32408 eV ==== 
     psi = 0.109*[#  11]+0.109*[#  12]+0.109*[#  15]+0.109*[#  16]+0.108*[#   3]
          +0.108*[#   4]+0.108*[#   7]+0.108*[#   8]+0.031*[#   9]+0.031*[#  13]
          +0.031*[#   1]+0.031*[#   5]
    |psi|^2 = 0.994
==== e(   6) =    -6.29340 eV ==== 
     psi = 0.110*[#   3]+0.110*[#   4]+0.110*[#   7]+0.110*[#   8]+0.109*[#  11]
          +0.109*[#  12]+0.109*[#  15]+0.109*[#  16]+0.031*[#   1]+0.031*[#   5]
          +0.030*[#   9]+0.030*[#  13]
    |psi|^2 = 0.996
==== e(   7) =    -4.94363 eV ==== 
     psi = 0.126*[#  11]+0.126*[#  12]+0.126*[#  15]+0.126*[#  16]+0.124*[#   3]
          +0.124*[#   4]+0.124*[#   7]+0.124*[#   8]
    |psi|^2 = 0.997
==== e(   8) =    -4.92807 eV ==== 
     psi = 0.126*[#   3]+0.126*[#   4]+0.126*[#   7]+0.126*[#   8]+0.124*[#  11]
          +0.124*[#  12]+0.124*[#  15]+0.124*[#  16]
    |psi|^2 = 0.997
==== e(   9) =     3.57936 eV ==== 
     psi = 0.005*[#   3]+0.005*[#   4]+0.005*[#   7]+0.005*[#   8]+0.005*[#  11]
          +0.005*[#  12]+0.005*[#  15]+0.005*[#  16]
    |psi|^2 = 0.046
==== e(  10) =     4.04159 eV ==== 
     psi = 0.003*[#   2]+0.003*[#   6]+0.003*[#  10]+0.003*[#  14]+0.002*[#   3]
          +0.002*[#   4]+0.002*[#   7]+0.002*[#   8]+0.002*[#  11]+0.002*[#  12]
          +0.002*[#  15]+0.002*[#  16]
    |psi|^2 = 0.026
==== e(  11) =     5.13139 eV ==== 

    |psi|^2 = 0.005
==== e(  12) =     6.31045 eV ==== 

    |psi|^2 = 0.005
==== e(  13) =     6.38395 eV ==== 
     psi = 0.003*[#  10]+0.003*[#  14]+0.003*[#   2]+0.003*[#   6]
    |psi|^2 = 0.018
==== e(  14) =     7.77741 eV ==== 
     psi = 0.075*[#   9]+0.075*[#  13]+0.074*[#  11]+0.074*[#  12]+0.074*[#  15]
          +0.074*[#  16]+0.074*[#   1]+0.074*[#   5]+0.074*[#   3]+0.074*[#   4]
          +0.074*[#   7]+0.074*[#   8]
    |psi|^2 = 0.892
==== e(  15) =     7.83322 eV ==== 
     psi = 0.076*[#   3]+0.076*[#   4]+0.076*[#   7]+0.076*[#   8]+0.075*[#  11]
          +0.075*[#  12]+0.075*[#  15]+0.075*[#  16]+0.073*[#   1]+0.073*[#   5]
          +0.073*[#   9]+0.073*[#  13]
    |psi|^2 = 0.899
==== e(  16) =     8.15671 eV ==== 
     psi = 0.169*[#   2]+0.169*[#   6]+0.155*[#  10]+0.155*[#  14]
    |psi|^2 = 0.654

 k =   0.0000000000  0.2309401077  0.0000000000
==== e(   1) =   -19.17615 eV ==== 
     psi = 0.187*[#   9]+0.187*[#  13]+0.187*[#   1]+0.187*[#   5]+0.029*[#   3]
          +0.029*[#   4]+0.029*[#   7]+0.029*[#   8]+0.029*[#  11]+0.029*[#  12]
          +0.029*[#  15]+0.029*[#  16]
    |psi|^2 = 0.981
==== e(   2) =   -19.06743 eV ==== 
     psi = 0.190*[#   1]+0.190*[#   5]+0.190*[#   9]+0.190*[#  13]+0.028*[#   3]
          +0.028*[#   4]+0.028*[#   7]+0.028*[#   8]+0.028*[#  11]+0.028*[#  12]
          +0.028*[#  15]+0.028*[#  16]
    |psi|^2 = 0.987
==== e(   3) =    -7.47461 eV ==== 
     psi = 0.243*[#   2]+0.243*[#   6]+0.243*[#  10]+0.243*[#  14]
    |psi|^2 = 0.973
==== e(   4) =    -6.73582 eV ==== 
     psi = 0.107*[#  11]+0.107*[#  12]+0.107*[#  15]+0.107*[#  16]+0.106*[#   3]
          +0.106*[#   4]+0.106*[#   7]+0.106*[#   8]+0.035*[#   9]+0.035*[#  13]
          +0.035*[#   1]+0.035*[#   5]
    |psi|^2 = 0.993
==== e(   5) =    -6.70388 eV ==== 
     psi = 0.105*[#   3]+0.105*[#   4]+0.105*[#   7]+0.105*[#   8]+0.104*[#  11]
          +0.104*[#  12]+0.104*[#  15]+0.104*[#  16]+0.033*[#   1]+0.033*[#   5]
          +0.033*[#   9]+0.033*[#  13]+0.007*[#   2]+0.007*[#   6]+0.007*[#  10]
          +0.007*[#  14]
    |psi|^2 = 0.996
==== e(   6) =    -6.66436 eV ==== 
     psi = 0.238*[#   2]+0.238*[#   6]+0.238*[#  10]+0.238*[#  14]+0.003*[#   3]
          +0.003*[#   4]+0.003*[#   7]+0.003*[#   8]+0.003*[#  11]+0.003*[#  12]
          +0.003*[#  15]+0.003*[#  16]+0.001*[#   1]+0.001*[#   5]+0.001*[#   9]
          +0.001*[#  13]
    |psi|^2 = 0.983
==== e(   7) =    -5.12287 eV ==== 
     psi = 0.126*[#  11]+0.126*[#  12]+0.126*[#  15]+0.126*[#  16]+0.124*[#   3]
          +0.124*[#   4]+0.124*[#   7]+0.124*[#   8]
    |psi|^2 = 0.997
==== e(   8) =    -5.10706 eV ==== 
     psi = 0.126*[#   3]+0.126*[#   4]+0.126*[#   7]+0.126*[#   8]+0.124*[#  11]
          +0.124*[#  12]+0.124*[#  15]+0.124*[#  16]
    |psi|^2 = 0.997
==== e(   9) =     3.78100 eV ==== 
     psi = 0.005*[#   3]+0.005*[#   4]+0.005*[#   7]+0.005*[#   8]+0.005*[#  11]
          +0.005*[#  12]+0.005*[#  15]+0.005*[#  16]
    |psi|^2 = 0.046
==== e(  10) =     4.24445 eV ==== 
     psi = 0.003*[#   2]+0.003*[#   6]+0.003*[#  10]+0.003*[#  14]+0.002*[#   3]
          +0.002*[#   4]+0.002*[#   7]+0.002*[#   8]+0.002*[#  11]+0.002*[#  12]
          +0.002*[#  15]+0.002*[#  16]
    |psi|^2 = 0.025
==== e(  11) =     5.33854 eV ==== 

    |psi|^2 = 0.005
==== e(  12) =     6.51545 eV ==== 

    |psi|^2 = 0.005
==== e(  13) =     6.56483 eV ==== 
     psi = 0.004*[#   2]+0.004*[#   6]+0.004*[#  10]+0.004*[#  14]+0.001*[#   1]
          +0.001*[#   5]+0.001*[#   9]+0.001*[#  13]
    |psi|^2 = 0.024
==== e(  14) =     7.72719 eV ==== 
     psi = 0.085*[#   9]+0.085*[#  13]+0.083*[#   1]+0.083*[#   5]+0.070*[#  11]
          +0.070*[#  12]+0.070*[#  15]+0.070*[#  16]+0.069*[#   3]+0.069*[#   4]
          +0.069*[#   7]+0.069*[#   8]
    |psi|^2 = 0.893
==== e(  15) =     7.78634 eV ==== 
     psi = 0.083*[#   1]+0.083*[#   5]+0.082*[#   9]+0.082*[#  13]+0.071*[#   3]
          +0.071*[#   4]+0.071*[#   7]+0.071*[#   8]+0.070*[#  11]+0.070*[#  12]
          +0.070*[#  15]+0.070*[#  16]+0.003*[#   2]+0.003*[#   6]+0.002*[#  10]
          +0.002*[#  14]
    |psi|^2 = 0.900
==== e(  16) =     7.81207 eV ==== 
     psi = 0.228*[#  10]+0.228*[#  14]+0.224*[#   2]+0.224*[#   6]
    |psi|^2 = 0.908

 k =   0.0000000000  0.2501851166  0.0000000000
==== e(   1) =   -19.01393 eV ==== 
     psi = 0.181*[#   9]+0.181*[#  13]+0.181*[#   1]+0.181*[#   5]+0.032*[#   3]
          +0.032*[#   4]+0.032*[#   7]+0.032*[#   8]+0.032*[#  11]+0.032*[#  12]
          +0.032*[#  15]+0.032*[#  16]
    |psi|^2 = 0.980
==== e(   2) =   -18.90627 eV ==== 
     psi = 0.185*[#   1]+0.185*[#   5]+0.184*[#   9]+0.184*[#  13]+0.031*[#   3]
          +0.031*[#   4]+0.031*[#   7]+0.031*[#   8]+0.031*[#  11]+0.031*[#  12]
          +0.031*[#  15]+0.031*[#  16]
    |psi|^2 = 0.987
==== e(   3) =    -7.28156 eV ==== 
     psi = 0.243*[#   2]+0.243*[#   6]+0.243*[#  10]+0.243*[#  14]
    |psi|^2 = 0.976
==== e(   4) =    -7.15814 eV ==== 
     psi = 0.105*[#  11]+0.105*[#  12]+0.105*[#  15]+0.105*[#  16]+0.104*[#   3]
          +0.104*[#   4]+0.104*[#   7]+0.104*[#   8]+0.039*[#   9]+0.039*[#  13]
          +0.039*[#   1]+0.039*[#   5]
    |psi|^2 = 0.992
==== e(   5) =    -7.12286 eV ==== 
     psi = 0.105*[#   3]+0.105*[#   4]+0.105*[#   7]+0.105*[#   8]+0.105*[#  11]
          +0.105*[#  12]+0.105*[#  15]+0.105*[#  16]+0.038*[#   1]+0.038*[#   5]
          +0.038*[#   9]+0.038*[#  13]
    |psi|^2 = 0.995
==== e(   6) =    -6.47759 eV ==== 
     psi = 0.246*[#   2]+0.246*[#   6]+0.246*[#  10]+0.246*[#  14]
    |psi|^2 = 0.985
==== e(   7) =    -5.30046 eV ==== 
     psi = 0.126*[#  11]+0.126*[#  12]+0.126*[#  15]+0.126*[#  16]+0.124*[#   3]
          +0.124*[#   4]+0.124*[#   7]+0.124*[#   8]
    |psi|^2 = 0.997
==== e(   8) =    -5.28410 eV ==== 
     psi = 0.126*[#   3]+0.126*[#   4]+0.126*[#   7]+0.126*[#   8]+0.124*[#  11]
          +0.124*[#  12]+0.124*[#  15]+0.124*[#  16]
    |psi|^2 = 0.997
==== e(   9) =     3.99997 eV ==== 
     psi = 0.005*[#   3]+0.005*[#   4]+0.005*[#   7]+0.005*[#   8]+0.005*[#  11]
          +0.005*[#  12]+0.005*[#  15]+0.005*[#  16]
    |psi|^2 = 0.044
==== e(  10) =     4.46437 eV ==== 
     psi = 0.002*[#   2]+0.002*[#   6]+0.002*[#  10]+0.002*[#  14]+0.002*[#   3]
          +0.002*[#   4]+0.002*[#   7]+0.002*[#   8]+0.002*[#  11]+0.002*[#  12]
          +0.002*[#  15]+0.002*[#  16]
    |psi|^2 = 0.024
==== e(  11) =     5.56342 eV ==== 

    |psi|^2 = 0.005
==== e(  12) =     6.73634 eV ==== 
     psi = 0.001*[#   2]+0.001*[#   6]+0.001*[#  10]+0.001*[#  14]
    |psi|^2 = 0.007
==== e(  13) =     6.74339 eV ==== 
     psi = 0.014*[#   2]+0.014*[#   6]+0.014*[#  10]+0.014*[#  14]+0.003*[#   1]
          +0.003*[#   5]+0.002*[#   9]+0.002*[#  13]
    |psi|^2 = 0.065
==== e(  14) =     7.41323 eV ==== 
     psi = 0.225*[#  10]+0.225*[#  14]+0.220*[#   2]+0.220*[#   6]
    |psi|^2 = 0.891
==== e(  15) =     7.67997 eV ==== 
     psi = 0.131*[#   1]+0.131*[#   5]+0.093*[#   3]+0.093*[#   4]+0.093*[#   7]
          +0.093*[#   8]+0.049*[#   9]+0.049*[#  13]+0.034*[#  11]+0.034*[#  12]
          +0.034*[#  15]+0.034*[#  16]+0.008*[#   2]+0.008*[#   6]+0.005*[#  10]
          +0.005*[#  14]
    |psi|^2 = 0.894
==== e(  16) =     7.72662 eV ==== 
     psi = 0.137*[#   2]+0.137*[#   6]+0.136*[#  10]+0.136*[#  14]+0.049*[#   9]
          +0.049*[#  13]+0.034*[#  11]+0.034*[#  12]+0.034*[#  15]+0.034*[#  16]
          +0.033*[#   1]+0.033*[#   5]+0.023*[#   3]+0.023*[#   4]+0.023*[#   7]
          +0.023*[#   8]
    |psi|^2 = 0.934

 k =   0.0000000000  0.2694301256  0.0000000000
==== e(   1) =   -18.83904 eV ==== 
     psi = 0.176*[#   9]+0.176*[#  13]+0.176*[#   1]+0.176*[#   5]+0.035*[#   3]
          +0.035*[#   4]+0.035*[#   7]+0.035*[#   8]+0.035*[#  11]+0.035*[#  12]
          +0.035*[#  15]+0.035*[#  16]
    |psi|^2 = 0.980
==== e(   2) =   -18.73265 eV ==== 
     psi = 0.179*[#   1]+0.179*[#   5]+0.179*[#   9]+0.179*[#  13]+0.034*[#   3]
          +0.034*[#   4]+0.034*[#   7]+0.034*[#   8]+0.034*[#  11]+0.034*[#  12]
          +0.034*[#  15]+0.034*[#  16]
    |psi|^2 = 0.986
==== e(   3) =    -7.58942 eV ==== 
     psi = 0.103*[#  11]+0.103*[#  12]+0.103*[#  15]+0.103*[#  16]+0.102*[#   3]
          +0.102*[#   4]+0.102*[#   7]+0.102*[#   8]+0.043*[#   9]+0.043*[#  13]
          +0.042*[#   1]+0.042*[#   5]
    |psi|^2 = 0.992
==== e(   4) =    -7.55123 eV ==== 
     psi = 0.104*[#   3]+0.104*[#   4]+0.104*[#   7]+0.104*[#   8]+0.103*[#  11]
          +0.103*[#  12]+0.103*[#  15]+0.103*[#  16]+0.042*[#   1]+0.042*[#   5]
          +0.042*[#   9]+0.042*[#  13]
    |psi|^2 = 0.994
==== e(   5) =    -7.07380 eV ==== 
     psi = 0.244*[#   2]+0.244*[#   6]+0.244*[#  10]+0.244*[#  14]
    |psi|^2 = 0.979
==== e(   6) =    -6.27625 eV ==== 
     psi = 0.247*[#   2]+0.247*[#   6]+0.247*[#  10]+0.247*[#  14]
    |psi|^2 = 0.987
==== e(   7) =    -5.47485 eV ==== 
     psi = 0.126*[#  11]+0.126*[#  12]+0.126*[#  15]+0.126*[#  16]+0.124*[#   3]
          +0.124*[#   4]+0.124*[#   7]+0.124*[#   8]
    |psi|^2 = 0.997
==== e(   8) =    -5.45832 eV ==== 
     psi = 0.126*[#   3]+0.126*[#   4]+0.126*[#   7]+0.126*[#   8]+0.124*[#  11]
          +0.124*[#  12]+0.124*[#  15]+0.124*[#  16]
    |psi|^2 = 0.997
==== e(   9) =     4.23621 eV ==== 
     psi = 0.005*[#   3]+0.005*[#   4]+0.005*[#   7]+0.005*[#   8]+0.005*[#  11]
          +0.005*[#  12]+0.005*[#  15]+0.005*[#  16]
    |psi|^2 = 0.042
==== e(  10) =     4.70080 eV ==== 
     psi = 0.002*[#   2]+0.002*[#   6]+0.002*[#  10]+0.002*[#  14]+0.002*[#   3]
          +0.002*[#   4]+0.002*[#   7]+0.002*[#   8]+0.002*[#  11]+0.002*[#  12]
          +0.002*[#  15]+0.002*[#  16]
    |psi|^2 = 0.023
==== e(  11) =     5.80559 eV ==== 

    |psi|^2 = 0.005
==== e(  12) =     6.78241 eV ==== 
     psi = 0.135*[#   2]+0.135*[#   6]+0.135*[#  10]+0.135*[#  14]+0.002*[#   1]
          +0.002*[#   5]+0.002*[#   9]+0.002*[#  13]
    |psi|^2 = 0.549
==== e(  13) =     6.96446 eV ==== 
     psi = 0.010*[#   2]+0.010*[#   6]+0.010*[#  10]+0.010*[#  14]
    |psi|^2 = 0.045
==== e(  14) =     7.14040 eV ==== 
     psi = 0.101*[#   2]+0.101*[#   6]+0.101*[#  10]+0.101*[#  14]+0.005*[#   1]
          +0.005*[#   5]+0.005*[#   9]+0.005*[#  13]
    |psi|^2 = 0.430
==== e(  15) =     7.33984 eV ==== 
     psi = 0.230*[#   2]+0.230*[#   6]+0.230*[#  10]+0.230*[#  14]
    |psi|^2 = 0.922
==== e(  16) =     7.62053 eV ==== 
     psi = 0.101*[#   9]+0.101*[#  13]+0.093*[#   1]+0.093*[#   5]+0.063*[#  11]
          +0.063*[#  12]+0.063*[#  15]+0.063*[#  16]+0.058*[#   3]+0.058*[#   4]
          +0.058*[#   7]+0.058*[#   8]
    |psi|^2 = 0.873

 k =   0.0000000000  0.2886751346  0.0000000000
==== e(   1) =   -18.65166 eV ==== 
     psi = 0.170*[#   9]+0.170*[#  13]+0.170*[#   1]+0.170*[#   5]+0.037*[#   3]
          +0.037*[#   4]+0.037*[#   7]+0.037*[#   8]+0.037*[#  11]+0.037*[#  12]
          +0.037*[#  15]+0.037*[#  16]
    |psi|^2 = 0.980
==== e(   2) =   -18.54661 eV ==== 
     psi = 0.174*[#   1]+0.174*[#   5]+0.173*[#   9]+0.173*[#  13]+0.037*[#   3]
          +0.037*[#   4]+0.037*[#   7]+0.037*[#   8]+0.037*[#  11]+0.037*[#  12]
          +0.037*[#  15]+0.037*[#  16]
    |psi|^2 = 0.986
==== e(   3) =    -8.02591 eV ==== 
     psi = 0.101*[#  11]+0.101*[#  12]+0.101*[#  15]+0.101*[#  16]+0.101*[#   3]
          +0.101*[#   4]+0.101*[#   7]+0.101*[#   8]+0.046*[#   9]+0.046*[#  13]
          +0.046*[#   1]+0.046*[#   5]
    |psi|^2 = 0.991
==== e(   4) =    -7.98539 eV ==== 
     psi = 0.102*[#   3]+0.102*[#   4]+0.102*[#   7]+0.102*[#   8]+0.101*[#  11]
          +0.101*[#  12]+0.101*[#  15]+0.101*[#  16]+0.046*[#   1]+0.046*[#   5]
          +0.046*[#   9]+0.046*[#  13]
    |psi|^2 = 0.994
==== e(   5) =    -6.85236 eV ==== 
     psi = 0.245*[#   2]+0.245*[#   6]+0.245*[#  10]+0.245*[#  14]
    |psi|^2 = 0.982
==== e(   6) =    -6.06181 eV ==== 
     psi = 0.247*[#   2]+0.247*[#   6]+0.247*[#  10]+0.247*[#  14]
    |psi|^2 = 0.989
==== e(   7) =    -5.64418 eV ==== 
     psi = 0.125*[#  11]+0.125*[#  12]+0.125*[#  15]+0.125*[#  16]+0.124*[#   3]
          +0.124*[#   4]+0.124*[#   7]+0.124*[#   8]
    |psi|^2 = 0.997
==== e(   8) =    -5.62709 eV ==== 
     psi = 0.125*[#   3]+0.125*[#   4]+0.125*[#   7]+0.125*[#   8]+0.124*[#  11]
          +0.124*[#  12]+0.124*[#  15]+0.124*[#  16]
    |psi|^2 = 0.997
==== e(   9) =     4.48958 eV ==== 
     psi = 0.005*[#   3]+0.005*[#   4]+0.005*[#   7]+0.005*[#   8]+0.005*[#  11]
          +0.005*[#  12]+0.005*[#  15]+0.005*[#  16]
    |psi|^2 = 0.039
==== e(  10) =     4.95247 eV ==== 
     psi = 0.003*[#   2]+0.003*[#   6]+0.003*[#  10]+0.003*[#  14]+0.002*[#   3]
          +0.002*[#   4]+0.002*[#   7]+0.002*[#   8]+0.002*[#  11]+0.002*[#  12]
          +0.002*[#  15]+0.002*[#  16]
    |psi|^2 = 0.024
==== e(  11) =     6.06197 eV ==== 
     psi = 0.003*[#   2]+0.003*[#   6]+0.003*[#  10]+0.003*[#  14]
    |psi|^2 = 0.016
==== e(  12) =     6.42726 eV ==== 
     psi = 0.216*[#   2]+0.216*[#   6]+0.216*[#  10]+0.216*[#  14]
    |psi|^2 = 0.865
==== e(  13) =     6.87351 eV ==== 
     psi = 0.225*[#   2]+0.225*[#   6]+0.225*[#  10]+0.225*[#  14]
    |psi|^2 = 0.903
==== e(  14) =     7.24464 eV ==== 
     psi = 0.024*[#   1]+0.024*[#   5]+0.024*[#   9]+0.024*[#  13]+0.016*[#   2]
          +0.016*[#   6]+0.016*[#  10]+0.016*[#  14]+0.006*[#   3]+0.006*[#   4]
          +0.006*[#   7]+0.006*[#   8]+0.006*[#  11]+0.006*[#  12]+0.006*[#  15]
          +0.006*[#  16]
    |psi|^2 = 0.208
==== e(  15) =     7.25621 eV ==== 
     psi = 0.014*[#  10]+0.014*[#  14]+0.014*[#   2]+0.014*[#   6]+0.004*[#   1]
          +0.004*[#   5]+0.003*[#   9]+0.003*[#  13]
    |psi|^2 = 0.074
==== e(  16) =     7.59027 eV ==== 
     psi = 0.114*[#   9]+0.114*[#  13]+0.065*[#  11]+0.065*[#  12]+0.065*[#  15]
          +0.065*[#  16]+0.063*[#   1]+0.063*[#   5]+0.037*[#   3]+0.037*[#   4]
          +0.037*[#   7]+0.037*[#   8]+0.002*[#   2]+0.002*[#   6]+0.002*[#  10]
          +0.002*[#  14]
    |psi|^2 = 0.769

 k =   0.0000000000  0.3079201436  0.0000000000
==== e(   1) =   -18.45215 eV ==== 
     psi = 0.165*[#   9]+0.165*[#  13]+0.165*[#   1]+0.165*[#   5]+0.040*[#   3]
          +0.040*[#   4]+0.040*[#   7]+0.040*[#   8]+0.040*[#  11]+0.040*[#  12]
          +0.040*[#  15]+0.040*[#  16]
    |psi|^2 = 0.980
==== e(   2) =   -18.34855 eV ==== 
     psi = 0.168*[#   1]+0.168*[#   5]+0.168*[#   9]+0.168*[#  13]+0.039*[#   3]
          +0.039*[#   4]+0.039*[#   7]+0.039*[#   8]+0.039*[#  11]+0.039*[#  12]
          +0.039*[#  15]+0.039*[#  16]
    |psi|^2 = 0.986
==== e(   3) =    -8.46643 eV ==== 
     psi = 0.099*[#  11]+0.099*[#  12]+0.099*[#  15]+0.099*[#  16]+0.099*[#   3]
          +0.099*[#   4]+0.099*[#   7]+0.099*[#   8]+0.050*[#   9]+0.050*[#  13]
          +0.050*[#   1]+0.050*[#   5]
    |psi|^2 = 0.991
==== e(   4) =    -8.42370 eV ==== 
     psi = 0.100*[#   3]+0.100*[#   4]+0.100*[#   7]+0.100*[#   8]+0.099*[#  11]
          +0.099*[#  12]+0.099*[#  15]+0.099*[#  16]+0.050*[#   1]+0.050*[#   5]
          +0.049*[#   9]+0.049*[#  13]
    |psi|^2 = 0.994
==== e(   5) =    -6.61790 eV ==== 
     psi = 0.246*[#   2]+0.246*[#   6]+0.246*[#  10]+0.246*[#  14]
    |psi|^2 = 0.984
==== e(   6) =    -5.83491 eV ==== 
     psi = 0.248*[#   2]+0.248*[#   6]+0.248*[#  10]+0.248*[#  14]
    |psi|^2 = 0.991
==== e(   7) =    -5.80773 eV ==== 
     psi = 0.125*[#  11]+0.125*[#  12]+0.125*[#  15]+0.125*[#  16]+0.124*[#   3]
          +0.124*[#   4]+0.124*[#   7]+0.124*[#   8]
    |psi|^2 = 0.997
==== e(   8) =    -5.79024 eV ==== 
     psi = 0.125*[#   3]+0.125*[#   4]+0.125*[#   7]+0.125*[#   8]+0.124*[#  11]
          +0.124*[#  12]+0.124*[#  15]+0.124*[#  16]
    |psi|^2 = 0.997
==== e(   9) =     4.75976 eV ==== 
     psi = 0.004*[#   3]+0.004*[#   4]+0.004*[#   7]+0.004*[#   8]+0.004*[#  11]
          +0.004*[#  12]+0.004*[#  15]+0.004*[#  16]
    |psi|^2 = 0.036
==== e(  10) =     5.21535 eV ==== 
     psi = 0.005*[#   2]+0.005*[#   6]+0.005*[#  10]+0.005*[#  14]+0.002*[#   3]
          +0.002*[#   4]+0.002*[#   7]+0.002*[#   8]+0.002*[#  11]+0.002*[#  12]
          +0.002*[#  15]+0.002*[#  16]
    |psi|^2 = 0.032
==== e(  11) =     5.96389 eV ==== 
     psi = 0.224*[#   2]+0.224*[#   6]+0.224*[#  10]+0.224*[#  14]
    |psi|^2 = 0.896
==== e(  12) =     6.35253 eV ==== 
     psi = 0.005*[#   2]+0.005*[#   6]+0.004*[#  10]+0.004*[#  14]
    |psi|^2 = 0.021
==== e(  13) =     6.45262 eV ==== 
     psi = 0.234*[#   2]+0.234*[#   6]+0.234*[#  10]+0.234*[#  14]
    |psi|^2 = 0.936
==== e(  14) =     7.34280 eV ==== 
     psi = 0.082*[#   9]+0.082*[#  13]+0.082*[#   1]+0.082*[#   5]+0.029*[#   3]
          +0.029*[#   4]+0.029*[#   7]+0.029*[#   8]+0.029*[#  11]+0.029*[#  12]
          +0.029*[#  15]+0.029*[#  16]+0.004*[#   2]+0.004*[#   6]+0.004*[#  10]
          +0.004*[#  14]
    |psi|^2 = 0.570
==== e(  15) =     7.46661 eV ==== 
     psi = 0.059*[#   1]+0.059*[#   5]+0.059*[#   9]+0.059*[#  13]+0.022*[#   3]
          +0.022*[#   4]+0.022*[#   7]+0.022*[#   8]+0.022*[#  11]+0.022*[#  12]
          +0.022*[#  15]+0.022*[#  16]+0.002*[#   2]+0.002*[#   6]+0.002*[#  10]
          +0.002*[#  14]
    |psi|^2 = 0.416
==== e(  16) =     7.60323 eV ==== 
     psi = 0.060*[#   9]+0.060*[#  13]+0.059*[#   1]+0.059*[#   5]+0.032*[#  11]
          +0.032*[#  12]+0.032*[#  15]+0.032*[#  16]+0.032*[#   3]+0.032*[#   4]
          +0.032*[#   7]+0.032*[#   8]
    |psi|^2 = 0.496

 k =   0.0000000000  0.3271651525  0.0000000000
==== e(   1) =   -18.24047 eV ==== 
     psi = 0.161*[#   9]+0.161*[#  13]+0.160*[#   1]+0.160*[#   5]+0.042*[#   3]
          +0.042*[#   4]+0.042*[#   7]+0.042*[#   8]+0.042*[#  11]+0.042*[#  12]
          +0.042*[#  15]+0.042*[#  16]
    |psi|^2 = 0.980
==== e(   2) =   -18.13819 eV ==== 
     psi = 0.164*[#   1]+0.164*[#   5]+0.163*[#   9]+0.163*[#  13]+0.042*[#   3]
          +0.042*[#   4]+0.042*[#   7]+0.042*[#   8]+0.041*[#  11]+0.041*[#  12]
          +0.041*[#  15]+0.041*[#  16]
    |psi|^2 = 0.986
==== e(   3) =    -8.90809 eV ==== 
     psi = 0.097*[#  11]+0.097*[#  12]+0.097*[#  15]+0.097*[#  16]+0.097*[#   3]
          +0.097*[#   4]+0.097*[#   7]+0.097*[#   8]+0.053*[#   9]+0.053*[#  13]
          +0.053*[#   1]+0.053*[#   5]
    |psi|^2 = 0.991
==== e(   4) =    -8.86367 eV ==== 
     psi = 0.098*[#   3]+0.098*[#   4]+0.098*[#   7]+0.098*[#   8]+0.097*[#  11]
          +0.097*[#  12]+0.097*[#  15]+0.097*[#  16]+0.053*[#   1]+0.053*[#   5]
          +0.053*[#   9]+0.053*[#  13]
    |psi|^2 = 0.993
==== e(   5) =    -6.37088 eV ==== 
     psi = 0.247*[#   2]+0.247*[#   6]+0.247*[#  10]+0.247*[#  14]
    |psi|^2 = 0.987
==== e(   6) =    -5.96407 eV ==== 
     psi = 0.125*[#  11]+0.125*[#  12]+0.125*[#  15]+0.125*[#  16]+0.124*[#   3]
          +0.124*[#   4]+0.124*[#   7]+0.124*[#   8]
    |psi|^2 = 0.997
==== e(   7) =    -5.94607 eV ==== 
     psi = 0.125*[#   3]+0.125*[#   4]+0.125*[#   7]+0.125*[#   8]+0.124*[#  11]
          +0.124*[#  12]+0.124*[#  15]+0.124*[#  16]
    |psi|^2 = 0.997
==== e(   8) =    -5.59633 eV ==== 
     psi = 0.248*[#   2]+0.248*[#   6]+0.248*[#  10]+0.248*[#  14]
    |psi|^2 = 0.992
==== e(   9) =     5.04560 eV ==== 
     psi = 0.004*[#   3]+0.004*[#   4]+0.004*[#   7]+0.004*[#   8]+0.004*[#  11]
          +0.004*[#  12]+0.004*[#  15]+0.004*[#  16]+0.002*[#   2]+0.002*[#   6]
          +0.002*[#  10]+0.002*[#  14]
    |psi|^2 = 0.035
==== e(  10) =     5.46513 eV ==== 
     psi = 0.025*[#   2]+0.025*[#   6]+0.025*[#  10]+0.025*[#  14]+0.001*[#   3]
          +0.001*[#   4]+0.001*[#   7]+0.001*[#   8]+0.001*[#  11]+0.001*[#  12]
          +0.001*[#  15]+0.001*[#  16]
    |psi|^2 = 0.111
==== e(  11) =     5.50081 eV ==== 
     psi = 0.229*[#   2]+0.229*[#   6]+0.229*[#  10]+0.229*[#  14]
    |psi|^2 = 0.916
==== e(  12) =     6.04775 eV ==== 
     psi = 0.214*[#   2]+0.214*[#   6]+0.214*[#  10]+0.214*[#  14]
    |psi|^2 = 0.858
==== e(  13) =     6.64246 eV ==== 
     psi = 0.001*[#   1]+0.001*[#   5]+0.001*[#   9]+0.001*[#  13]
    |psi|^2 = 0.009
==== e(  14) =     7.32912 eV ==== 
     psi = 0.116*[#   9]+0.116*[#  13]+0.116*[#   1]+0.116*[#   5]+0.041*[#  11]
          +0.041*[#  12]+0.041*[#  15]+0.041*[#  16]+0.041*[#   3]+0.041*[#   4]
          +0.041*[#   7]+0.041*[#   8]
    |psi|^2 = 0.794
==== e(  15) =     7.45455 eV ==== 
     psi = 0.123*[#   9]+0.123*[#  13]+0.122*[#   1]+0.122*[#   5]+0.047*[#  11]
          +0.047*[#  12]+0.047*[#  15]+0.047*[#  16]+0.046*[#   3]+0.046*[#   4]
          +0.046*[#   7]+0.046*[#   8]
    |psi|^2 = 0.863
==== e(  16) =     7.86675 eV ==== 
     psi = 0.013*[#   1]+0.013*[#   5]+0.011*[#   3]+0.011*[#   4]+0.011*[#   7]
          +0.011*[#   8]+0.006*[#   9]+0.006*[#  13]+0.006*[#  11]+0.006*[#  12]
          +0.006*[#  15]+0.006*[#  16]+0.005*[#  10]+0.005*[#  14]+0.003*[#   2]
          +0.003*[#   6]
    |psi|^2 = 0.120

 k =   0.0000000000  0.3464101615  0.0000000000
==== e(   1) =   -18.01659 eV ==== 
     psi = 0.156*[#   9]+0.156*[#  13]+0.156*[#   1]+0.156*[#   5]+0.044*[#   3]
          +0.044*[#   4]+0.044*[#   7]+0.044*[#   8]+0.044*[#  11]+0.044*[#  12]
          +0.044*[#  15]+0.044*[#  16]
    |psi|^2 = 0.980
==== e(   2) =   -17.91571 eV ==== 
     psi = 0.159*[#   1]+0.159*[#   5]+0.159*[#   9]+0.159*[#  13]+0.044*[#   3]
          +0.044*[#   4]+0.044*[#   7]+0.044*[#   8]+0.044*[#  11]+0.044*[#  12]
          +0.044*[#  15]+0.044*[#  16]
    |psi|^2 = 0.986
==== e(   3) =    -9.35032 eV ==== 
     psi = 0.096*[#  11]+0.096*[#  12]+0.096*[#  15]+0.096*[#  16]+0.095*[#   3]
          +0.095*[#   4]+0.095*[#   7]+0.095*[#   8]+0.057*[#   9]+0.057*[#  13]
          +0.056*[#   1]+0.056*[#   5]
    |psi|^2 = 0.990
==== e(   4) =    -9.30364 eV ==== 
     psi = 0.096*[#   3]+0.096*[#   4]+0.096*[#   7]+0.096*[#   8]+0.096*[#  11]
          +0.096*[#  12]+0.096*[#  15]+0.096*[#  16]+0.056*[#   1]+0.056*[#   5]
          +0.056*[#   9]+0.056*[#  13]
    |psi|^2 = 0.993
==== e(   5) =    -6.11178 eV ==== 
     psi = 0.247*[#   2]+0.247*[#   6]+0.247*[#  10]+0.247*[#  14]
    |psi|^2 = 0.989
==== e(   6) =    -6.11171 eV ==== 
     psi = 0.125*[#  11]+0.125*[#  12]+0.125*[#  15]+0.125*[#  16]+0.124*[#   3]
          +0.124*[#   4]+0.124*[#   7]+0.124*[#   8]
    |psi|^2 = 0.997
==== e(   7) =    -6.09350 eV ==== 
     psi = 0.125*[#   3]+0.125*[#   4]+0.125*[#   7]+0.125*[#   8]+0.124*[#  11]
          +0.124*[#  12]+0.124*[#  15]+0.124*[#  16]
    |psi|^2 = 0.997
==== e(   8) =    -5.34621 eV ==== 
     psi = 0.248*[#   2]+0.248*[#   6]+0.248*[#  10]+0.248*[#  14]
    |psi|^2 = 0.993
==== e(   9) =     5.02053 eV ==== 
     psi = 0.229*[#   2]+0.229*[#   6]+0.229*[#  10]+0.229*[#  14]
    |psi|^2 = 0.916
==== e(  10) =     5.35561 eV ==== 
     psi = 0.003*[#   3]+0.003*[#   4]+0.003*[#   7]+0.003*[#   8]+0.003*[#  11]
          +0.003*[#  12]+0.003*[#  15]+0.003*[#  16]+0.003*[#   2]+0.003*[#   6]
          +0.003*[#  10]+0.003*[#  14]
    |psi|^2 = 0.036
==== e(  11) =     5.43485 eV ==== 
     psi = 0.189*[#   2]+0.189*[#   6]+0.189*[#  10]+0.189*[#  14]
    |psi|^2 = 0.760
==== e(  12) =     5.93538 eV ==== 
     psi = 0.050*[#   2]+0.050*[#   6]+0.050*[#  10]+0.050*[#  14]
    |psi|^2 = 0.206
==== e(  13) =     6.94606 eV ==== 
     psi = 0.007*[#   1]+0.007*[#   5]+0.007*[#   9]+0.007*[#  13]
    |psi|^2 = 0.035
==== e(  14) =     7.28813 eV ==== 
     psi = 0.123*[#   9]+0.123*[#  13]+0.123*[#   1]+0.123*[#   5]+0.042*[#   3]
          +0.042*[#   4]+0.042*[#   7]+0.042*[#   8]+0.042*[#  11]+0.042*[#  12]
          +0.042*[#  15]+0.042*[#  16]
    |psi|^2 = 0.827
==== e(  15) =     7.39553 eV ==== 
     psi = 0.132*[#   1]+0.132*[#   5]+0.132*[#   9]+0.132*[#  13]+0.045*[#   3]
          +0.045*[#   4]+0.045*[#   7]+0.045*[#   8]+0.045*[#  11]+0.045*[#  12]
          +0.045*[#  15]+0.045*[#  16]
    |psi|^2 = 0.888
==== e(  16) =     8.14380 eV ==== 
     psi = 0.005*[#   3]+0.005*[#   4]+0.005*[#   7]+0.005*[#   8]+0.004*[#   1]
          +0.004*[#   5]+0.003*[#  10]+0.003*[#  14]+0.001*[#  11]+0.001*[#  12]
          +0.001*[#  15]+0.001*[#  16]+0.001*[#   2]+0.001*[#   6]+0.001*[#   9]
          +0.001*[#  13]
    |psi|^2 = 0.043

 k =   0.0000000000  0.3656551705  0.0000000000
==== e(   1) =   -17.78087 eV ==== 
     psi = 0.152*[#   9]+0.152*[#  13]+0.152*[#   1]+0.152*[#   5]+0.046*[#   3]
          +0.046*[#   4]+0.046*[#   7]+0.046*[#   8]+0.047*[#  11]+0.047*[#  12]
          +0.047*[#  15]+0.047*[#  16]
    |psi|^2 = 0.980
==== e(   2) =   -17.68137 eV ==== 
     psi = 0.155*[#   1]+0.155*[#   5]+0.154*[#   9]+0.154*[#  13]+0.046*[#   3]
          +0.046*[#   4]+0.046*[#   7]+0.046*[#   8]+0.046*[#  11]+0.046*[#  12]
          +0.046*[#  15]+0.046*[#  16]
    |psi|^2 = 0.986
==== e(   3) =    -9.79125 eV ==== 
     psi = 0.094*[#  11]+0.094*[#  12]+0.094*[#  15]+0.094*[#  16]+0.094*[#   3]
          +0.094*[#   4]+0.094*[#   7]+0.094*[#   8]+0.060*[#   9]+0.060*[#  13]
          +0.060*[#   1]+0.060*[#   5]
    |psi|^2 = 0.990
==== e(   4) =    -9.74203 eV ==== 
     psi = 0.095*[#   3]+0.095*[#   4]+0.095*[#   7]+0.095*[#   8]+0.094*[#  11]
          +0.094*[#  12]+0.094*[#  15]+0.094*[#  16]+0.060*[#   1]+0.060*[#   5]
          +0.059*[#   9]+0.059*[#  13]
    |psi|^2 = 0.992
==== e(   5) =    -6.25011 eV ==== 
     psi = 0.125*[#  11]+0.125*[#  12]+0.125*[#  15]+0.125*[#  16]+0.124*[#   3]
          +0.124*[#   4]+0.124*[#   7]+0.124*[#   8]
    |psi|^2 = 0.997
==== e(   6) =    -6.23163 eV ==== 
     psi = 0.125*[#   3]+0.125*[#   4]+0.125*[#   7]+0.125*[#   8]+0.124*[#  11]
          +0.124*[#  12]+0.124*[#  15]+0.124*[#  16]
    |psi|^2 = 0.997
==== e(   7) =    -5.84174 eV ==== 
     psi = 0.248*[#   2]+0.248*[#   6]+0.248*[#  10]+0.248*[#  14]
    |psi|^2 = 0.991
==== e(   8) =    -5.08605 eV ==== 
     psi = 0.249*[#   2]+0.249*[#   6]+0.249*[#  10]+0.249*[#  14]
    |psi|^2 = 0.994
==== e(   9) =     4.54639 eV ==== 
     psi = 0.232*[#   2]+0.232*[#   6]+0.232*[#  10]+0.232*[#  14]
    |psi|^2 = 0.927
==== e(  10) =     5.03991 eV ==== 
     psi = 0.229*[#   2]+0.229*[#   6]+0.229*[#  10]+0.229*[#  14]
    |psi|^2 = 0.916
==== e(  11) =     5.67336 eV ==== 
     psi = 0.002*[#   3]+0.002*[#   4]+0.002*[#   7]+0.002*[#   8]+0.002*[#  11]
          +0.002*[#  12]+0.002*[#  15]+0.002*[#  16]
    |psi|^2 = 0.023
==== e(  12) =     6.20368 eV ==== 
     psi = 0.010*[#   2]+0.010*[#   6]+0.010*[#  10]+0.010*[#  14]
    |psi|^2 = 0.048
==== e(  13) =     7.16211 eV ==== 
     psi = 0.101*[#   1]+0.101*[#   5]+0.101*[#   9]+0.101*[#  13]+0.026*[#   3]
          +0.026*[#   4]+0.026*[#   7]+0.026*[#   8]+0.026*[#  11]+0.026*[#  12]
          +0.026*[#  15]+0.026*[#  16]
    |psi|^2 = 0.615
==== e(  14) =     7.33512 eV ==== 
     psi = 0.140*[#   9]+0.140*[#  13]+0.137*[#   1]+0.137*[#   5]+0.043*[#  11]
          +0.043*[#  12]+0.043*[#  15]+0.043*[#  16]+0.042*[#   3]+0.042*[#   4]
          +0.042*[#   7]+0.042*[#   8]
    |psi|^2 = 0.897
==== e(  15) =     7.34581 eV ==== 
     psi = 0.038*[#   1]+0.038*[#   5]+0.035*[#   9]+0.035*[#  13]+0.016*[#   3]
          +0.016*[#   4]+0.016*[#   7]+0.016*[#   8]+0.015*[#  11]+0.015*[#  12]
          +0.015*[#  15]+0.015*[#  16]
    |psi|^2 = 0.267
==== e(  16) =     8.43374 eV ==== 
     psi = 0.003*[#   2]+0.003*[#   6]+0.003*[#  11]+0.003*[#  12]+0.003*[#  15]
          +0.003*[#  16]+0.003*[#  10]+0.003*[#  14]+0.003*[#   3]+0.003*[#   4]
          +0.003*[#   7]+0.003*[#   8]+0.002*[#   9]+0.002*[#  13]+0.002*[#   1]
          +0.002*[#   5]
    |psi|^2 = 0.045

 k =   0.0000000000  0.3849001795  0.0000000000
==== e(   1) =   -17.53370 eV ==== 
     psi = 0.148*[#   9]+0.148*[#  13]+0.148*[#   1]+0.148*[#   5]+0.048*[#   3]
          +0.048*[#   4]+0.048*[#   7]+0.048*[#   8]+0.049*[#  11]+0.049*[#  12]
          +0.049*[#  15]+0.049*[#  16]
    |psi|^2 = 0.980
==== e(   2) =   -17.43575 eV ==== 
     psi = 0.151*[#   1]+0.151*[#   5]+0.151*[#   9]+0.151*[#  13]+0.048*[#   3]
          +0.048*[#   4]+0.048*[#   7]+0.048*[#   8]+0.048*[#  11]+0.048*[#  12]
          +0.048*[#  15]+0.048*[#  16]
    |psi|^2 = 0.986
==== e(   3) =   -10.22900 eV ==== 
     psi = 0.092*[#  11]+0.092*[#  12]+0.092*[#  15]+0.092*[#  16]+0.092*[#   3]
          +0.092*[#   4]+0.092*[#   7]+0.092*[#   8]+0.063*[#   9]+0.063*[#  13]
          +0.063*[#   1]+0.063*[#   5]
    |psi|^2 = 0.989
==== e(   4) =   -10.17758 eV ==== 
     psi = 0.093*[#   3]+0.093*[#   4]+0.093*[#   7]+0.093*[#   8]+0.093*[#  11]
          +0.093*[#  12]+0.093*[#  15]+0.093*[#  16]+0.063*[#   1]+0.063*[#   5]
          +0.062*[#   9]+0.062*[#  13]
    |psi|^2 = 0.992
==== e(   5) =    -6.37866 eV ==== 
     psi = 0.125*[#  11]+0.125*[#  12]+0.125*[#  15]+0.125*[#  16]+0.124*[#   3]
          +0.124*[#   4]+0.124*[#   7]+0.124*[#   8]
    |psi|^2 = 0.996
==== e(   6) =    -6.36022 eV ==== 
     psi = 0.125*[#   3]+0.125*[#   4]+0.125*[#   7]+0.125*[#   8]+0.124*[#  11]
          +0.124*[#  12]+0.124*[#  15]+0.124*[#  16]
    |psi|^2 = 0.997
==== e(   7) =    -5.56235 eV ==== 
     psi = 0.248*[#   2]+0.248*[#   6]+0.248*[#  10]+0.248*[#  14]
    |psi|^2 = 0.993
==== e(   8) =    -4.81760 eV ==== 
     psi = 0.249*[#   2]+0.249*[#   6]+0.249*[#  10]+0.249*[#  14]
    |psi|^2 = 0.995
==== e(   9) =     4.07205 eV ==== 
     psi = 0.232*[#   2]+0.232*[#   6]+0.232*[#  10]+0.232*[#  14]
    |psi|^2 = 0.929
==== e(  10) =     4.60356 eV ==== 
     psi = 0.234*[#   2]+0.234*[#   6]+0.234*[#  10]+0.234*[#  14]
    |psi|^2 = 0.936
==== e(  11) =     6.00815 eV ==== 
     psi = 0.002*[#   3]+0.002*[#   4]+0.002*[#   7]+0.002*[#   8]+0.002*[#  11]
          +0.002*[#  12]+0.002*[#  15]+0.002*[#  16]+0.001*[#   1]+0.001*[#   5]
          +0.001*[#   9]+0.001*[#  13]
    |psi|^2 = 0.018
==== e(  12) =     6.53175 eV ==== 
     psi = 0.005*[#   2]+0.005*[#   6]+0.005*[#  10]+0.005*[#  14]
    |psi|^2 = 0.025
==== e(  13) =     7.13995 eV ==== 
     psi = 0.140*[#   1]+0.140*[#   5]+0.140*[#   9]+0.140*[#  13]+0.037*[#   3]
          +0.037*[#   4]+0.037*[#   7]+0.037*[#   8]+0.037*[#  11]+0.037*[#  12]
          +0.037*[#  15]+0.037*[#  16]
    |psi|^2 = 0.854
==== e(  14) =     7.27762 eV ==== 
     psi = 0.144*[#   1]+0.144*[#   5]+0.144*[#   9]+0.144*[#  13]+0.040*[#   3]
          +0.040*[#   4]+0.040*[#   7]+0.040*[#   8]+0.040*[#  11]+0.040*[#  12]
          +0.040*[#  15]+0.040*[#  16]
    |psi|^2 = 0.900
==== e(  15) =     7.66102 eV ==== 
     psi = 0.004*[#   1]+0.004*[#   5]+0.004*[#   9]+0.004*[#  13]+0.003*[#   3]
          +0.003*[#   4]+0.003*[#   7]+0.003*[#   8]+0.003*[#  11]+0.003*[#  12]
          +0.003*[#  15]+0.003*[#  16]
    |psi|^2 = 0.038
==== e(  16) =     8.74174 eV ==== 
     psi = 0.003*[#   2]+0.003*[#   6]+0.003*[#  10]+0.003*[#  14]+0.002*[#   3]
          +0.002*[#   4]+0.002*[#   7]+0.002*[#   8]+0.002*[#  11]+0.002*[#  12]
          +0.002*[#  15]+0.002*[#  16]+0.001*[#   1]+0.001*[#   5]+0.001*[#   9]
          +0.001*[#  13]
    |psi|^2 = 0.034

 k =   0.0000000000  0.4041451884  0.0000000000
==== e(   1) =   -17.27506 eV ==== 
     psi = 0.145*[#   9]+0.145*[#  13]+0.144*[#   1]+0.144*[#   5]+0.050*[#   3]
          +0.050*[#   4]+0.050*[#   7]+0.050*[#   8]+0.050*[#  11]+0.050*[#  12]
          +0.050*[#  15]+0.050*[#  16]
    |psi|^2 = 0.981
==== e(   2) =   -17.17897 eV ==== 
     psi = 0.147*[#   1]+0.147*[#   5]+0.147*[#   9]+0.147*[#  13]+0.050*[#   3]
          +0.050*[#   4]+0.050*[#   7]+0.050*[#   8]+0.050*[#  11]+0.050*[#  12]
          +0.050*[#  15]+0.050*[#  16]
    |psi|^2 = 0.986
==== e(   3) =   -10.66268 eV ==== 
     psi = 0.091*[#  11]+0.091*[#  12]+0.091*[#  15]+0.091*[#  16]+0.091*[#   3]
          +0.091*[#   4]+0.091*[#   7]+0.091*[#   8]+0.066*[#   9]+0.066*[#  13]
          +0.065*[#   1]+0.065*[#   5]
    |psi|^2 = 0.989
==== e(   4) =   -10.60881 eV ==== 
     psi = 0.091*[#   3]+0.091*[#   4]+0.091*[#   7]+0.091*[#   8]+0.091*[#  11]
          +0.091*[#  12]+0.091*[#  15]+0.091*[#  16]+0.065*[#   1]+0.065*[#   5]
          +0.065*[#   9]+0.065*[#  13]
    |psi|^2 = 0.991
==== e(   5) =    -6.49650 eV ==== 
     psi = 0.125*[#  11]+0.125*[#  12]+0.125*[#  15]+0.125*[#  16]+0.124*[#   3]
          +0.124*[#   4]+0.124*[#   7]+0.124*[#   8]
    |psi|^2 = 0.996
==== e(   6) =    -6.47778 eV ==== 
     psi = 0.125*[#   3]+0.125*[#   4]+0.125*[#   7]+0.125*[#   8]+0.124*[#  11]
          +0.124*[#  12]+0.124*[#  15]+0.124*[#  16]
    |psi|^2 = 0.997
==== e(   7) =    -5.27415 eV ==== 
     psi = 0.248*[#   2]+0.248*[#   6]+0.248*[#  10]+0.248*[#  14]
    |psi|^2 = 0.994
==== e(   8) =    -4.54179 eV ==== 
     psi = 0.249*[#   2]+0.249*[#   6]+0.249*[#  10]+0.249*[#  14]
    |psi|^2 = 0.996
==== e(   9) =     3.60314 eV ==== 
     psi = 0.233*[#   2]+0.233*[#   6]+0.233*[#  10]+0.233*[#  14]
    |psi|^2 = 0.931
==== e(  10) =     4.16535 eV ==== 
     psi = 0.236*[#   2]+0.236*[#   6]+0.236*[#  10]+0.236*[#  14]
    |psi|^2 = 0.943
==== e(  11) =     6.35520 eV ==== 
     psi = 0.004*[#   1]+0.004*[#   5]+0.004*[#   9]+0.004*[#  13]
    |psi|^2 = 0.021
==== e(  12) =     6.87983 eV ==== 
     psi = 0.004*[#   1]+0.004*[#   5]+0.004*[#   9]+0.004*[#  13]+0.003*[#   2]
          +0.003*[#   6]+0.003*[#  10]+0.003*[#  14]
    |psi|^2 = 0.030
==== e(  13) =     7.09661 eV ==== 
     psi = 0.145*[#   1]+0.145*[#   5]+0.145*[#   9]+0.145*[#  13]+0.037*[#   3]
          +0.037*[#   4]+0.037*[#   7]+0.037*[#   8]+0.037*[#  11]+0.037*[#  12]
          +0.037*[#  15]+0.037*[#  16]
    |psi|^2 = 0.875
==== e(  14) =     7.22785 eV ==== 
     psi = 0.146*[#   1]+0.146*[#   5]+0.146*[#   9]+0.146*[#  13]+0.038*[#   3]
          +0.038*[#   4]+0.038*[#   7]+0.038*[#   8]+0.038*[#  11]+0.038*[#  12]
          +0.038*[#  15]+0.038*[#  16]
    |psi|^2 = 0.889
==== e(  15) =     8.02285 eV ==== 
     psi = 0.001*[#   3]+0.001*[#   4]+0.001*[#   7]+0.001*[#   8]+0.001*[#  11]
          +0.001*[#  12]+0.001*[#  15]+0.001*[#  16]+0.001*[#   1]+0.001*[#   5]
          +0.001*[#   9]+0.001*[#  13]
    |psi|^2 = 0.017
==== e(  16) =     9.06826 eV ==== 
     psi = 0.003*[#   2]+0.003*[#   6]+0.003*[#  10]+0.003*[#  14]+0.002*[#   3]
          +0.002*[#   4]+0.002*[#   7]+0.002*[#   8]+0.002*[#  11]+0.002*[#  12]
          +0.002*[#  15]+0.002*[#  16]
    |psi|^2 = 0.027

 k =   0.0000000000  0.4233901974  0.0000000000
==== e(   1) =   -17.00555 eV ==== 
     psi = 0.142*[#   9]+0.142*[#  13]+0.141*[#   1]+0.141*[#   5]+0.052*[#  11]
          +0.052*[#  12]+0.052*[#  15]+0.052*[#  16]+0.052*[#   3]+0.052*[#   4]
          +0.052*[#   7]+0.052*[#   8]
    |psi|^2 = 0.981
==== e(   2) =   -16.91128 eV ==== 
     psi = 0.144*[#   1]+0.144*[#   5]+0.144*[#   9]+0.144*[#  13]+0.052*[#   3]
          +0.052*[#   4]+0.052*[#   7]+0.052*[#   8]+0.051*[#  11]+0.051*[#  12]
          +0.051*[#  15]+0.051*[#  16]
    |psi|^2 = 0.987
==== e(   3) =   -11.09053 eV ==== 
     psi = 0.090*[#  11]+0.090*[#  12]+0.090*[#  15]+0.090*[#  16]+0.089*[#   3]
          +0.089*[#   4]+0.089*[#   7]+0.089*[#   8]+0.068*[#   9]+0.068*[#  13]
          +0.068*[#   1]+0.068*[#   5]
    |psi|^2 = 0.988
==== e(   4) =   -11.03485 eV ==== 
     psi = 0.090*[#   3]+0.090*[#   4]+0.090*[#   7]+0.090*[#   8]+0.090*[#  11]
          +0.090*[#  12]+0.090*[#  15]+0.090*[#  16]+0.068*[#   1]+0.068*[#   5]
          +0.068*[#   9]+0.068*[#  13]
    |psi|^2 = 0.991
==== e(   5) =    -6.60304 eV ==== 
     psi = 0.125*[#  11]+0.125*[#  12]+0.125*[#  15]+0.125*[#  16]+0.124*[#   3]
          +0.124*[#   4]+0.124*[#   7]+0.124*[#   8]
    |psi|^2 = 0.996
==== e(   6) =    -6.58438 eV ==== 
     psi = 0.125*[#   3]+0.125*[#   4]+0.125*[#   7]+0.125*[#   8]+0.124*[#  11]
          +0.124*[#  12]+0.124*[#  15]+0.124*[#  16]
    |psi|^2 = 0.996
==== e(   7) =    -4.98053 eV ==== 
     psi = 0.249*[#   2]+0.249*[#   6]+0.249*[#  10]+0.249*[#  14]
    |psi|^2 = 0.995
==== e(   8) =    -4.26120 eV ==== 
     psi = 0.249*[#   2]+0.249*[#   6]+0.249*[#  10]+0.249*[#  14]
    |psi|^2 = 0.997
==== e(   9) =     3.14317 eV ==== 
     psi = 0.233*[#   2]+0.233*[#   6]+0.233*[#  10]+0.233*[#  14]
    |psi|^2 = 0.933
==== e(  10) =     3.73443 eV ==== 
     psi = 0.236*[#   2]+0.236*[#   6]+0.236*[#  10]+0.236*[#  14]
    |psi|^2 = 0.946
==== e(  11) =     6.69775 eV ==== 
     psi = 0.021*[#   1]+0.021*[#   5]+0.021*[#   9]+0.021*[#  13]
    |psi|^2 = 0.088
==== e(  12) =     7.07483 eV ==== 
     psi = 0.134*[#   9]+0.134*[#  13]+0.133*[#   1]+0.133*[#   5]+0.035*[#  11]
          +0.035*[#  12]+0.035*[#  15]+0.035*[#  16]+0.035*[#   3]+0.035*[#   4]
          +0.035*[#   7]+0.035*[#   8]
    |psi|^2 = 0.815
==== e(  13) =     7.13354 eV ==== 
     psi = 0.125*[#   1]+0.125*[#   5]+0.125*[#   9]+0.125*[#  13]+0.024*[#   3]
          +0.024*[#   4]+0.024*[#   7]+0.024*[#   8]+0.024*[#  11]+0.024*[#  12]
          +0.024*[#  15]+0.024*[#  16]
    |psi|^2 = 0.694
==== e(  14) =     7.29579 eV ==== 
     psi = 0.030*[#   1]+0.030*[#   5]+0.030*[#   9]+0.030*[#  13]+0.012*[#   3]
          +0.012*[#   4]+0.012*[#   7]+0.012*[#   8]+0.012*[#  11]+0.012*[#  12]
          +0.012*[#  15]+0.012*[#  16]+0.002*[#   2]+0.002*[#   6]+0.002*[#  10]
          +0.002*[#  14]
    |psi|^2 = 0.222
==== e(  15) =     8.40522 eV ==== 

    |psi|^2 = 0.010
==== e(  16) =     9.40837 eV ==== 
     psi = 0.003*[#   2]+0.003*[#   6]+0.003*[#  10]+0.003*[#  14]+0.001*[#   3]
          +0.001*[#   4]+0.001*[#   7]+0.001*[#   8]+0.001*[#  11]+0.001*[#  12]
          +0.001*[#  15]+0.001*[#  16]
    |psi|^2 = 0.022

 k =   0.0000000000  0.4426352064  0.0000000000
==== e(   1) =   -16.72567 eV ==== 
     psi = 0.139*[#   9]+0.139*[#  13]+0.138*[#   1]+0.138*[#   5]+0.053*[#  11]
          +0.053*[#  12]+0.053*[#  15]+0.053*[#  16]+0.053*[#   3]+0.053*[#   4]
          +0.053*[#   7]+0.053*[#   8]
    |psi|^2 = 0.982
==== e(   2) =   -16.63301 eV ==== 
     psi = 0.141*[#   1]+0.141*[#   5]+0.141*[#   9]+0.141*[#  13]+0.053*[#   3]
          +0.053*[#   4]+0.053*[#   7]+0.053*[#   8]+0.053*[#  11]+0.053*[#  12]
          +0.053*[#  15]+0.053*[#  16]
    |psi|^2 = 0.987
==== e(   3) =   -11.51165 eV ==== 
     psi = 0.088*[#  11]+0.088*[#  12]+0.088*[#  15]+0.088*[#  16]+0.088*[#   3]
          +0.088*[#   4]+0.088*[#   7]+0.088*[#   8]+0.071*[#   9]+0.071*[#  13]
          +0.070*[#   1]+0.070*[#   5]
    |psi|^2 = 0.988
==== e(   4) =   -11.45379 eV ==== 
     psi = 0.089*[#   3]+0.089*[#   4]+0.089*[#   7]+0.089*[#   8]+0.089*[#  11]
          +0.089*[#  12]+0.089*[#  15]+0.089*[#  16]+0.070*[#   1]+0.070*[#   5]
          +0.070*[#   9]+0.070*[#  13]
    |psi|^2 = 0.990
==== e(   5) =    -6.69810 eV ==== 
     psi = 0.125*[#  11]+0.125*[#  12]+0.125*[#  15]+0.125*[#  16]+0.124*[#   3]
          +0.124*[#   4]+0.124*[#   7]+0.124*[#   8]
    |psi|^2 = 0.996
==== e(   6) =    -6.67916 eV ==== 
     psi = 0.125*[#   3]+0.125*[#   4]+0.125*[#   7]+0.125*[#   8]+0.124*[#  11]
          +0.124*[#  12]+0.124*[#  15]+0.124*[#  16]
    |psi|^2 = 0.996
==== e(   7) =    -4.68378 eV ==== 
     psi = 0.249*[#   2]+0.249*[#   6]+0.249*[#  10]+0.249*[#  14]
    |psi|^2 = 0.996
==== e(   8) =    -3.97940 eV ==== 
     psi = 0.249*[#   2]+0.249*[#   6]+0.249*[#  10]+0.249*[#  14]
    |psi|^2 = 0.997
==== e(   9) =     2.69717 eV ==== 
     psi = 0.233*[#   2]+0.233*[#   6]+0.234*[#  10]+0.234*[#  14]
    |psi|^2 = 0.934
==== e(  10) =     3.31553 eV ==== 
     psi = 0.237*[#   2]+0.237*[#   6]+0.237*[#  10]+0.237*[#  14]
    |psi|^2 = 0.948
==== e(  11) =     6.89992 eV ==== 
     psi = 0.121*[#   1]+0.121*[#   5]+0.121*[#   9]+0.121*[#  13]+0.017*[#   3]
          +0.017*[#   4]+0.017*[#   7]+0.017*[#   8]+0.017*[#  11]+0.017*[#  12]
          +0.017*[#  15]+0.017*[#  16]
    |psi|^2 = 0.625
[...]
          +0.065*[#  12]+0.065*[#  15]+0.065*[#  16]+0.065*[#   3]+0.065*[#   4]
          +0.065*[#   7]+0.065*[#   8]
    |psi|^2 = 0.991
==== e(   2) =   -13.80972 eV ==== 
     psi = 0.119*[#   1]+0.119*[#   5]+0.118*[#   9]+0.118*[#  13]+0.065*[#   3]
          +0.065*[#   4]+0.065*[#   7]+0.065*[#   8]+0.065*[#  11]+0.065*[#  12]
          +0.065*[#  15]+0.065*[#  16]
    |psi|^2 = 0.993
==== e(   3) =   -12.67565 eV ==== 
     psi = 0.104*[#   9]+0.104*[#  13]+0.104*[#   1]+0.104*[#   5]+0.072*[#  11]
          +0.072*[#  12]+0.072*[#  15]+0.072*[#  16]+0.072*[#   3]+0.072*[#   4]
          +0.072*[#   7]+0.072*[#   8]
    |psi|^2 = 0.993
==== e(   4) =   -12.60946 eV ==== 
     psi = 0.104*[#   1]+0.104*[#   5]+0.104*[#   9]+0.104*[#  13]+0.072*[#   3]
          +0.072*[#   4]+0.072*[#   7]+0.072*[#   8]+0.072*[#  11]+0.072*[#  12]
          +0.072*[#  15]+0.072*[#  16]
    |psi|^2 = 0.994
==== e(   5) =   -10.88290 eV ==== 
     psi = 0.119*[#  11]+0.119*[#  12]+0.119*[#  15]+0.119*[#  16]+0.119*[#   3]
          +0.119*[#   4]+0.119*[#   7]+0.119*[#   8]+0.007*[#   1]+0.007*[#   5]
          +0.007*[#   9]+0.007*[#  13]
    |psi|^2 = 0.981
==== e(   6) =   -10.83419 eV ==== 
     psi = 0.120*[#   3]+0.120*[#   4]+0.120*[#   7]+0.120*[#   8]+0.119*[#  11]
          +0.119*[#  12]+0.119*[#  15]+0.119*[#  16]+0.007*[#   1]+0.007*[#   5]
          +0.007*[#   9]+0.007*[#  13]
    |psi|^2 = 0.985
==== e(   7) =    -1.61073 eV ==== 
     psi = 0.249*[#   2]+0.249*[#   6]+0.249*[#  10]+0.249*[#  14]
    |psi|^2 = 0.995
==== e(   8) =    -1.02804 eV ==== 
     psi = 0.249*[#   2]+0.249*[#   6]+0.249*[#  10]+0.249*[#  14]
    |psi|^2 = 0.995
==== e(   9) =    -0.08342 eV ==== 
     psi = 0.247*[#   2]+0.247*[#   6]+0.248*[#  10]+0.248*[#  14]
    |psi|^2 = 0.990
==== e(  10) =     0.46219 eV ==== 
     psi = 0.248*[#   2]+0.248*[#   6]+0.248*[#  10]+0.248*[#  14]
    |psi|^2 = 0.991
==== e(  11) =     9.15440 eV ==== 

    |psi|^2 = 0.002
==== e(  12) =    10.70009 eV ==== 

    |psi|^2 = 0.004
==== e(  13) =    11.08377 eV ==== 
     psi = 0.016*[#   1]+0.016*[#   5]+0.016*[#   9]+0.016*[#  13]+0.004*[#   3]
          +0.004*[#   4]+0.004*[#   7]+0.004*[#   8]+0.004*[#  11]+0.004*[#  12]
          +0.004*[#  15]+0.004*[#  16]
    |psi|^2 = 0.098
==== e(  14) =    11.96982 eV ==== 
     psi = 0.078*[#   1]+0.078*[#   5]+0.078*[#   9]+0.078*[#  13]+0.022*[#   3]
          +0.022*[#   4]+0.022*[#   7]+0.022*[#   8]+0.022*[#  11]+0.022*[#  12]
          +0.022*[#  15]+0.022*[#  16]
    |psi|^2 = 0.490
==== e(  15) =    12.35948 eV ==== 
     psi = 0.022*[#   9]+0.022*[#  13]+0.021*[#   1]+0.021*[#   5]+0.008*[#   3]
          +0.008*[#   4]+0.008*[#   7]+0.008*[#   8]+0.008*[#  11]+0.008*[#  12]
          +0.008*[#  15]+0.008*[#  16]
    |psi|^2 = 0.150
==== e(  16) =    12.36931 eV ==== 
     psi = 0.029*[#   1]+0.029*[#   5]+0.029*[#   9]+0.029*[#  13]+0.014*[#   3]
          +0.014*[#   4]+0.014*[#   7]+0.014*[#   8]+0.014*[#  11]+0.014*[#  12]
          +0.014*[#  15]+0.014*[#  16]
    |psi|^2 = 0.232

 k =   0.3000000000  0.5581052602  0.0000000000
==== e(   1) =   -13.64290 eV ==== 
     psi = 0.119*[#   9]+0.119*[#  13]+0.119*[#   1]+0.119*[#   5]+0.065*[#  11]
          +0.065*[#  12]+0.065*[#  15]+0.065*[#  16]+0.065*[#   3]+0.065*[#   4]
          +0.065*[#   7]+0.065*[#   8]
    |psi|^2 = 0.992
==== e(   2) =   -13.56947 eV ==== 
     psi = 0.120*[#   1]+0.120*[#   5]+0.119*[#   9]+0.119*[#  13]+0.065*[#   3]
          +0.065*[#   4]+0.065*[#   7]+0.065*[#   8]+0.064*[#  11]+0.064*[#  12]
          +0.064*[#  15]+0.064*[#  16]
    |psi|^2 = 0.994
==== e(   3) =   -12.87897 eV ==== 
     psi = 0.104*[#   9]+0.104*[#  13]+0.104*[#   1]+0.104*[#   5]+0.072*[#  11]
          +0.072*[#  12]+0.072*[#  15]+0.072*[#  16]+0.072*[#   3]+0.072*[#   4]
          +0.072*[#   7]+0.072*[#   8]
    |psi|^2 = 0.992
==== e(   4) =   -12.81135 eV ==== 
     psi = 0.105*[#   1]+0.105*[#   5]+0.104*[#   9]+0.104*[#  13]+0.072*[#   3]
          +0.072*[#   4]+0.072*[#   7]+0.072*[#   8]+0.072*[#  11]+0.072*[#  12]
          +0.072*[#  15]+0.072*[#  16]
    |psi|^2 = 0.994
==== e(   5) =   -10.96262 eV ==== 
     psi = 0.120*[#  11]+0.120*[#  12]+0.120*[#  15]+0.120*[#  16]+0.119*[#   3]
          +0.119*[#   4]+0.119*[#   7]+0.119*[#   8]+0.006*[#   1]+0.006*[#   5]
          +0.006*[#   9]+0.006*[#  13]
    |psi|^2 = 0.981
==== e(   6) =   -10.91345 eV ==== 
     psi = 0.120*[#   3]+0.120*[#   4]+0.120*[#   7]+0.120*[#   8]+0.120*[#  11]
          +0.120*[#  12]+0.120*[#  15]+0.120*[#  16]+0.006*[#   1]+0.006*[#   5]
          +0.006*[#   9]+0.006*[#  13]
    |psi|^2 = 0.984
==== e(   7) =    -1.38507 eV ==== 
     psi = 0.249*[#   2]+0.249*[#   6]+0.249*[#  10]+0.249*[#  14]
    |psi|^2 = 0.995
==== e(   8) =    -0.81237 eV ==== 
     psi = 0.249*[#   2]+0.249*[#   6]+0.249*[#  10]+0.249*[#  14]
    |psi|^2 = 0.995
==== e(   9) =    -0.30575 eV ==== 
     psi = 0.248*[#   2]+0.248*[#   6]+0.248*[#  10]+0.248*[#  14]
    |psi|^2 = 0.991
==== e(  10) =     0.24665 eV ==== 
     psi = 0.248*[#   2]+0.248*[#   6]+0.248*[#  10]+0.248*[#  14]
    |psi|^2 = 0.991
==== e(  11) =     9.10742 eV ==== 

    |psi|^2 = 0.002
==== e(  12) =    10.75254 eV ==== 

    |psi|^2 = 0.004
==== e(  13) =    11.41140 eV ==== 
     psi = 0.026*[#   1]+0.026*[#   5]+0.026*[#   9]+0.026*[#  13]+0.007*[#   3]
          +0.007*[#   4]+0.007*[#   7]+0.007*[#   8]+0.007*[#  11]+0.007*[#  12]
          +0.007*[#  15]+0.007*[#  16]
    |psi|^2 = 0.158
==== e(  14) =    11.88375 eV ==== 
     psi = 0.066*[#   1]+0.066*[#   5]+0.066*[#   9]+0.066*[#  13]+0.019*[#   3]
          +0.019*[#   4]+0.019*[#   7]+0.019*[#   8]+0.019*[#  11]+0.019*[#  12]
          +0.019*[#  15]+0.019*[#  16]
    |psi|^2 = 0.413
==== e(  15) =    12.36317 eV ==== 
     psi = 0.021*[#   1]+0.021*[#   5]+0.021*[#   9]+0.021*[#  13]+0.010*[#   3]
          +0.010*[#   4]+0.010*[#   7]+0.010*[#   8]+0.010*[#  11]+0.010*[#  12]
          +0.010*[#  15]+0.010*[#  16]
    |psi|^2 = 0.168
==== e(  16) =    12.54632 eV ==== 
     psi = 0.028*[#   1]+0.028*[#   5]+0.028*[#   9]+0.028*[#  13]+0.010*[#   3]
          +0.010*[#   4]+0.010*[#   7]+0.010*[#   8]+0.010*[#  11]+0.010*[#  12]
          +0.010*[#  15]+0.010*[#  16]
    |psi|^2 = 0.189

 k =   0.3000000000  0.5773502692  0.0000000000
==== e(   1) =   -13.52038 eV ==== 
     psi = 0.121*[#   9]+0.121*[#  13]+0.121*[#   1]+0.121*[#   5]+0.064*[#  11]
          +0.064*[#  12]+0.064*[#  15]+0.064*[#  16]+0.064*[#   3]+0.064*[#   4]
          +0.064*[#   7]+0.064*[#   8]
    |psi|^2 = 0.993
==== e(   2) =   -13.44765 eV ==== 
     psi = 0.122*[#   1]+0.122*[#   5]+0.121*[#   9]+0.121*[#  13]+0.064*[#   3]
          +0.064*[#   4]+0.064*[#   7]+0.064*[#   8]+0.063*[#  11]+0.063*[#  12]
          +0.063*[#  15]+0.063*[#  16]
    |psi|^2 = 0.995
==== e(   3) =   -12.98880 eV ==== 
     psi = 0.103*[#   9]+0.103*[#  13]+0.102*[#   1]+0.102*[#   5]+0.073*[#  11]
          +0.073*[#  12]+0.073*[#  15]+0.073*[#  16]+0.073*[#   3]+0.073*[#   4]
          +0.073*[#   7]+0.073*[#   8]
    |psi|^2 = 0.992
==== e(   4) =   -12.92068 eV ==== 
     psi = 0.103*[#   1]+0.103*[#   5]+0.103*[#   9]+0.103*[#  13]+0.073*[#   3]
          +0.073*[#   4]+0.073*[#   7]+0.073*[#   8]+0.073*[#  11]+0.073*[#  12]
          +0.073*[#  15]+0.073*[#  16]
    |psi|^2 = 0.993
==== e(   5) =   -10.98895 eV ==== 
     psi = 0.120*[#  11]+0.120*[#  12]+0.120*[#  15]+0.120*[#  16]+0.120*[#   3]
          +0.120*[#   4]+0.120*[#   7]+0.120*[#   8]+0.006*[#   1]+0.006*[#   5]
          +0.006*[#   9]+0.006*[#  13]
    |psi|^2 = 0.981
==== e(   6) =   -10.93979 eV ==== 
     psi = 0.120*[#   3]+0.120*[#   4]+0.120*[#   7]+0.120*[#   8]+0.120*[#  11]
          +0.120*[#  12]+0.120*[#  15]+0.120*[#  16]+0.006*[#   1]+0.006*[#   5]
          +0.006*[#   9]+0.006*[#  13]
    |psi|^2 = 0.984
==== e(   7) =    -1.28479 eV ==== 
     psi = 0.249*[#   2]+0.249*[#   6]+0.249*[#  10]+0.249*[#  14]
    |psi|^2 = 0.995
==== e(   8) =    -0.71699 eV ==== 
     psi = 0.249*[#   2]+0.249*[#   6]+0.249*[#  10]+0.249*[#  14]
    |psi|^2 = 0.995
==== e(   9) =    -0.40504 eV ==== 
     psi = 0.248*[#   2]+0.248*[#   6]+0.248*[#  10]+0.248*[#  14]
    |psi|^2 = 0.991
==== e(  10) =     0.15135 eV ==== 
     psi = 0.248*[#   2]+0.248*[#   6]+0.248*[#  10]+0.248*[#  14]
    |psi|^2 = 0.992
==== e(  11) =     9.09151 eV ==== 

    |psi|^2 = 0.002
==== e(  12) =    10.76748 eV ==== 

    |psi|^2 = 0.004
==== e(  13) =    11.61351 eV ==== 
     psi = 0.034*[#   1]+0.034*[#   5]+0.034*[#   9]+0.034*[#  13]+0.010*[#   3]
          +0.010*[#   4]+0.010*[#   7]+0.010*[#   8]+0.010*[#  11]+0.010*[#  12]
          +0.010*[#  15]+0.010*[#  16]
    |psi|^2 = 0.217
==== e(  14) =    11.77524 eV ==== 
     psi = 0.055*[#   1]+0.055*[#   5]+0.055*[#   9]+0.055*[#  13]+0.015*[#   3]
          +0.015*[#   4]+0.015*[#   7]+0.015*[#   8]+0.015*[#  11]+0.015*[#  12]
          +0.015*[#  15]+0.015*[#  16]
    |psi|^2 = 0.340
==== e(  15) =    12.34657 eV ==== 
     psi = 0.020*[#   1]+0.020*[#   5]+0.020*[#   9]+0.020*[#  13]+0.009*[#   3]
          +0.009*[#   4]+0.009*[#   7]+0.009*[#   8]+0.009*[#  11]+0.009*[#  12]
          +0.009*[#  15]+0.009*[#  16]
    |psi|^2 = 0.152
==== e(  16) =    12.66225 eV ==== 
     psi = 0.026*[#   1]+0.026*[#   5]+0.026*[#   9]+0.026*[#  13]+0.009*[#   3]
          +0.009*[#   4]+0.009*[#   7]+0.009*[#   8]+0.009*[#  11]+0.009*[#  12]
          +0.009*[#  15]+0.009*[#  16]
    |psi|^2 = 0.176

 k =   0.3166666667  0.5484827557  0.0000000000
==== e(   1) =   -13.62625 eV ==== 
     psi = 0.117*[#   9]+0.117*[#  13]+0.117*[#   1]+0.117*[#   5]+0.065*[#  11]
          +0.065*[#  12]+0.065*[#  15]+0.065*[#  16]+0.065*[#   3]+0.065*[#   4]
          +0.065*[#   7]+0.065*[#   8]
    |psi|^2 = 0.992
==== e(   2) =   -13.55314 eV ==== 
     psi = 0.118*[#   1]+0.118*[#   5]+0.118*[#   9]+0.118*[#  13]+0.065*[#   3]
          +0.065*[#   4]+0.065*[#   7]+0.065*[#   8]+0.065*[#  11]+0.065*[#  12]
          +0.065*[#  15]+0.065*[#  16]
    |psi|^2 = 0.994
==== e(   3) =   -12.85195 eV ==== 
     psi = 0.108*[#   9]+0.108*[#  13]+0.108*[#   1]+0.108*[#   5]+0.070*[#  11]
          +0.070*[#  12]+0.070*[#  15]+0.070*[#  16]+0.070*[#   3]+0.070*[#   4]
          +0.070*[#   7]+0.070*[#   8]
    |psi|^2 = 0.993
==== e(   4) =   -12.78434 eV ==== 
     psi = 0.109*[#   1]+0.109*[#   5]+0.108*[#   9]+0.108*[#  13]+0.070*[#   3]
          +0.070*[#   4]+0.070*[#   7]+0.070*[#   8]+0.070*[#  11]+0.070*[#  12]
          +0.070*[#  15]+0.070*[#  16]
    |psi|^2 = 0.995
==== e(   5) =   -11.01856 eV ==== 
     psi = 0.121*[#  11]+0.121*[#  12]+0.121*[#  15]+0.121*[#  16]+0.121*[#   3]
          +0.121*[#   4]+0.121*[#   7]+0.121*[#   8]+0.004*[#   1]+0.004*[#   5]
          +0.004*[#   9]+0.004*[#  13]
    |psi|^2 = 0.980
==== e(   6) =   -10.96935 eV ==== 
     psi = 0.121*[#   3]+0.121*[#   4]+0.121*[#   7]+0.121*[#   8]+0.121*[#  11]
          +0.121*[#  12]+0.121*[#  15]+0.121*[#  16]+0.004*[#   1]+0.004*[#   5]
          +0.004*[#   9]+0.004*[#  13]
    |psi|^2 = 0.984
==== e(   7) =    -1.33631 eV ==== 
     psi = 0.249*[#   2]+0.249*[#   6]+0.249*[#  10]+0.249*[#  14]
    |psi|^2 = 0.994
==== e(   8) =    -0.76325 eV ==== 
     psi = 0.249*[#   2]+0.249*[#   6]+0.249*[#  10]+0.249*[#  14]
    |psi|^2 = 0.995
==== e(   9) =    -0.34899 eV ==== 
     psi = 0.248*[#   2]+0.248*[#   6]+0.248*[#  10]+0.248*[#  14]
    |psi|^2 = 0.991
==== e(  10) =     0.20117 eV ==== 
     psi = 0.248*[#   2]+0.248*[#   6]+0.248*[#  10]+0.248*[#  14]
    |psi|^2 = 0.992
==== e(  11) =     9.08568 eV ==== 

    |psi|^2 = 0.002
==== e(  12) =    10.74291 eV ==== 

    |psi|^2 = 0.003
==== e(  13) =    11.40735 eV ==== 
     psi = 0.025*[#   1]+0.025*[#   5]+0.025*[#   9]+0.025*[#  13]+0.007*[#   3]
          +0.007*[#   4]+0.007*[#   7]+0.007*[#   8]+0.007*[#  11]+0.007*[#  12]
          +0.007*[#  15]+0.007*[#  16]
    |psi|^2 = 0.156
==== e(  14) =    11.94258 eV ==== 
     psi = 0.068*[#   1]+0.068*[#   5]+0.067*[#   9]+0.067*[#  13]+0.020*[#   3]
          +0.020*[#   4]+0.020*[#   7]+0.020*[#   8]+0.020*[#  11]+0.020*[#  12]
          +0.020*[#  15]+0.020*[#  16]
    |psi|^2 = 0.427
==== e(  15) =    12.42767 eV ==== 
     psi = 0.018*[#   1]+0.018*[#   5]+0.018*[#   9]+0.018*[#  13]+0.009*[#   3]
          +0.009*[#   4]+0.009*[#   7]+0.009*[#   8]+0.009*[#  11]+0.009*[#  12]
          +0.009*[#  15]+0.009*[#  16]
    |psi|^2 = 0.147
==== e(  16) =    12.57067 eV ==== 
     psi = 0.027*[#   1]+0.027*[#   5]+0.027*[#   9]+0.027*[#  13]+0.010*[#   3]
          +0.010*[#   4]+0.010*[#   7]+0.010*[#   8]+0.010*[#  11]+0.010*[#  12]
          +0.010*[#  15]+0.010*[#  16]
    |psi|^2 = 0.186

 k =   0.3166666667  0.5677277647  0.0000000000
==== e(   1) =   -13.41027 eV ==== 
     psi = 0.117*[#   9]+0.117*[#  13]+0.117*[#   1]+0.117*[#   5]+0.066*[#  11]
          +0.066*[#  12]+0.066*[#  15]+0.066*[#  16]+0.065*[#   3]+0.065*[#   4]
          +0.065*[#   7]+0.065*[#   8]
    |psi|^2 = 0.993
==== e(   2) =   -13.33849 eV ==== 
     psi = 0.118*[#   1]+0.118*[#   5]+0.118*[#   9]+0.118*[#  13]+0.065*[#   3]
          +0.065*[#   4]+0.065*[#   7]+0.065*[#   8]+0.065*[#  11]+0.065*[#  12]
          +0.065*[#  15]+0.065*[#  16]
    |psi|^2 = 0.994
==== e(   3) =   -13.02546 eV ==== 
     psi = 0.110*[#   9]+0.110*[#  13]+0.110*[#   1]+0.110*[#   5]+0.069*[#  11]
          +0.069*[#  12]+0.069*[#  15]+0.069*[#  16]+0.069*[#   3]+0.069*[#   4]
          +0.069*[#   7]+0.069*[#   8]
    |psi|^2 = 0.993
==== e(   4) =   -12.95631 eV ==== 
     psi = 0.111*[#   1]+0.111*[#   5]+0.110*[#   9]+0.110*[#  13]+0.069*[#   3]
          +0.069*[#   4]+0.069*[#   7]+0.069*[#   8]+0.069*[#  11]+0.069*[#  12]
          +0.069*[#  15]+0.069*[#  16]
    |psi|^2 = 0.994
==== e(   5) =   -11.08816 eV ==== 
     psi = 0.122*[#  11]+0.122*[#  12]+0.122*[#  15]+0.122*[#  16]+0.121*[#   3]
          +0.121*[#   4]+0.121*[#   7]+0.121*[#   8]+0.002*[#   1]+0.002*[#   5]
          +0.002*[#   9]+0.002*[#  13]
    |psi|^2 = 0.980
==== e(   6) =   -11.03861 eV ==== 
     psi = 0.122*[#   3]+0.122*[#   4]+0.122*[#   7]+0.122*[#   8]+0.122*[#  11]
          +0.122*[#  12]+0.122*[#  15]+0.122*[#  16]+0.002*[#   1]+0.002*[#   5]
          +0.002*[#   9]+0.002*[#  13]
    |psi|^2 = 0.983
==== e(   7) =    -1.11050 eV ==== 
     psi = 0.248*[#   2]+0.248*[#   6]+0.249*[#  10]+0.249*[#  14]
    |psi|^2 = 0.994
==== e(   8) =    -0.57006 eV ==== 
     psi = 0.248*[#   2]+0.248*[#   6]+0.248*[#  10]+0.248*[#  14]
    |psi|^2 = 0.992
==== e(   9) =    -0.54523 eV ==== 
     psi = 0.249*[#   2]+0.249*[#   6]+0.249*[#  10]+0.249*[#  14]
    |psi|^2 = 0.994
==== e(  10) =    -0.01508 eV ==== 
     psi = 0.248*[#   2]+0.248*[#   6]+0.248*[#  10]+0.248*[#  14]
    |psi|^2 = 0.993
==== e(  11) =     9.05058 eV ==== 

    |psi|^2 = 0.001
==== e(  12) =    10.75752 eV ==== 

    |psi|^2 = 0.003
==== e(  13) =    11.65819 eV ==== 
     psi = 0.038*[#   1]+0.038*[#   5]+0.037*[#   9]+0.037*[#  13]+0.011*[#   3]
          +0.011*[#   4]+0.011*[#   7]+0.011*[#   8]+0.011*[#  11]+0.011*[#  12]
          +0.011*[#  15]+0.011*[#  16]
    |psi|^2 = 0.237
==== e(  14) =    11.86687 eV ==== 
     psi = 0.057*[#   9]+0.057*[#  13]+0.057*[#   1]+0.057*[#   5]+0.017*[#   3]
          +0.017*[#   4]+0.017*[#   7]+0.017*[#   8]+0.017*[#  11]+0.017*[#  12]
          +0.017*[#  15]+0.017*[#  16]
    |psi|^2 = 0.361
==== e(  15) =    12.43496 eV ==== 
     psi = 0.008*[#   1]+0.008*[#   5]+0.008*[#   9]+0.008*[#  13]+0.005*[#   3]
          +0.005*[#   4]+0.005*[#   7]+0.005*[#   8]+0.005*[#  11]+0.005*[#  12]
          +0.005*[#  15]+0.005*[#  16]
    |psi|^2 = 0.071
==== e(  16) =    12.75305 eV ==== 
     psi = 0.036*[#   1]+0.036*[#   5]+0.036*[#   9]+0.036*[#  13]+0.012*[#   3]
          +0.012*[#   4]+0.012*[#   7]+0.012*[#   8]+0.012*[#  11]+0.012*[#  12]
          +0.012*[#  15]+0.012*[#  16]
    |psi|^2 = 0.242

 k =   0.3333333333  0.5773502692  0.0000000000
==== e(   1) =   -13.20264 eV ==== 
     psi = 0.115*[#   9]+0.115*[#  13]+0.114*[#   1]+0.114*[#   5]+0.067*[#  11]
          +0.067*[#  12]+0.067*[#  15]+0.067*[#  16]+0.067*[#   3]+0.067*[#   4]
          +0.067*[#   7]+0.067*[#   8]
    |psi|^2 = 0.993
==== e(   2) =   -13.20260 eV ==== 
     psi = 0.115*[#   9]+0.115*[#  13]+0.114*[#   1]+0.114*[#   5]+0.067*[#  11]
          +0.067*[#  12]+0.067*[#  15]+0.067*[#  16]+0.067*[#   3]+0.067*[#   4]
          +0.067*[#   7]+0.067*[#   8]
    |psi|^2 = 0.993
==== e(   3) =   -13.13205 eV ==== 
     psi = 0.115*[#   1]+0.115*[#   5]+0.115*[#   9]+0.115*[#  13]+0.067*[#   3]
          +0.067*[#   4]+0.067*[#   7]+0.067*[#   8]+0.067*[#  11]+0.067*[#  12]
          +0.067*[#  15]+0.067*[#  16]
    |psi|^2 = 0.995
==== e(   4) =   -13.13201 eV ==== 
     psi = 0.115*[#   1]+0.115*[#   5]+0.115*[#   9]+0.115*[#  13]+0.067*[#   3]
          +0.067*[#   4]+0.067*[#   7]+0.067*[#   8]+0.067*[#  11]+0.067*[#  12]
          +0.067*[#  15]+0.067*[#  16]
    |psi|^2 = 0.995
==== e(   5) =   -11.13179 eV ==== 
     psi = 0.123*[#  11]+0.123*[#  12]+0.123*[#  15]+0.123*[#  16]+0.122*[#   3]
          +0.122*[#   4]+0.122*[#   7]+0.122*[#   8]
    |psi|^2 = 0.979
==== e(   6) =   -11.08195 eV ==== 
     psi = 0.123*[#   3]+0.123*[#   4]+0.123*[#   7]+0.123*[#   8]+0.123*[#  11]
          +0.123*[#  12]+0.123*[#  15]+0.123*[#  16]
    |psi|^2 = 0.983
==== e(   7) =    -0.83830 eV ==== 
     psi = 0.248*[#   2]+0.248*[#   6]+0.248*[#  10]+0.248*[#  14]
    |psi|^2 = 0.993
==== e(   8) =    -0.83827 eV ==== 
     psi = 0.248*[#   2]+0.248*[#   6]+0.248*[#  10]+0.248*[#  14]
    |psi|^2 = 0.993
==== e(   9) =    -0.27903 eV ==== 
     psi = 0.248*[#   2]+0.248*[#   6]+0.248*[#  10]+0.248*[#  14]
    |psi|^2 = 0.994
==== e(  10) =    -0.27900 eV ==== 
     psi = 0.248*[#   2]+0.248*[#   6]+0.248*[#  10]+0.248*[#  14]
    |psi|^2 = 0.994
==== e(  11) =     9.03137 eV ==== 

    |psi|^2 = 0.001
==== e(  12) =    10.75730 eV ==== 

    |psi|^2 = 0.003
==== e(  13) =    11.80586 eV ==== 
     psi = 0.049*[#   1]+0.049*[#   5]+0.049*[#   9]+0.049*[#  13]+0.014*[#   3]
          +0.014*[#   4]+0.014*[#   7]+0.014*[#   8]+0.014*[#  11]+0.014*[#  12]
          +0.014*[#  15]+0.014*[#  16]
    |psi|^2 = 0.312
==== e(  14) =    11.80588 eV ==== 
     psi = 0.049*[#   1]+0.049*[#   5]+0.049*[#   9]+0.049*[#  13]+0.014*[#   3]
          +0.014*[#   4]+0.014*[#   7]+0.014*[#   8]+0.014*[#  11]+0.014*[#  12]
          +0.014*[#  15]+0.014*[#  16]
    |psi|^2 = 0.312
==== e(  15) =    12.45353 eV ==== 
     psi = 0.002*[#   3]+0.002*[#   4]+0.002*[#   7]+0.002*[#   8]+0.002*[#  11]
          +0.002*[#  12]+0.002*[#  15]+0.002*[#  16]
    |psi|^2 = 0.014
==== e(  16) =    12.89234 eV ==== 
     psi = 0.050*[#   1]+0.050*[#   5]+0.050*[#   9]+0.050*[#  13]+0.017*[#   3]
          +0.017*[#   4]+0.017*[#   7]+0.017*[#   8]+0.017*[#  11]+0.017*[#  12]
          +0.017*[#  15]+0.017*[#  16]
    |psi|^2 = 0.338

Lowdin Charges: 

     Atom #   1: total charge =   3.9613, s =  0.8882, 
     Atom #   1: total charge =   3.9613, p =  3.0731, pz=  0.9903, px=  1.0414, py=  1.0414, 
     Atom #   2: total charge =   3.9613, s =  0.8882, 
     Atom #   2: total charge =   3.9613, p =  3.0731, pz=  0.9903, px=  1.0414, py=  1.0414, 
     Atom #   3: total charge =   3.9613, s =  0.8882, 
     Atom #   3: total charge =   3.9613, p =  3.0731, pz=  0.9903, px=  1.0414, py=  1.0414, 
     Atom #   4: total charge =   3.9613, s =  0.8882, 
     Atom #   4: total charge =   3.9613, p =  3.0731, pz=  0.9903, px=  1.0414, py=  1.0414, 
     Spilling Parameter:   0.0097

     PROJWFC      :     11.82s CPU     12.23s WALL


   This run was terminated on:  10:12: 9  16Apr2024            

=------------------------------------------------------------------------------=
   JOB DONE.
=------------------------------------------------------------------------------=
