 CRYSTAL
 PRIMVEC
    2.468585230    0.000000000    0.000000000
   -1.234292615    2.137857521    0.000000000
    0.000000000    0.000000000   19.748681840
 PRIMCOORD
           4           1
C         0.000000000    0.000000000    0.000000000
C         1.234293849    0.712618461    0.000000000
C         0.000000000    0.000000000    3.486906260
C         1.234293849    0.712618461    3.486906260
BEGIN_BLOCK_DATAGRID_3D
3D_PWSCF
BEGIN_DATAGRID_3D_UNKNOWN
          25          25         193
  0.000000  0.000000  0.000000
    2.468585    0.000000    0.000000
   -1.234293    2.137858    0.000000
    0.000000    0.000000   19.748682
  0.338243E-07  0.169388E-06  0.443190E-06  0.630340E-06  0.656722E-06  0.593375E-06
  0.519666E-06  0.459671E-06  0.404498E-06  0.350327E-06  0.307140E-06  0.283281E-06
  0.276508E-06  0.283280E-06  0.307140E-06  0.350327E-06  0.404498E-06  0.459671E-06
  0.519665E-06  0.593374E-06  0.656721E-06  0.630339E-06  0.443189E-06  0.169388E-06
  0.338243E-07  0.169388E-06  0.169388E-06  0.387607E-06  0.621541E-06  0.717901E-06
  0.691567E-06  0.625493E-06  0.566022E-06  0.513463E-06  0.459671E-06  0.411034E-06
  0.379585E-06  0.367025E-06  0.367025E-06  0.379585E-06  0.411034E-06  0.459671E-06
  0.513464E-06  0.566022E-06  0.625492E-06  0.691567E-06  0.717900E-06  0.621541E-06
  0.387607E-06  0.169388E-06  0.443190E-06  0.353932E-06  0.443189E-06  0.621541E-06
  0.740212E-06  0.753566E-06  0.709939E-06  0.659083E-06  0.613116E-06  0.566021E-06
  0.519665E-06  0.485015E-06  0.468017E-06  0.463893E-06  0.468017E-06  0.485014E-06
  0.519665E-06  0.566021E-06  0.613116E-06  0.659083E-06  0.709938E-06  0.753566E-06
  0.740212E-06  0.621541E-06  0.443190E-06  0.630340E-06  0.548137E-06  0.548137E-06
  0.630339E-06  0.717900E-06  0.753566E-06  0.743390E-06  0.717140E-06  0.689349E-06
  0.659082E-06  0.625491E-06  0.593375E-06  0.569000E-06  0.556280E-06  0.556279E-06
  0.568999E-06  0.593374E-06  0.625491E-06  0.659081E-06  0.689349E-06  0.717140E-06
  0.743390E-06  0.753566E-06  0.717901E-06  0.630340E-06  0.656722E-06  0.615898E-06
  0.596866E-06  0.615898E-06  0.656721E-06  0.691567E-06  0.709938E-06  0.717140E-06
  0.719023E-06  0.717138E-06  0.709936E-06  0.691566E-06  0.656722E-06  0.615898E-06
  0.596866E-06  0.615897E-06  0.656721E-06  0.691565E-06  0.709936E-06  0.717138E-06
  0.719023E-06  0.717140E-06  0.709939E-06  0.691567E-06  0.656722E-06  0.593375E-06
  0.569000E-06  0.556280E-06  0.556279E-06  0.568999E-06  0.593374E-06  0.625492E-06
  0.659083E-06  0.689349E-06  0.717138E-06  0.743388E-06  0.753564E-06  0.717900E-06
  0.630339E-06  0.548136E-06  0.548136E-06  0.630339E-06  0.717899E-06  0.753564E-06
  0.743388E-06  0.717138E-06  0.689349E-06  0.659083E-06  0.625493E-06  0.593375E-06
  0.519666E-06  0.485014E-06  0.468017E-06  0.463893E-06  0.468016E-06  0.485014E-06
  0.519665E-06  0.566022E-06  0.613116E-06  0.659081E-06  0.709936E-06  0.753564E-06
  0.740211E-06  0.621541E-06  0.443189E-06  0.353931E-06  0.443188E-06  0.621541E-06
  0.740211E-06  0.753564E-06  0.709936E-06  0.659082E-06  0.613116E-06  0.566022E-06
  0.519666E-06  0.459671E-06  0.411034E-06  0.379584E-06  0.367025E-06  0.367025E-06
  0.379584E-06  0.411034E-06  0.459671E-06  0.513464E-06  0.566021E-06  0.625491E-06
  0.691565E-06  0.717899E-06  0.621541E-06  0.387606E-06  0.169387E-06  0.169387E-06
  0.387606E-06  0.621541E-06  0.717900E-06  0.691566E-06  0.625491E-06  0.566021E-06
  0.513463E-06  0.459671E-06  0.404498E-06  0.350327E-06  0.307140E-06  0.283281E-06
  0.276508E-06  0.283280E-06  0.307140E-06  0.350327E-06  0.404498E-06  0.459671E-06
  0.519665E-06  0.593374E-06  0.656721E-06  0.630339E-06  0.443188E-06  0.169387E-06
  0.338227E-07  0.169387E-06  0.443189E-06  0.630339E-06  0.656722E-06  0.593375E-06
  0.519665E-06  0.459671E-06  0.404498E-06  0.350327E-06  0.294675E-06  0.246762E-06
  0.215050E-06  0.201223E-06  0.201223E-06  0.215050E-06  0.246762E-06  0.294675E-06
  0.350327E-06  0.411034E-06  0.485014E-06  0.568999E-06  0.615897E-06  0.548136E-06
  0.353931E-06  0.169387E-06  0.169387E-06  0.353931E-06  0.548136E-06  0.615898E-06
  0.569000E-06  0.485015E-06  0.411034E-06  0.350327E-06  0.307140E-06  0.246761E-06
  0.196445E-06  0.160693E-06  0.141878E-06  0.136552E-06  0.141877E-06  0.160693E-06
  0.196445E-06  0.246761E-06  0.307140E-06  0.379585E-06  0.468017E-06  0.556279E-06
  0.596866E-06  0.548136E-06  0.443189E-06  0.387606E-06  0.443188E-06  0.548136E-06
  0.596866E-06  0.556280E-06  0.468017E-06  0.379585E-06  0.307140E-06  0.283281E-06
  0.215050E-06  0.160693E-06  0.121497E-06  0.986033E-07  0.892232E-07  0.892228E-07
  0.986024E-07  0.121496E-06  0.160692E-06  0.215050E-06  0.283280E-06  0.367025E-06
  0.463893E-06  0.556280E-06  0.615898E-06  0.630339E-06  0.621541E-06  0.621541E-06
  0.630339E-06  0.615897E-06  0.556279E-06  0.463893E-06  0.367025E-06  0.283281E-06
  0.276508E-06  0.201223E-06  0.141878E-06  0.986036E-07  0.711999E-07  0.574271E-07
  0.534989E-07  0.574263E-07  0.711988E-07  0.986027E-07  0.141878E-06  0.201223E-06
  0.276508E-06  0.367025E-06  0.468017E-06  0.569000E-06  0.656722E-06  0.717900E-06
  0.740211E-06  0.717899E-06  0.656721E-06  0.568999E-06  0.468017E-06  0.367025E-06
  0.276508E-06  0.283280E-06  0.201223E-06  0.136553E-06  0.892240E-07  0.574279E-07
  0.387838E-07  0.305550E-07  0.305547E-07  0.387831E-07  0.574272E-07  0.892236E-07
  0.136553E-06  0.201223E-06  0.283281E-06  0.379585E-06  0.485015E-06  0.593375E-06
  0.691566E-06  0.753564E-06  0.753564E-06  0.691565E-06  0.593374E-06  0.485014E-06
  0.379585E-06  0.283280E-06  0.307140E-06  0.215050E-06  0.141878E-06  0.892236E-07
  0.535002E-07  0.305559E-07  0.178056E-07  0.137543E-07  0.178053E-07  0.305556E-07
  0.535002E-07  0.892240E-07  0.141878E-06  0.215050E-06  0.307140E-06  0.411034E-06
  0.519665E-06  0.625491E-06  0.709936E-06  0.743388E-06  0.709936E-06  0.625491E-06
  0.519665E-06  0.411034E-06  0.307140E-06  0.350327E-06  0.246761E-06  0.160692E-06
  0.986027E-07  0.574272E-07  0.305556E-07  0.137547E-07  0.556308E-08  0.556303E-08
  0.137547E-07  0.305559E-07  0.574279E-07  0.986036E-07  0.160693E-06  0.246761E-06
  0.350327E-06  0.459671E-06  0.566021E-06  0.659082E-06  0.717138E-06  0.717138E-06
  0.659081E-06  0.566021E-06  0.459671E-06  0.350327E-06  0.404498E-06  0.294675E-06
  0.196445E-06  0.121496E-06  0.711988E-07  0.387831E-07  0.178053E-07  0.556303E-08
  0.150942E-08  0.556308E-08  0.178056E-07  0.387838E-07  0.711999E-07  0.121497E-06
  0.196445E-06  0.294675E-06  0.404498E-06  0.513463E-06  0.613116E-06  0.689349E-06
  0.719023E-06  0.689349E-06  0.613116E-06  0.513464E-06  0.404498E-06  0.459671E-06
  0.350327E-06  0.246762E-06  0.160693E-06  0.986024E-07  0.574263E-07  0.305547E-07
  0.137543E-07  0.556308E-08  0.556303E-08  0.137543E-07  0.305550E-07  0.574271E-07
  0.986033E-07  0.160693E-06  0.246762E-06  0.350327E-06  0.459671E-06  0.566022E-06
  0.659083E-06  0.717140E-06  0.717140E-06  0.659083E-06  0.566022E-06  0.459671E-06
  0.519665E-06  0.411034E-06  0.307140E-06  0.215050E-06  0.141877E-06  0.892228E-07
  0.534989E-07  0.305550E-07  0.178056E-07  0.137547E-07  0.178053E-07  0.305547E-07
  0.534989E-07  0.892232E-07  0.141878E-06  0.215050E-06  0.307140E-06  0.411034E-06
  0.519666E-06  0.625493E-06  0.709939E-06  0.743390E-06  0.709938E-06  0.625492E-06
  0.519665E-06  0.593374E-06  0.485014E-06  0.379584E-06  0.283280E-06  0.201223E-06
  0.136552E-06  0.892232E-07  0.574271E-07  0.387838E-07  0.305559E-07  0.305556E-07
  0.387831E-07  0.574263E-07  0.892228E-07  0.136552E-06  0.201223E-06  0.283281E-06
  0.379584E-06  0.485014E-06  0.593375E-06  0.691567E-06  0.753566E-06  0.753566E-06
  0.691567E-06  0.593374E-06  0.656721E-06  0.568999E-06  0.468016E-06  0.367025E-06
  0.276508E-06  0.201223E-06  0.141878E-06  0.986033E-07  0.711999E-07  0.574279E-07
  0.535002E-07  0.574272E-07  0.711988E-07  0.986024E-07  0.141877E-06  0.201223E-06
  0.276508E-06  0.367025E-06  0.468017E-06  0.569000E-06  0.656722E-06  0.717901E-06
  0.740212E-06  0.717900E-06  0.656721E-06  0.630339E-06  0.615898E-06  0.556279E-06
  0.463893E-06  0.367025E-06  0.283281E-06  0.215050E-06  0.160693E-06  0.121497E-06
  0.986036E-07  0.892240E-07  0.892236E-07  0.986027E-07  0.121496E-06  0.160693E-06
  0.215050E-06  0.283280E-06  0.367025E-06  0.463893E-06  0.556280E-06  0.615898E-06
  0.630340E-06  0.621541E-06  0.621541E-06  0.630339E-06  0.443189E-06  0.548137E-06
  0.596866E-06  0.556280E-06  0.468017E-06  0.379584E-06  0.307140E-06  0.246762E-06
  0.196445E-06  0.160693E-06  0.141878E-06  0.136553E-06  0.141878E-06  0.160692E-06
  0.196445E-06  0.246762E-06  0.307140E-06  0.379584E-06  0.468016E-06  0.556279E-06
  0.596866E-06  0.548137E-06  0.443190E-06  0.387607E-06  0.443189E-06  0.169388E-06
  0.353932E-06  0.548137E-06  0.615898E-06  0.569000E-06  0.485014E-06  0.411034E-06
  0.350327E-06  0.294675E-06  0.246761E-06  0.215050E-06  0.201223E-06  0.201223E-06
  0.215050E-06  0.246761E-06  0.294675E-06  0.350327E-06  0.411034E-06  0.485014E-06
  0.568999E-06  0.615898E-06  0.548137E-06  0.353932E-06  0.169388E-06  0.169388E-06
  0.338243E-07  0.169388E-06  0.443190E-06  0.630340E-06  0.656722E-06  0.593375E-06
  0.519666E-06  0.459671E-06  0.404498E-06  0.350327E-06  0.307140E-06  0.283281E-06
  0.276508E-06  0.283280E-06  0.307140E-06  0.350327E-06  0.404498E-06  0.459671E-06
  0.519665E-06  0.593374E-06  0.656721E-06  0.630339E-06  0.443189E-06  0.169388E-06
  0.338243E-07  0.735069E-03  0.650275E-03  0.456297E-03  0.265925E-03  0.140682E-03
  0.762162E-04  0.464513E-04  0.325225E-04  0.258094E-04  0.229781E-04  0.222990E-04
  0.224686E-04  0.226236E-04  0.224691E-04  0.222998E-04  0.229789E-04  0.258102E-04
  0.325233E-04  0.464523E-04  0.762173E-04  0.140683E-03  0.265925E-03  0.456297E-03
  0.650275E-03  0.735069E-03  0.650275E-03  0.650275E-03  0.513062E-03  0.329215E-03
  0.184358E-03  0.100979E-03  0.609693E-04  0.429774E-04  0.351094E-04  0.325224E-04
  0.330545E-04  0.349361E-04  0.364449E-04  0.364452E-04  0.349368E-04  0.330554E-04
  0.325233E-04  0.351103E-04  0.429782E-04  0.609703E-04  0.100980E-03  0.184358E-03
  0.329215E-03  0.513062E-03  0.650275E-03  0.456297E-03  0.511516E-03  0.456297E-03
  0.329215E-03  0.202787E-03  0.117738E-03  0.729089E-04  0.524159E-04  0.442626E-04
  0.429776E-04  0.464513E-04  0.528080E-04  0.590049E-04  0.615979E-04  0.590055E-04
  0.528089E-04  0.464523E-04  0.429785E-04  0.442634E-04  0.524166E-04  0.729095E-04
  0.117739E-03  0.202787E-03  0.329215E-03  0.456297E-03  0.265925E-03  0.325593E-03
  0.325594E-03  0.265925E-03  0.184358E-03  0.117739E-03  0.776257E-04  0.581736E-04
  0.511931E-04  0.524165E-04  0.609698E-04  0.762161E-04  0.942316E-04  0.106942E-03
  0.106942E-03  0.942325E-04  0.762172E-04  0.609707E-04  0.524173E-04  0.511936E-04
  0.581738E-04  0.776257E-04  0.117738E-03  0.184358E-03  0.265925E-03  0.140682E-03
  0.178988E-03  0.195294E-03  0.178989E-03  0.140683E-03  0.100980E-03  0.729095E-04
  0.581738E-04  0.538071E-04  0.581744E-04  0.729098E-04  0.100980E-03  0.140682E-03
  0.178988E-03  0.195294E-03  0.178989E-03  0.140683E-03  0.100981E-03  0.729104E-04
  0.581747E-04  0.538071E-04  0.581736E-04  0.729089E-04  0.100979E-03  0.140682E-03
  0.762162E-04  0.942321E-04  0.106943E-03  0.106943E-03  0.942330E-04  0.762173E-04
  0.609703E-04  0.524166E-04  0.511936E-04  0.581747E-04  0.776268E-04  0.117739E-03
  0.184358E-03  0.265924E-03  0.325593E-03  0.325593E-03  0.265925E-03  0.184358E-03
  0.117739E-03  0.776268E-04  0.581744E-04  0.511931E-04  0.524159E-04  0.609693E-04
  0.762162E-04  0.464513E-04  0.528085E-04  0.590056E-04  0.615987E-04  0.590062E-04
  0.528094E-04  0.464523E-04  0.429782E-04  0.442634E-04  0.524173E-04  0.729104E-04
  0.117739E-03  0.202787E-03  0.329215E-03  0.456296E-03  0.511516E-03  0.456297E-03
  0.329215E-03  0.202787E-03  0.117739E-03  0.729098E-04  0.524165E-04  0.442626E-04
  0.429774E-04  0.464513E-04  0.325225E-04  0.330548E-04  0.349367E-04  0.364456E-04
  0.364459E-04  0.349374E-04  0.330557E-04  0.325233E-04  0.351103E-04  0.429785E-04
  0.609707E-04  0.100981E-03  0.184358E-03  0.329215E-03  0.513061E-03  0.650274E-03
  0.650274E-03  0.513061E-03  0.329215E-03  0.184358E-03  0.100980E-03  0.609698E-04
  0.429776E-04  0.351094E-04  0.325225E-04  0.258094E-04  0.229782E-04  0.222993E-04
  0.224690E-04  0.226241E-04  0.224695E-04  0.223001E-04  0.229790E-04  0.258102E-04
  0.325233E-04  0.464523E-04  0.762172E-04  0.140683E-03  0.265925E-03  0.456297E-03
  0.650274E-03  0.735068E-03  0.650274E-03  0.456296E-03  0.265924E-03  0.140682E-03
  0.762161E-04  0.464513E-04  0.325224E-04  0.258094E-04  0.229781E-04  0.177273E-04
  0.152639E-04  0.143133E-04  0.140316E-04  0.140318E-04  0.143141E-04  0.152647E-04
  0.177281E-04  0.229789E-04  0.330554E-04  0.528089E-04  0.942325E-04  0.178989E-03
  0.325593E-03  0.511516E-03  0.650274E-03  0.650274E-03  0.511516E-03  0.325593E-03
  0.178988E-03  0.942316E-04  0.528080E-04  0.330545E-04  0.229781E-04  0.222990E-04
  0.152638E-04  0.114577E-04  0.958158E-05  0.875749E-05  0.852466E-05  0.875809E-05
  0.958254E-05  0.114587E-04  0.152646E-04  0.222998E-04  0.349368E-04  0.590055E-04
  0.106942E-03  0.195294E-03  0.325593E-03  0.456296E-03  0.513061E-03  0.456297E-03
  0.325593E-03  0.195294E-03  0.106942E-03  0.590049E-04  0.349361E-04  0.222990E-04
  0.224686E-04  0.143131E-04  0.958147E-05  0.700554E-05  0.570029E-05  0.514394E-05
  0.514429E-05  0.570118E-05  0.700661E-05  0.958242E-05  0.143138E-04  0.224691E-04
  0.364452E-04  0.615979E-04  0.106942E-03  0.178988E-03  0.265924E-03  0.329215E-03
  0.329215E-03  0.265925E-03  0.178989E-03  0.106942E-03  0.615979E-04  0.364449E-04
  0.224686E-04  0.226236E-04  0.140312E-04  0.875717E-05  0.570004E-05  0.402874E-05
  0.318572E-05  0.292304E-05  0.318633E-05  0.402968E-05  0.570093E-05  0.875778E-05
  0.140315E-04  0.226236E-04  0.364449E-04  0.590049E-04  0.942316E-04  0.140682E-03
  0.184358E-03  0.202787E-03  0.184358E-03  0.140683E-03  0.942325E-04  0.590055E-04
  0.364452E-04  0.226236E-04  0.224691E-04  0.140315E-04  0.852424E-05  0.514343E-05
  0.318532E-05  0.210817E-05  0.161850E-05  0.161874E-05  0.210876E-05  0.318594E-05
  0.514378E-05  0.852424E-05  0.140312E-04  0.224686E-04  0.349361E-04  0.528080E-04
  0.762161E-04  0.100980E-03  0.117739E-03  0.117739E-03  0.100981E-03  0.762172E-04
  0.528089E-04  0.349368E-04  0.224691E-04  0.222998E-04  0.143138E-04  0.875778E-05
  0.514378E-05  0.292244E-05  0.161810E-05  0.927729E-06  0.710224E-06  0.927963E-06
  0.161835E-05  0.292244E-05  0.514343E-05  0.875717E-05  0.143131E-04  0.222990E-04
  0.330545E-04  0.464513E-04  0.609698E-04  0.729098E-04  0.776268E-04  0.729104E-04
  0.609707E-04  0.464523E-04  0.330554E-04  0.222998E-04  0.229789E-04  0.152646E-04
  0.958242E-05  0.570093E-05  0.318594E-05  0.161835E-05  0.710019E-06  0.295443E-06
  0.295478E-06  0.710019E-06  0.161810E-05  0.318532E-05  0.570004E-05  0.958147E-05
  0.152638E-04  0.229781E-04  0.325224E-04  0.429776E-04  0.524165E-04  0.581744E-04
  0.581747E-04  0.524173E-04  0.429785E-04  0.325233E-04  0.229789E-04  0.258102E-04
  0.177281E-04  0.114587E-04  0.700661E-05  0.402968E-05  0.210876E-05  0.927963E-06
  0.295478E-06  0.984374E-07  0.295443E-06  0.927729E-06  0.210817E-05  0.402874E-05
  0.700554E-05  0.114577E-04  0.177273E-04  0.258094E-04  0.351094E-04  0.442626E-04
  0.511931E-04  0.538071E-04  0.511936E-04  0.442634E-04  0.351103E-04  0.258102E-04
  0.325233E-04  0.229790E-04  0.152647E-04  0.958254E-05  0.570118E-05  0.318633E-05
  0.161874E-05  0.710224E-06  0.295443E-06  0.295478E-06  0.710224E-06  0.161850E-05
  0.318572E-05  0.570029E-05  0.958158E-05  0.152639E-04  0.229782E-04  0.325225E-04
  0.429774E-04  0.524159E-04  0.581736E-04  0.581738E-04  0.524166E-04  0.429782E-04
  0.325233E-04  0.464523E-04  0.330557E-04  0.223001E-04  0.143141E-04  0.875809E-05
  0.514429E-05  0.292304E-05  0.161850E-05  0.927729E-06  0.710019E-06  0.927963E-06
  0.161874E-05  0.292304E-05  0.514394E-05  0.875749E-05  0.143133E-04  0.222993E-04
  0.330548E-04  0.464513E-04  0.609693E-04  0.729089E-04  0.776257E-04  0.729095E-04
  0.609703E-04  0.464523E-04  0.762173E-04  0.528094E-04  0.349374E-04  0.224695E-04
  0.140318E-04  0.852466E-05  0.514394E-05  0.318572E-05  0.210817E-05  0.161810E-05
  0.161835E-05  0.210876E-05  0.318633E-05  0.514429E-05  0.852466E-05  0.140316E-04
  0.224690E-04  0.349367E-04  0.528085E-04  0.762162E-04  0.100979E-03  0.117738E-03
  0.117739E-03  0.100980E-03  0.762173E-04  0.140683E-03  0.942330E-04  0.590062E-04
  0.364459E-04  0.226241E-04  0.140316E-04  0.875749E-05  0.570029E-05  0.402874E-05
  0.318532E-05  0.292244E-05  0.318594E-05  0.402968E-05  0.570118E-05  0.875809E-05
  0.140318E-04  0.226241E-04  0.364456E-04  0.590056E-04  0.942321E-04  0.140682E-03
  0.184358E-03  0.202787E-03  0.184358E-03  0.140683E-03  0.265925E-03  0.178989E-03
  0.106943E-03  0.615987E-04  0.364456E-04  0.224690E-04  0.143133E-04  0.958158E-05
  0.700554E-05  0.570004E-05  0.514343E-05  0.514378E-05  0.570093E-05  0.700661E-05
  0.958254E-05  0.143141E-04  0.224695E-04  0.364459E-04  0.615987E-04  0.106943E-03
  0.178988E-03  0.265925E-03  0.329215E-03  0.329215E-03  0.265925E-03  0.456297E-03
  0.325594E-03  0.195294E-03  0.106943E-03  0.590056E-04  0.349367E-04  0.222993E-04
  0.152639E-04  0.114577E-04  0.958147E-05  0.875717E-05  0.852424E-05  0.875778E-05
  0.958242E-05  0.114587E-04  0.152647E-04  0.223001E-04  0.349374E-04  0.590062E-04
  0.106943E-03  0.195294E-03  0.325593E-03  0.456297E-03  0.513062E-03  0.456297E-03
  0.650275E-03  0.511516E-03  0.325593E-03  0.178988E-03  0.942321E-04  0.528085E-04
  0.330548E-04  0.229782E-04  0.177273E-04  0.152638E-04  0.143131E-04  0.140312E-04
  0.140315E-04  0.143138E-04  0.152646E-04  0.177281E-04  0.229790E-04  0.330557E-04
  0.528094E-04  0.942330E-04  0.178989E-03  0.325594E-03  0.511516E-03  0.650275E-03
  0.650275E-03  0.735069E-03  0.650275E-03  0.456297E-03  0.265925E-03  0.140682E-03
  0.762162E-04  0.464513E-04  0.325225E-04  0.258094E-04  0.229781E-04  0.222990E-04
  0.224686E-04  0.226236E-04  0.224691E-04  0.222998E-04  0.229789E-04  0.258102E-04
  0.325233E-04  0.464523E-04  0.762173E-04  0.140683E-03  0.265925E-03  0.456297E-03
  0.650275E-03  0.735069E-03  0.201123E-02  0.178734E-02  0.127319E-02  0.763565E-03
  0.421372E-03  0.238750E-03  0.149798E-03  0.105771E-03  0.839960E-04  0.750068E-04
  0.730498E-04  0.736833E-04  0.741823E-04  0.736847E-04  0.730519E-04  0.750091E-04
  0.839983E-04  0.105773E-03  0.149801E-03  0.238753E-03  0.421374E-03  0.763567E-03
  0.127319E-02  0.178734E-02  0.201123E-02  0.178734E-02  0.178734E-02  0.142414E-02
  0.934174E-03  0.542296E-03  0.310400E-03  0.194148E-03  0.138969E-03  0.113904E-03
  0.105770E-03  0.107678E-03  0.113609E-03  0.118197E-03  0.118198E-03  0.113611E-03
  0.107680E-03  0.105773E-03  0.113906E-03  0.138971E-03  0.194150E-03  0.310402E-03
  0.542298E-03  0.934174E-03  0.142414E-02  0.178734E-02  0.127319E-02  0.141977E-02
  0.127319E-02  0.934174E-03  0.592826E-03  0.357996E-03  0.229741E-03  0.168354E-03
  0.142957E-03  0.138970E-03  0.149798E-03  0.168939E-03  0.187078E-03  0.194550E-03
  0.187080E-03  0.168942E-03  0.149801E-03  0.138972E-03  0.142959E-03  0.168356E-03
  0.229742E-03  0.357997E-03  0.592826E-03  0.934174E-03  0.127319E-02  0.763565E-03
  0.923760E-03  0.923761E-03  0.763567E-03  0.542298E-03  0.357997E-03  0.243613E-03
  0.185988E-03  0.164612E-03  0.168356E-03  0.194149E-03  0.238749E-03  0.290050E-03
  0.325625E-03  0.325626E-03  0.290052E-03  0.238752E-03  0.194152E-03  0.168358E-03
  0.164614E-03  0.185989E-03  0.243613E-03  0.357996E-03  0.542296E-03  0.763565E-03
  0.421372E-03  0.526506E-03  0.570868E-03  0.526507E-03  0.421374E-03  0.310402E-03
  0.229742E-03  0.185989E-03  0.172696E-03  0.185990E-03  0.229743E-03  0.310401E-03
  0.421371E-03  0.526504E-03  0.570867E-03  0.526506E-03  0.421373E-03  0.310403E-03
  0.229745E-03  0.185991E-03  0.172696E-03  0.185988E-03  0.229741E-03  0.310400E-03
  0.421372E-03  0.238750E-03  0.290051E-03  0.325627E-03  0.325628E-03  0.290053E-03
  0.238753E-03  0.194150E-03  0.168356E-03  0.164614E-03  0.185991E-03  0.243616E-03
  0.357998E-03  0.542296E-03  0.763564E-03  0.923759E-03  0.923760E-03  0.763566E-03
  0.542298E-03  0.357999E-03  0.243616E-03  0.185990E-03  0.164612E-03  0.168354E-03
  0.194148E-03  0.238750E-03  0.149798E-03  0.168941E-03  0.187080E-03  0.194552E-03
  0.187082E-03  0.168943E-03  0.149801E-03  0.138971E-03  0.142959E-03  0.168358E-03
  0.229745E-03  0.357999E-03  0.592826E-03  0.934173E-03  0.127319E-02  0.141977E-02
  0.127319E-02  0.934174E-03  0.592826E-03  0.357998E-03  0.229743E-03  0.168356E-03
  0.142957E-03  0.138969E-03  0.149798E-03  0.105771E-03  0.107679E-03  0.113611E-03
  0.118199E-03  0.118200E-03  0.113613E-03  0.107681E-03  0.105773E-03  0.113906E-03
  0.138972E-03  0.194152E-03  0.310403E-03  0.542298E-03  0.934174E-03  0.142414E-02
  0.178733E-02  0.178733E-02  0.142414E-02  0.934173E-03  0.542296E-03  0.310401E-03
  0.194149E-03  0.138970E-03  0.113904E-03  0.105771E-03  0.839960E-04  0.750072E-04
  0.730507E-04  0.736846E-04  0.741837E-04  0.736859E-04  0.730528E-04  0.750095E-04
  0.839983E-04  0.105773E-03  0.149801E-03  0.238752E-03  0.421373E-03  0.763566E-03
  0.127319E-02  0.178733E-02  0.201122E-02  0.178733E-02  0.127319E-02  0.763564E-03
  0.421371E-03  0.238749E-03  0.149798E-03  0.105770E-03  0.839960E-04  0.750068E-04
  0.578598E-04  0.499867E-04  0.470252E-04  0.461454E-04  0.461462E-04  0.470272E-04
  0.499892E-04  0.578622E-04  0.750091E-04  0.107680E-03  0.168942E-03  0.290052E-03
  0.526506E-03  0.923760E-03  0.141977E-02  0.178733E-02  0.178733E-02  0.141977E-02
  0.923759E-03  0.526504E-03  0.290050E-03  0.168939E-03  0.107678E-03  0.750068E-04
  0.730498E-04  0.499864E-04  0.375795E-04  0.315290E-04  0.288578E-04  0.280905E-04
  0.288594E-04  0.315316E-04  0.375823E-04  0.499889E-04  0.730519E-04  0.113611E-03
  0.187080E-03  0.325626E-03  0.570867E-03  0.923759E-03  0.127319E-02  0.142414E-02
  0.127319E-02  0.923760E-03  0.570867E-03  0.325625E-03  0.187078E-03  0.113609E-03
  0.730498E-04  0.736833E-04  0.470246E-04  0.315287E-04  0.231351E-04  0.188596E-04
  0.170072E-04  0.170081E-04  0.188620E-04  0.231380E-04  0.315312E-04  0.470265E-04
  0.736847E-04  0.118198E-03  0.194550E-03  0.325625E-03  0.526504E-03  0.763564E-03
  0.934173E-03  0.934174E-03  0.763566E-03  0.526506E-03  0.325626E-03  0.194550E-03
  0.118197E-03  0.736833E-04  0.741823E-04  0.461444E-04  0.288569E-04  0.188590E-04
  0.133694E-04  0.105621E-04  0.967652E-05  0.105637E-04  0.133719E-04  0.188613E-04
  0.288585E-04  0.461451E-04  0.741823E-04  0.118197E-03  0.187078E-03  0.290050E-03
  0.421371E-03  0.542296E-03  0.592826E-03  0.542298E-03  0.421373E-03  0.290052E-03
  0.187080E-03  0.118198E-03  0.741823E-04  0.736847E-04  0.461451E-04  0.280894E-04
  0.170058E-04  0.105610E-04  0.698385E-05  0.534406E-05  0.534471E-05  0.698543E-05
  0.105626E-04  0.170068E-04  0.280894E-04  0.461444E-04  0.736833E-04  0.113609E-03
  0.168939E-03  0.238749E-03  0.310401E-03  0.357998E-03  0.357999E-03  0.310403E-03
  0.238752E-03  0.168942E-03  0.113611E-03  0.736847E-04  0.730519E-04  0.470265E-04
  0.288585E-04  0.170068E-04  0.967495E-05  0.534302E-05  0.304797E-05  0.232657E-05
  0.304859E-05  0.534368E-05  0.967495E-05  0.170058E-04  0.288569E-04  0.470246E-04
  0.730498E-04  0.107678E-03  0.149798E-03  0.194149E-03  0.229743E-03  0.243616E-03
  0.229745E-03  0.194152E-03  0.149801E-03  0.107680E-03  0.730519E-04  0.750091E-04
  0.499889E-04  0.315312E-04  0.188613E-04  0.105626E-04  0.534368E-05  0.232603E-05
  0.963208E-06  0.963299E-06  0.232603E-05  0.534302E-05  0.105610E-04  0.188590E-04
  0.315287E-04  0.499864E-04  0.750068E-04  0.105770E-03  0.138970E-03  0.168356E-03
  0.185990E-03  0.185991E-03  0.168358E-03  0.138972E-03  0.105773E-03  0.750091E-04
  0.839983E-04  0.578622E-04  0.375823E-04  0.231380E-04  0.133719E-04  0.698543E-05
  0.304859E-05  0.963299E-06  0.322203E-06  0.963208E-06  0.304797E-05  0.698385E-05
  0.133694E-04  0.231351E-04  0.375795E-04  0.578598E-04  0.839960E-04  0.113904E-03
  0.142957E-03  0.164612E-03  0.172696E-03  0.164614E-03  0.142959E-03  0.113906E-03
  0.839983E-04  0.105773E-03  0.750095E-04  0.499892E-04  0.315316E-04  0.188620E-04
  0.105637E-04  0.534471E-05  0.232657E-05  0.963208E-06  0.963299E-06  0.232657E-05
  0.534406E-05  0.105621E-04  0.188596E-04  0.315290E-04  0.499867E-04  0.750072E-04
  0.105771E-03  0.138969E-03  0.168354E-03  0.185988E-03  0.185989E-03  0.168356E-03
  0.138971E-03  0.105773E-03  0.149801E-03  0.107681E-03  0.730528E-04  0.470272E-04
  0.288594E-04  0.170081E-04  0.967652E-05  0.534406E-05  0.304797E-05  0.232603E-05
  0.304859E-05  0.534471E-05  0.967652E-05  0.170072E-04  0.288578E-04  0.470252E-04
  0.730507E-04  0.107679E-03  0.149798E-03  0.194148E-03  0.229741E-03  0.243613E-03
  0.229742E-03  0.194150E-03  0.149801E-03  0.238753E-03  0.168943E-03  0.113613E-03
  0.736859E-04  0.461462E-04  0.280905E-04  0.170072E-04  0.105621E-04  0.698385E-05
  0.534302E-05  0.534368E-05  0.698543E-05  0.105637E-04  0.170081E-04  0.280905E-04
  0.461454E-04  0.736846E-04  0.113611E-03  0.168941E-03  0.238750E-03  0.310400E-03
  0.357996E-03  0.357997E-03  0.310402E-03  0.238753E-03  0.421374E-03  0.290053E-03
  0.187082E-03  0.118200E-03  0.741837E-04  0.461454E-04  0.288578E-04  0.188596E-04
  0.133694E-04  0.105610E-04  0.967495E-05  0.105626E-04  0.133719E-04  0.188620E-04
  0.288594E-04  0.461462E-04  0.741837E-04  0.118199E-03  0.187080E-03  0.290051E-03
  0.421372E-03  0.542296E-03  0.592826E-03  0.542298E-03  0.421374E-03  0.763567E-03
  0.526507E-03  0.325628E-03  0.194552E-03  0.118199E-03  0.736846E-04  0.470252E-04
  0.315290E-04  0.231351E-04  0.188590E-04  0.170058E-04  0.170068E-04  0.188613E-04
  0.231380E-04  0.315316E-04  0.470272E-04  0.736859E-04  0.118200E-03  0.194552E-03
  0.325627E-03  0.526506E-03  0.763565E-03  0.934174E-03  0.934174E-03  0.763567E-03
  0.127319E-02  0.923761E-03  0.570868E-03  0.325627E-03  0.187080E-03  0.113611E-03
  0.730507E-04  0.499867E-04  0.375795E-04  0.315287E-04  0.288569E-04  0.280894E-04
  0.288585E-04  0.315312E-04  0.375823E-04  0.499892E-04  0.730528E-04  0.113613E-03
  0.187082E-03  0.325628E-03  0.570868E-03  0.923760E-03  0.127319E-02  0.142414E-02
  0.127319E-02  0.178734E-02  0.141977E-02  0.923760E-03  0.526506E-03  0.290051E-03
  0.168941E-03  0.107679E-03  0.750072E-04  0.578598E-04  0.499864E-04  0.470246E-04
  0.461444E-04  0.461451E-04  0.470265E-04  0.499889E-04  0.578622E-04  0.750095E-04
  0.107681E-03  0.168943E-03  0.290053E-03  0.526507E-03  0.923761E-03  0.141977E-02
  0.178734E-02  0.178734E-02  0.201123E-02  0.178734E-02  0.127319E-02  0.763565E-03
  0.421372E-03  0.238750E-03  0.149798E-03  0.105771E-03  0.839960E-04  0.750068E-04
  0.730498E-04  0.736833E-04  0.741823E-04  0.736847E-04  0.730519E-04  0.750091E-04
  0.839983E-04  0.105773E-03  0.149801E-03  0.238753E-03  0.421374E-03  0.763567E-03
  0.127319E-02  0.178734E-02  0.201123E-02  0.251612E-02  0.226160E-02  0.166986E-02
  0.106641E-02  0.639969E-03  0.393555E-03  0.260590E-03  0.188336E-03  0.150810E-03
  0.135039E-03  0.131259E-03  0.131830E-03  0.132437E-03  0.131832E-03  0.131262E-03
  0.135042E-03  0.150813E-03  0.188339E-03  0.260594E-03  0.393559E-03  0.639972E-03
  0.106641E-02  0.166986E-02  0.226160E-02  0.251612E-02  0.226160E-02  0.226160E-02
  0.184559E-02  0.127295E-02  0.796577E-03  0.495906E-03  0.330931E-03  0.244544E-03
  0.202511E-03  0.188336E-03  0.190809E-03  0.199520E-03  0.206122E-03  0.206123E-03
  0.199523E-03  0.190812E-03  0.188339E-03  0.202514E-03  0.244547E-03  0.330934E-03
  0.495909E-03  0.796579E-03  0.127296E-02  0.184559E-02  0.226160E-02  0.166986E-02
  0.183908E-02  0.166986E-02  0.127296E-02  0.860667E-03  0.561628E-03  0.385341E-03
  0.293038E-03  0.251840E-03  0.244545E-03  0.260590E-03  0.288346E-03  0.313725E-03
  0.323953E-03  0.313727E-03  0.288349E-03  0.260594E-03  0.244548E-03  0.251843E-03
  0.293040E-03  0.385343E-03  0.561629E-03  0.860667E-03  0.127295E-02  0.166986E-02
  0.106641E-02  0.125698E-02  0.125698E-02  0.106641E-02  0.796579E-03  0.561629E-03
  0.406116E-03  0.321562E-03  0.287965E-03  0.293040E-03  0.330933E-03  0.393555E-03
  0.462389E-03  0.508700E-03  0.508701E-03  0.462392E-03  0.393558E-03  0.330936E-03
  0.293042E-03  0.287967E-03  0.321563E-03  0.406116E-03  0.561628E-03  0.796577E-03
  0.106641E-02  0.639969E-03  0.771451E-03  0.825918E-03  0.771453E-03  0.639972E-03
  0.495909E-03  0.385343E-03  0.321563E-03  0.301301E-03  0.321565E-03  0.385344E-03
  0.495907E-03  0.639968E-03  0.771449E-03  0.825916E-03  0.771451E-03  0.639971E-03
  0.495910E-03  0.385346E-03  0.321566E-03  0.301301E-03  0.321562E-03  0.385341E-03
  0.495906E-03  0.639969E-03  0.393555E-03  0.462391E-03  0.508702E-03  0.508703E-03
  0.462393E-03  0.393559E-03  0.330934E-03  0.293040E-03  0.287967E-03  0.321566E-03
  0.406119E-03  0.561630E-03  0.796577E-03  0.106641E-02  0.125697E-02  0.125697E-02
  0.106641E-02  0.796579E-03  0.561631E-03  0.406119E-03  0.321565E-03  0.287965E-03
  0.293038E-03  0.330931E-03  0.393555E-03  0.260590E-03  0.288348E-03  0.313727E-03
  0.323956E-03  0.313729E-03  0.288351E-03  0.260594E-03  0.244547E-03  0.251843E-03
  0.293042E-03  0.385346E-03  0.561631E-03  0.860667E-03  0.127295E-02  0.166986E-02
  0.183908E-02  0.166986E-02  0.127295E-02  0.860667E-03  0.561630E-03  0.385344E-03
  0.293040E-03  0.251840E-03  0.244544E-03  0.260590E-03  0.188336E-03  0.190810E-03
  0.199522E-03  0.206124E-03  0.206125E-03  0.199525E-03  0.190813E-03  0.188339E-03
  0.202514E-03  0.244548E-03  0.330936E-03  0.495910E-03  0.796579E-03  0.127295E-02
  0.184559E-02  0.226159E-02  0.226159E-02  0.184559E-02  0.127295E-02  0.796577E-03