 CRYSTAL
 PRIMVEC
    2.468585230    0.000000000    0.000000000
   -1.234292615    2.137857521    0.000000000
    0.000000000    0.000000000   19.748681840
 PRIMCOORD
           4           1
C         0.000000000    0.000000000    0.000000000
C         1.234293849    0.712618461    0.000000000
C         0.000000000    0.000000000    3.486906260
C         1.234293849    0.712618461    3.486906260
BEGIN_BLOCK_DATAGRID_3D
3D_PWSCF
BEGIN_DATAGRID_3D_UNKNOWN
          25          25         193
  0.000000  0.000000  0.000000
    2.468585    0.000000    0.000000
   -1.234293    2.137858    0.000000
    0.000000    0.000000   19.748682
  0.324452E-07  0.163388E-06  0.427760E-06  0.608252E-06  0.633396E-06  0.571999E-06
  0.500791E-06  0.442967E-06  0.389824E-06  0.337602E-06  0.295957E-06  0.272972E-06
  0.266459E-06  0.272972E-06  0.295957E-06  0.337602E-06  0.389824E-06  0.442967E-06
  0.500791E-06  0.571998E-06  0.633395E-06  0.608252E-06  0.427760E-06  0.163388E-06
  0.324452E-07  0.163388E-06  0.163388E-06  0.374136E-06  0.599893E-06  0.692606E-06
  0.666838E-06  0.602863E-06  0.545451E-06  0.494807E-06  0.442967E-06  0.396077E-06
  0.365785E-06  0.353722E-06  0.353722E-06  0.365784E-06  0.396077E-06  0.442967E-06
  0.494807E-06  0.545451E-06  0.602863E-06  0.666838E-06  0.692605E-06  0.599893E-06
  0.374136E-06  0.163388E-06  0.427760E-06  0.341569E-06  0.427760E-06  0.599893E-06
  0.714214E-06  0.726757E-06  0.684368E-06  0.635166E-06  0.590824E-06  0.545450E-06
  0.500791E-06  0.467436E-06  0.451129E-06  0.447196E-06  0.451128E-06  0.467436E-06
  0.500791E-06  0.545450E-06  0.590824E-06  0.635166E-06  0.684367E-06  0.726757E-06
  0.714214E-06  0.599893E-06  0.427760E-06  0.608252E-06  0.528948E-06  0.528948E-06
  0.608252E-06  0.692605E-06  0.726757E-06  0.716667E-06  0.691165E-06  0.664309E-06
  0.635165E-06  0.602862E-06  0.571999E-06  0.548607E-06  0.536423E-06  0.536422E-06
  0.548606E-06  0.571998E-06  0.602861E-06  0.635165E-06  0.664309E-06  0.691165E-06
  0.716667E-06  0.726757E-06  0.692606E-06  0.608252E-06  0.633396E-06  0.594117E-06
  0.575787E-06  0.594116E-06  0.633395E-06  0.666838E-06  0.684367E-06  0.691165E-06
  0.692925E-06  0.691163E-06  0.684366E-06  0.666837E-06  0.633396E-06  0.594117E-06
  0.575787E-06  0.594116E-06  0.633395E-06  0.666837E-06  0.684365E-06  0.691163E-06
  0.692925E-06  0.691165E-06  0.684368E-06  0.666838E-06  0.633396E-06  0.571999E-06
  0.548606E-06  0.536423E-06  0.536422E-06  0.548606E-06  0.571998E-06  0.602863E-06
  0.635166E-06  0.664309E-06  0.691163E-06  0.716664E-06  0.726756E-06  0.692605E-06
  0.608252E-06  0.528947E-06  0.528946E-06  0.608251E-06  0.692605E-06  0.726755E-06
  0.716664E-06  0.691163E-06  0.664309E-06  0.635166E-06  0.602863E-06  0.571999E-06
  0.500791E-06  0.467436E-06  0.451128E-06  0.447196E-06  0.451128E-06  0.467435E-06
  0.500791E-06  0.545451E-06  0.590824E-06  0.635165E-06  0.684365E-06  0.726755E-06
  0.714213E-06  0.599893E-06  0.427759E-06  0.341567E-06  0.427759E-06  0.599892E-06
  0.714213E-06  0.726756E-06  0.684366E-06  0.635165E-06  0.590824E-06  0.545451E-06
  0.500791E-06  0.442967E-06  0.396077E-06  0.365784E-06  0.353722E-06  0.353721E-06
  0.365784E-06  0.396077E-06  0.442967E-06  0.494807E-06  0.545450E-06  0.602861E-06
  0.666837E-06  0.692605E-06  0.599892E-06  0.374136E-06  0.163387E-06  0.163387E-06
  0.374136E-06  0.599893E-06  0.692605E-06  0.666837E-06  0.602862E-06  0.545450E-06
  0.494807E-06  0.442967E-06  0.389824E-06  0.337602E-06  0.295957E-06  0.272972E-06
  0.266459E-06  0.272971E-06  0.295957E-06  0.337602E-06  0.389824E-06  0.442967E-06
  0.500791E-06  0.571998E-06  0.633395E-06  0.608251E-06  0.427759E-06  0.163387E-06
  0.324437E-07  0.163387E-06  0.427759E-06  0.608252E-06  0.633396E-06  0.571999E-06
  0.500791E-06  0.442967E-06  0.389824E-06  0.337602E-06  0.283987E-06  0.237795E-06
  0.207224E-06  0.193910E-06  0.193909E-06  0.207224E-06  0.237795E-06  0.283987E-06
  0.337602E-06  0.396077E-06  0.467436E-06  0.548606E-06  0.594116E-06  0.528946E-06
  0.341567E-06  0.163387E-06  0.163387E-06  0.341567E-06  0.528947E-06  0.594117E-06
  0.548607E-06  0.467436E-06  0.396077E-06  0.337602E-06  0.295957E-06  0.237794E-06
  0.189312E-06  0.154853E-06  0.136728E-06  0.131603E-06  0.136727E-06  0.154853E-06
  0.189312E-06  0.237794E-06  0.295957E-06  0.365784E-06  0.451128E-06  0.536422E-06
  0.575787E-06  0.528947E-06  0.427759E-06  0.374136E-06  0.427759E-06  0.528946E-06
  0.575787E-06  0.536423E-06  0.451129E-06  0.365785E-06  0.295957E-06  0.272972E-06
  0.207224E-06  0.154853E-06  0.117080E-06  0.950174E-07  0.859840E-07  0.859837E-07
  0.950165E-07  0.117079E-06  0.154853E-06  0.207223E-06  0.272972E-06  0.353722E-06
  0.447196E-06  0.536423E-06  0.594117E-06  0.608252E-06  0.599893E-06  0.599892E-06
  0.608251E-06  0.594116E-06  0.536422E-06  0.447196E-06  0.353722E-06  0.272972E-06
  0.266459E-06  0.193910E-06  0.136728E-06  0.950177E-07  0.685934E-07  0.553131E-07
  0.515269E-07  0.553124E-07  0.685924E-07  0.950168E-07  0.136727E-06  0.193909E-06
  0.266459E-06  0.353722E-06  0.451129E-06  0.548607E-06  0.633396E-06  0.692605E-06
  0.714213E-06  0.692605E-06  0.633395E-06  0.548606E-06  0.451128E-06  0.353722E-06
  0.266459E-06  0.272972E-06  0.193909E-06  0.131603E-06  0.859849E-07  0.553139E-07
  0.373226E-07  0.293837E-07  0.293834E-07  0.373219E-07  0.553132E-07  0.859845E-07
  0.131603E-06  0.193910E-06  0.272972E-06  0.365785E-06  0.467436E-06  0.571999E-06
  0.666837E-06  0.726756E-06  0.726755E-06  0.666837E-06  0.571998E-06  0.467436E-06
  0.365784E-06  0.272972E-06  0.295957E-06  0.207223E-06  0.136727E-06  0.859845E-07
  0.515281E-07  0.293846E-07  0.170857E-07  0.131815E-07  0.170854E-07  0.293843E-07
  0.515281E-07  0.859849E-07  0.136728E-06  0.207224E-06  0.295957E-06  0.396077E-06
  0.500791E-06  0.602862E-06  0.684366E-06  0.716664E-06  0.684365E-06  0.602861E-06
  0.500791E-06  0.396077E-06  0.295957E-06  0.337602E-06  0.237794E-06  0.154853E-06
  0.950168E-07  0.553132E-07  0.293843E-07  0.131819E-07  0.529654E-08  0.529650E-08
  0.131819E-07  0.293846E-07  0.553139E-07  0.950177E-07  0.154853E-06  0.237794E-06
  0.337602E-06  0.442967E-06  0.545450E-06  0.635165E-06  0.691163E-06  0.691163E-06
  0.635165E-06  0.545450E-06  0.442967E-06  0.337602E-06  0.389824E-06  0.283987E-06
  0.189312E-06  0.117079E-06  0.685924E-07  0.373219E-07  0.170854E-07  0.529650E-08
  0.140110E-08  0.529654E-08  0.170857E-07  0.373226E-07  0.685934E-07  0.117080E-06
  0.189312E-06  0.283987E-06  0.389824E-06  0.494807E-06  0.590824E-06  0.664309E-06
  0.692925E-06  0.664309E-06  0.590824E-06  0.494807E-06  0.389824E-06  0.442967E-06
  0.337602E-06  0.237795E-06  0.154853E-06  0.950165E-07  0.553124E-07  0.293834E-07
  0.131815E-07  0.529654E-08  0.529650E-08  0.131815E-07  0.293837E-07  0.553131E-07
  0.950174E-07  0.154853E-06  0.237795E-06  0.337602E-06  0.442967E-06  0.545451E-06
  0.635166E-06  0.691165E-06  0.691165E-06  0.635166E-06  0.545451E-06  0.442967E-06
  0.500791E-06  0.396077E-06  0.295957E-06  0.207224E-06  0.136727E-06  0.859837E-07
  0.515269E-07  0.293837E-07  0.170857E-07  0.131819E-07  0.170854E-07  0.293834E-07
  0.515269E-07  0.859840E-07  0.136728E-06  0.207224E-06  0.295957E-06  0.396077E-06
  0.500791E-06  0.602863E-06  0.684368E-06  0.716667E-06  0.684367E-06  0.602863E-06
  0.500791E-06  0.571998E-06  0.467435E-06  0.365784E-06  0.272971E-06  0.193909E-06
  0.131603E-06  0.859840E-07  0.553131E-07  0.373226E-07  0.293846E-07  0.293843E-07
  0.373219E-07  0.553124E-07  0.859837E-07  0.131603E-06  0.193910E-06  0.272972E-06
  0.365784E-06  0.467436E-06  0.571999E-06  0.666838E-06  0.726757E-06  0.726757E-06
  0.666838E-06  0.571998E-06  0.633395E-06  0.548606E-06  0.451128E-06  0.353721E-06
  0.266459E-06  0.193910E-06  0.136728E-06  0.950174E-07  0.685934E-07  0.553139E-07
  0.515281E-07  0.553132E-07  0.685924E-07  0.950165E-07  0.136727E-06  0.193909E-06
  0.266459E-06  0.353722E-06  0.451128E-06  0.548606E-06  0.633396E-06  0.692606E-06
  0.714214E-06  0.692605E-06  0.633395E-06  0.608252E-06  0.594116E-06  0.536422E-06
  0.447196E-06  0.353722E-06  0.272972E-06  0.207224E-06  0.154853E-06  0.117080E-06
  0.950177E-07  0.859849E-07  0.859845E-07  0.950168E-07  0.117079E-06  0.154853E-06
  0.207224E-06  0.272971E-06  0.353721E-06  0.447196E-06  0.536423E-06  0.594117E-06
  0.608252E-06  0.599893E-06  0.599893E-06  0.608252E-06  0.427760E-06  0.528948E-06
  0.575787E-06  0.536423E-06  0.451128E-06  0.365784E-06  0.295957E-06  0.237795E-06
  0.189312E-06  0.154853E-06  0.136728E-06  0.131603E-06  0.136727E-06  0.154853E-06
  0.189312E-06  0.237795E-06  0.295957E-06  0.365784E-06  0.451128E-06  0.536422E-06
  0.575787E-06  0.528948E-06  0.427760E-06  0.374136E-06  0.427760E-06  0.163388E-06
  0.341569E-06  0.528948E-06  0.594117E-06  0.548606E-06  0.467436E-06  0.396077E-06
  0.337602E-06  0.283987E-06  0.237794E-06  0.207224E-06  0.193910E-06  0.193909E-06
  0.207223E-06  0.237794E-06  0.283987E-06  0.337602E-06  0.396077E-06  0.467435E-06
  0.548606E-06  0.594116E-06  0.528948E-06  0.341569E-06  0.163388E-06  0.163388E-06
  0.324452E-07  0.163388E-06  0.427760E-06  0.608252E-06  0.633396E-06  0.571999E-06
  0.500791E-06  0.442967E-06  0.389824E-06  0.337602E-06  0.295957E-06  0.272972E-06
  0.266459E-06  0.272972E-06  0.295957E-06  0.337602E-06  0.389824E-06  0.442967E-06
  0.500791E-06  0.571998E-06  0.633395E-06  0.608252E-06  0.427760E-06  0.163388E-06
  0.324452E-07  0.707291E-03  0.625625E-03  0.438834E-03  0.255580E-03  0.135085E-03
  0.731054E-04  0.445092E-04  0.311376E-04  0.247012E-04  0.219948E-04  0.213535E-04
  0.215228E-04  0.216737E-04  0.215232E-04  0.213542E-04  0.219956E-04  0.247020E-04
  0.311384E-04  0.445102E-04  0.731064E-04  0.135086E-03  0.255581E-03  0.438834E-03
  0.625625E-03  0.707291E-03  0.625625E-03  0.625625E-03  0.493484E-03  0.316481E-03
  0.177077E-03  0.968860E-04  0.584327E-04  0.411540E-04  0.336075E-04  0.311376E-04
  0.316637E-04  0.334821E-04  0.349368E-04  0.349370E-04  0.334827E-04  0.316645E-04
  0.311384E-04  0.336083E-04  0.411548E-04  0.584336E-04  0.968868E-04  0.177077E-03
  0.316481E-03  0.493484E-03  0.625625E-03  0.438834E-03  0.492008E-03  0.438834E-03
  0.316481E-03  0.194799E-03  0.112983E-03  0.698848E-04  0.501970E-04  0.423738E-04
  0.411542E-04  0.445092E-04  0.506328E-04  0.565978E-04  0.590932E-04  0.565984E-04
  0.506337E-04  0.445102E-04  0.411551E-04  0.423745E-04  0.501977E-04  0.698854E-04
  0.112983E-03  0.194799E-03  0.316481E-03  0.438834E-03  0.255580E-03  0.313021E-03
  0.313021E-03  0.255581E-03  0.177077E-03  0.112983E-03  0.744093E-04  0.557133E-04
  0.490109E-04  0.501976E-04  0.584332E-04  0.731053E-04  0.904398E-04  0.102669E-03
  0.102670E-03  0.904407E-04  0.731063E-04  0.584341E-04  0.501983E-04  0.490113E-04
  0.557135E-04  0.744093E-04  0.112983E-03  0.177077E-03  0.255580E-03  0.135085E-03
  0.171948E-03  0.187641E-03  0.171949E-03  0.135086E-03  0.968868E-04  0.698854E-04
  0.557135E-04  0.515142E-04  0.557141E-04  0.698857E-04  0.968864E-04  0.135085E-03
  0.171948E-03  0.187641E-03  0.171948E-03  0.135086E-03  0.968872E-04  0.698863E-04
  0.557143E-04  0.515142E-04  0.557133E-04  0.698848E-04  0.968860E-04  0.135085E-03
  0.731054E-04  0.904403E-04  0.102670E-03  0.102670E-03  0.904412E-04  0.731064E-04
  0.584336E-04  0.501977E-04  0.490113E-04  0.557143E-04  0.744104E-04  0.112984E-03
  0.177077E-03  0.255580E-03  0.313021E-03  0.313021E-03  0.255580E-03  0.177077E-03
  0.112984E-03  0.744104E-04  0.557141E-04  0.490109E-04  0.501970E-04  0.584327E-04
  0.731054E-04  0.445092E-04  0.506332E-04  0.565985E-04  0.590939E-04  0.565991E-04
  0.506342E-04  0.445102E-04  0.411548E-04  0.423745E-04  0.501983E-04  0.698863E-04
  0.112984E-03  0.194799E-03  0.316480E-03  0.438834E-03  0.492008E-03  0.438834E-03
  0.316480E-03  0.194799E-03  0.112984E-03  0.698857E-04  0.501976E-04  0.423738E-04
  0.411540E-04  0.445092E-04  0.311376E-04  0.316640E-04  0.334826E-04  0.349374E-04
  0.349376E-04  0.334833E-04  0.316648E-04  0.311384E-04  0.336083E-04  0.411551E-04
  0.584341E-04  0.968872E-04  0.177077E-03  0.316480E-03  0.493484E-03  0.625624E-03
  0.625624E-03  0.493484E-03  0.316480E-03  0.177077E-03  0.968864E-04  0.584332E-04
  0.411542E-04  0.336075E-04  0.311376E-04  0.247012E-04  0.219949E-04  0.213538E-04
  0.215232E-04  0.216741E-04  0.215237E-04  0.213545E-04  0.219957E-04  0.247020E-04
  0.311384E-04  0.445102E-04  0.731063E-04  0.135086E-03  0.255580E-03  0.438834E-03
  0.625624E-03  0.707290E-03  0.625624E-03  0.438834E-03  0.255580E-03  0.135085E-03
  0.731053E-04  0.445092E-04  0.311376E-04  0.247012E-04  0.219948E-04  0.169625E-04
  0.146067E-04  0.137008E-04  0.134333E-04  0.134335E-04  0.137014E-04  0.146076E-04
  0.169633E-04  0.219956E-04  0.316645E-04  0.506337E-04  0.904407E-04  0.171948E-03
  0.313021E-03  0.492008E-03  0.625624E-03  0.625624E-03  0.492008E-03  0.313021E-03
  0.171948E-03  0.904398E-04  0.506328E-04  0.316637E-04  0.219948E-04  0.213535E-04
  0.146066E-04  0.109607E-04  0.916598E-05  0.837835E-05  0.815586E-05  0.837893E-05
  0.916691E-05  0.109616E-04  0.146075E-04  0.213542E-04  0.334827E-04  0.565984E-04
  0.102670E-03  0.187641E-03  0.313021E-03  0.438834E-03  0.493484E-03  0.438834E-03
  0.313021E-03  0.187641E-03  0.102669E-03  0.565978E-04  0.334821E-04  0.213535E-04
  0.215228E-04  0.137005E-04  0.916587E-05  0.669947E-05  0.545050E-05  0.491812E-05
  0.491845E-05  0.545135E-05  0.670051E-05  0.916679E-05  0.137012E-04  0.215232E-04
  0.349370E-04  0.590932E-04  0.102669E-03  0.171948E-03  0.255580E-03  0.316480E-03
  0.316480E-03  0.255580E-03  0.171948E-03  0.102670E-03  0.590932E-04  0.349368E-04
  0.215228E-04  0.216737E-04  0.134329E-04  0.837805E-05  0.545026E-05  0.385071E-05
  0.304399E-05  0.279257E-05  0.304458E-05  0.385161E-05  0.545111E-05  0.837863E-05
  0.134332E-04  0.216737E-04  0.349368E-04  0.565978E-04  0.904398E-04  0.135085E-03
  0.177077E-03  0.194799E-03  0.177077E-03  0.135086E-03  0.904407E-04  0.565984E-04
  0.349370E-04  0.216737E-04  0.215232E-04  0.134332E-04  0.815546E-05  0.491763E-05
  0.304361E-05  0.201313E-05  0.154469E-05  0.154492E-05  0.201370E-05  0.304420E-05
  0.491797E-05  0.815546E-05  0.134329E-04  0.215228E-04  0.334821E-04  0.506328E-04
  0.731053E-04  0.968864E-04  0.112984E-03  0.112984E-03  0.968872E-04  0.731063E-04
  0.506337E-04  0.334827E-04  0.215232E-04  0.213542E-04  0.137012E-04  0.837863E-05
  0.491797E-05  0.279199E-05  0.154431E-05  0.884123E-06  0.676151E-06  0.884348E-06
  0.154454E-05  0.279199E-05  0.491763E-05  0.837805E-05  0.137005E-04  0.213535E-04
  0.316637E-04  0.445092E-04  0.584332E-04  0.698857E-04  0.744104E-04  0.698863E-04
  0.584341E-04  0.445102E-04  0.316645E-04  0.213542E-04  0.219956E-04  0.146075E-04
  0.916679E-05  0.545111E-05  0.304420E-05  0.154454E-05  0.675952E-06  0.279652E-06
  0.279686E-06  0.675952E-06  0.154431E-05  0.304361E-05  0.545026E-05  0.916587E-05
  0.146066E-04  0.219948E-04  0.311376E-04  0.411542E-04  0.501976E-04  0.557141E-04
  0.557143E-04  0.501983E-04  0.411551E-04  0.311384E-04  0.219956E-04  0.247020E-04
  0.169633E-04  0.109616E-04  0.670051E-05  0.385161E-05  0.201370E-05  0.884348E-06
  0.279686E-06  0.913715E-07  0.279652E-06  0.884123E-06  0.201313E-05  0.385071E-05
  0.669947E-05  0.109607E-04  0.169625E-04  0.247012E-04  0.336075E-04  0.423738E-04
  0.490109E-04  0.515142E-04  0.490113E-04  0.423745E-04  0.336083E-04  0.247020E-04
  0.311384E-04  0.219957E-04  0.146076E-04  0.916691E-05  0.545135E-05  0.304458E-05
  0.154492E-05  0.676151E-06  0.279652E-06  0.279686E-06  0.676151E-06  0.154469E-05
  0.304399E-05  0.545050E-05  0.916598E-05  0.146067E-04  0.219949E-04  0.311376E-04
  0.411540E-04  0.501970E-04  0.557133E-04  0.557135E-04  0.501977E-04  0.411548E-04
  0.311384E-04  0.445102E-04  0.316648E-04  0.213545E-04  0.137014E-04  0.837893E-05
  0.491845E-05  0.279257E-05  0.154469E-05  0.884123E-06  0.675952E-06  0.884348E-06
  0.154492E-05  0.279257E-05  0.491812E-05  0.837835E-05  0.137008E-04  0.213538E-04
  0.316640E-04  0.445092E-04  0.584327E-04  0.698848E-04  0.744093E-04  0.698854E-04
  0.584336E-04  0.445102E-04  0.731064E-04  0.506342E-04  0.334833E-04  0.215237E-04
  0.134335E-04  0.815586E-05  0.491812E-05  0.304399E-05  0.201313E-05  0.154431E-05
  0.154454E-05  0.201370E-05  0.304458E-05  0.491845E-05  0.815586E-05  0.134333E-04
  0.215232E-04  0.334826E-04  0.506332E-04  0.731054E-04  0.968860E-04  0.112983E-03
  0.112983E-03  0.968868E-04  0.731064E-04  0.135086E-03  0.904412E-04  0.565991E-04
  0.349376E-04  0.216741E-04  0.134333E-04  0.837835E-05  0.545050E-05  0.385071E-05
  0.304361E-05  0.279199E-05  0.304420E-05  0.385161E-05  0.545135E-05  0.837893E-05
  0.134335E-04  0.216741E-04  0.349374E-04  0.565985E-04  0.904403E-04  0.135085E-03
  0.177077E-03  0.194799E-03  0.177077E-03  0.135086E-03  0.255581E-03  0.171949E-03
  0.102670E-03  0.590939E-04  0.349374E-04  0.215232E-04  0.137008E-04  0.916598E-05
  0.669947E-05  0.545026E-05  0.491763E-05  0.491797E-05  0.545111E-05  0.670051E-05
  0.916691E-05  0.137014E-04  0.215237E-04  0.349376E-04  0.590939E-04  0.102670E-03
  0.171948E-03  0.255580E-03  0.316481E-03  0.316481E-03  0.255581E-03  0.438834E-03
  0.313021E-03  0.187641E-03  0.102670E-03  0.565985E-04  0.334826E-04  0.213538E-04
  0.146067E-04  0.109607E-04  0.916587E-05  0.837805E-05  0.815546E-05  0.837863E-05
  0.916679E-05  0.109616E-04  0.146076E-04  0.213545E-04  0.334833E-04  0.565991E-04
  0.102670E-03  0.187641E-03  0.313021E-03  0.438834E-03  0.493484E-03  0.438834E-03
  0.625625E-03  0.492008E-03  0.313021E-03  0.171948E-03  0.904403E-04  0.506332E-04
  0.316640E-04  0.219949E-04  0.169625E-04  0.146066E-04  0.137005E-04  0.134329E-04
  0.134332E-04  0.137012E-04  0.146075E-04  0.169633E-04  0.219957E-04  0.316648E-04
  0.506342E-04  0.904412E-04  0.171949E-03  0.313021E-03  0.492008E-03  0.625625E-03
  0.625625E-03  0.707291E-03  0.625625E-03  0.438834E-03  0.255580E-03  0.135085E-03
  0.731054E-04  0.445092E-04  0.311376E-04  0.247012E-04  0.219948E-04  0.213535E-04
  0.215228E-04  0.216737E-04  0.215232E-04  0.213542E-04  0.219956E-04  0.247020E-04
  0.311384E-04  0.445102E-04  0.731064E-04  0.135086E-03  0.255581E-03  0.438834E-03
  0.625625E-03  0.707291E-03  0.193541E-02  0.171985E-02  0.122487E-02  0.734320E-03
  0.405028E-03  0.229354E-03  0.143819E-03  0.101501E-03  0.805872E-04  0.719692E-04
  0.701081E-04  0.707291E-04  0.712125E-04  0.707304E-04  0.701102E-04  0.719714E-04
  0.805894E-04  0.101503E-03  0.143822E-03  0.229356E-03  0.405030E-03  0.734322E-03
  0.122487E-02  0.171985E-02  0.193541E-02  0.171985E-02  0.171985E-02  0.137017E-02
  0.898502E-03  0.521344E-03  0.298228E-03  0.186418E-03  0.133370E-03  0.109292E-03
  0.101501E-03  0.103364E-03  0.109088E-03  0.113509E-03  0.113510E-03  0.109090E-03
  0.103366E-03  0.101503E-03  0.109294E-03  0.133373E-03  0.186421E-03  0.298230E-03
  0.521346E-03  0.898503E-03  0.137017E-02  0.171985E-02  0.122487E-02  0.136598E-02
  0.122487E-02  0.898503E-03  0.569952E-03  0.343984E-03  0.220608E-03  0.161579E-03
  0.137175E-03  0.133371E-03  0.143819E-03  0.162257E-03  0.179721E-03  0.186914E-03
  0.179723E-03  0.162260E-03  0.143822E-03  0.133373E-03  0.137177E-03  0.161580E-03
  0.220609E-03  0.343985E-03  0.569952E-03  0.898502E-03  0.122487E-02  0.734320E-03
  0.888530E-03  0.888530E-03  0.734322E-03  0.521346E-03  0.343985E-03  0.233933E-03
  0.178506E-03  0.157958E-03  0.161580E-03  0.186419E-03  0.229353E-03  0.278730E-03
  0.312971E-03  0.312972E-03  0.278733E-03  0.229356E-03  0.186422E-03  0.161582E-03
  0.157959E-03  0.178506E-03  0.233933E-03  0.343984E-03  0.521344E-03  0.734320E-03
  0.405028E-03  0.506219E-03  0.548920E-03  0.506221E-03  0.405030E-03  0.298230E-03
  0.220609E-03  0.178506E-03  0.165714E-03  0.178508E-03  0.220610E-03  0.298229E-03
  0.405027E-03  0.506218E-03  0.548919E-03  0.506219E-03  0.405030E-03  0.298231E-03
  0.220612E-03  0.178508E-03  0.165714E-03  0.178506E-03  0.220608E-03  0.298228E-03
  0.405028E-03  0.229354E-03  0.278732E-03  0.312973E-03  0.312974E-03  0.278734E-03
  0.229356E-03  0.186421E-03  0.161580E-03  0.157959E-03  0.178508E-03  0.233936E-03
  0.343986E-03  0.521344E-03  0.734319E-03  0.888528E-03  0.888529E-03  0.734321E-03
  0.521346E-03  0.343986E-03  0.233936E-03  0.178508E-03  0.157958E-03  0.161579E-03
  0.186418E-03  0.229354E-03  0.143819E-03  0.162258E-03  0.179723E-03  0.186916E-03
  0.179725E-03  0.162261E-03  0.143822E-03  0.133373E-03  0.137177E-03  0.161582E-03
  0.220612E-03  0.343986E-03  0.569952E-03  0.898501E-03  0.122487E-02  0.136598E-02
  0.122487E-02  0.898502E-03  0.569952E-03  0.343986E-03  0.220610E-03  0.161580E-03
  0.137175E-03  0.133370E-03  0.143819E-03  0.101501E-03  0.103365E-03  0.109089E-03
  0.113511E-03  0.113512E-03  0.109091E-03  0.103367E-03  0.101503E-03  0.109294E-03
  0.133373E-03  0.186422E-03  0.298231E-03  0.521346E-03  0.898502E-03  0.137017E-02
  0.171985E-02  0.171985E-02  0.137017E-02  0.898501E-03  0.521344E-03  0.298229E-03
  0.186419E-03  0.133371E-03  0.109292E-03  0.101501E-03  0.805872E-04  0.719696E-04
  0.701090E-04  0.707303E-04  0.712137E-04  0.707315E-04  0.701110E-04  0.719718E-04
  0.805894E-04  0.101503E-03  0.143822E-03  0.229356E-03  0.405030E-03  0.734321E-03
  0.122487E-02  0.171985E-02  0.193541E-02  0.171985E-02  0.122487E-02  0.734319E-03
  0.405027E-03  0.229353E-03  0.143819E-03  0.101501E-03  0.805872E-04  0.719692E-04
  0.555038E-04  0.479532E-04  0.451186E-04  0.442784E-04  0.442791E-04  0.451205E-04
  0.479556E-04  0.555061E-04  0.719714E-04  0.103366E-03  0.162260E-03  0.278733E-03
  0.506219E-03  0.888529E-03  0.136598E-02  0.171985E-02  0.171985E-02  0.136598E-02
  0.888528E-03  0.506218E-03  0.278730E-03  0.162257E-03  0.103364E-03  0.719692E-04
  0.701081E-04  0.479529E-04  0.360423E-04  0.302383E-04  0.276773E-04  0.269417E-04
  0.276788E-04  0.302408E-04  0.360449E-04  0.479553E-04  0.701102E-04  0.109090E-03
  0.179723E-03  0.312972E-03  0.548919E-03  0.888528E-03  0.122487E-02  0.137017E-02
  0.122487E-02  0.888529E-03  0.548919E-03  0.312971E-03  0.179721E-03  0.109088E-03
  0.701081E-04  0.707291E-04  0.451180E-04  0.302380E-04  0.221825E-04  0.180807E-04
  0.163036E-04  0.163044E-04  0.180830E-04  0.221853E-04  0.302405E-04  0.451199E-04
  0.707304E-04  0.113510E-03  0.186914E-03  0.312971E-03  0.506218E-03  0.734319E-03
  0.898501E-03  0.898502E-03  0.734321E-03  0.506219E-03  0.312972E-03  0.186914E-03
  0.113509E-03  0.707291E-04  0.712125E-04  0.442774E-04  0.276765E-04  0.180801E-04
  0.128132E-04  0.101200E-04  0.927039E-05  0.101216E-04  0.128156E-04  0.180824E-04
  0.276780E-04  0.442782E-04  0.712125E-04  0.113509E-03  0.179721E-03  0.278730E-03
  0.405027E-03  0.521344E-03  0.569952E-03  0.521346E-03  0.405030E-03  0.278733E-03
  0.179723E-03  0.113510E-03  0.712125E-04  0.707304E-04  0.442782E-04  0.269406E-04
  0.163023E-04  0.101190E-04  0.668790E-05  0.511508E-05  0.511571E-05  0.668941E-05
  0.101206E-04  0.163032E-04  0.269406E-04  0.442774E-04  0.707291E-04  0.109088E-03
  0.162257E-03  0.229353E-03  0.298229E-03  0.343986E-03  0.343986E-03  0.298231E-03
  0.229356E-03  0.162260E-03  0.109090E-03  0.707304E-04  0.701102E-04  0.451199E-04
  0.276780E-04  0.163032E-04  0.926888E-05  0.511409E-05  0.291325E-05  0.222147E-05
  0.291384E-05  0.511472E-05  0.926888E-05  0.163023E-04  0.276765E-04  0.451180E-04
  0.701081E-04  0.103364E-03  0.143819E-03  0.186419E-03  0.220610E-03  0.233936E-03
  0.220612E-03  0.186422E-03  0.143822E-03  0.103366E-03  0.701102E-04  0.719714E-04
  0.479553E-04  0.302405E-04  0.180824E-04  0.101206E-04  0.511472E-05  0.222096E-05
  0.914258E-06  0.914346E-06  0.222096E-05  0.511409E-05  0.101190E-04  0.180801E-04
  0.302380E-04  0.479529E-04  0.719692E-04  0.101501E-03  0.133371E-03  0.161580E-03
  0.178508E-03  0.178508E-03  0.161582E-03  0.133373E-03  0.101503E-03  0.719714E-04
  0.805894E-04  0.555061E-04  0.360449E-04  0.221853E-04  0.128156E-04  0.668941E-05
  0.291384E-05  0.914346E-06  0.299697E-06  0.914258E-06  0.291325E-05  0.668790E-05
  0.128132E-04  0.221825E-04  0.360423E-04  0.555038E-04  0.805872E-04  0.109292E-03
  0.137175E-03  0.157958E-03  0.165714E-03  0.157959E-03  0.137177E-03  0.109294E-03
  0.805894E-04  0.101503E-03  0.719718E-04  0.479556E-04  0.302408E-04  0.180830E-04
  0.101216E-04  0.511571E-05  0.222147E-05  0.914258E-06  0.914346E-06  0.222147E-05
  0.511508E-05  0.101200E-04  0.180807E-04  0.302383E-04  0.479532E-04  0.719696E-04
  0.101501E-03  0.133370E-03  0.161579E-03  0.178506E-03  0.178506E-03  0.161580E-03
  0.133373E-03  0.101503E-03  0.143822E-03  0.103367E-03  0.701110E-04  0.451205E-04
  0.276788E-04  0.163044E-04  0.927039E-05  0.511508E-05  0.291325E-05  0.222096E-05
  0.291384E-05  0.511571E-05  0.927039E-05  0.163036E-04  0.276773E-04  0.451186E-04
  0.701090E-04  0.103365E-03  0.143819E-03  0.186418E-03  0.220608E-03  0.233933E-03
  0.220609E-03  0.186421E-03  0.143822E-03  0.229356E-03  0.162261E-03  0.109091E-03
  0.707315E-04  0.442791E-04  0.269417E-04  0.163036E-04  0.101200E-04  0.668790E-05
  0.511409E-05  0.511472E-05  0.668941E-05  0.101216E-04  0.163044E-04  0.269417E-04
  0.442784E-04  0.707303E-04  0.109089E-03  0.162258E-03  0.229354E-03  0.298228E-03
  0.343984E-03  0.343985E-03  0.298230E-03  0.229356E-03  0.405030E-03  0.278734E-03
  0.179725E-03  0.113512E-03  0.712137E-04  0.442784E-04  0.276773E-04  0.180807E-04
  0.128132E-04  0.101190E-04  0.926888E-05  0.101206E-04  0.128156E-04  0.180830E-04
  0.276788E-04  0.442791E-04  0.712137E-04  0.113511E-03  0.179723E-03  0.278732E-03
  0.405028E-03  0.521344E-03  0.569952E-03  0.521346E-03  0.405030E-03  0.734322E-03
  0.506221E-03  0.312974E-03  0.186916E-03  0.113511E-03  0.707303E-04  0.451186E-04
  0.302383E-04  0.221825E-04  0.180801E-04  0.163023E-04  0.163032E-04  0.180824E-04
  0.221853E-04  0.302408E-04  0.451205E-04  0.707315E-04  0.113512E-03  0.186916E-03
  0.312973E-03  0.506219E-03  0.734320E-03  0.898502E-03  0.898503E-03  0.734322E-03
  0.122487E-02  0.888530E-03  0.548920E-03  0.312973E-03  0.179723E-03  0.109089E-03
  0.701090E-04  0.479532E-04  0.360423E-04  0.302380E-04  0.276765E-04  0.269406E-04
  0.276780E-04  0.302405E-04  0.360449E-04  0.479556E-04  0.701110E-04  0.109091E-03
  0.179725E-03  0.312974E-03  0.548920E-03  0.888530E-03  0.122487E-02  0.137017E-02
  0.122487E-02  0.171985E-02  0.136598E-02  0.888530E-03  0.506219E-03  0.278732E-03
  0.162258E-03  0.103365E-03  0.719696E-04  0.555038E-04  0.479529E-04  0.451180E-04
  0.442774E-04  0.442782E-04  0.451199E-04  0.479553E-04  0.555061E-04  0.719718E-04
  0.103367E-03  0.162261E-03  0.278734E-03  0.506221E-03  0.888530E-03  0.136598E-02
  0.171985E-02  0.171985E-02  0.193541E-02  0.171985E-02  0.122487E-02  0.734320E-03
  0.405028E-03  0.229354E-03  0.143819E-03  0.101501E-03  0.805872E-04  0.719692E-04
  0.701081E-04  0.707291E-04  0.712125E-04  0.707304E-04  0.701102E-04  0.719714E-04
  0.805894E-04  0.101503E-03  0.143822E-03  0.229356E-03  0.405030E-03  0.734322E-03
  0.122487E-02  0.171985E-02  0.193541E-02  0.242131E-02  0.217627E-02  0.160664E-02
  0.102578E-02  0.615374E-03  0.378279E-03  0.250375E-03  0.180894E-03  0.144827E-03
  0.129691E-03  0.126083E-03  0.126649E-03  0.127238E-03  0.126650E-03  0.126085E-03
  0.129694E-03  0.144830E-03  0.180897E-03  0.250379E-03  0.378282E-03  0.615377E-03
  0.102578E-02  0.160664E-02  0.217627E-02  0.242131E-02  0.217627E-02  0.217627E-02
  0.177579E-02  0.122455E-02  0.766040E-03  0.476702E-03  0.317983E-03  0.234896E-03
  0.194491E-03  0.180894E-03  0.183310E-03  0.191718E-03  0.198084E-03  0.198085E-03
  0.191721E-03  0.183313E-03  0.180897E-03  0.194494E-03  0.234899E-03  0.317986E-03
  0.476705E-03  0.766042E-03  0.122455E-02  0.177579E-02  0.217627E-02  0.160664E-02
  0.176954E-02  0.160664E-02  0.122455E-02  0.827701E-03  0.539906E-03  0.370282E-03
  0.281488E-03  0.241878E-03  0.234897E-03  0.250375E-03  0.277117E-03  0.301560E-03
  0.311410E-03  0.301562E-03  0.277120E-03  0.250378E-03  0.234900E-03  0.241880E-03
  0.281490E-03  0.370283E-03  0.539907E-03  0.827701E-03  0.122455E-02  0.160664E-02
  0.102578E-02  0.120923E-02  0.120923E-02  0.102578E-02  0.766042E-03  0.539907E-03
  0.390250E-03  0.308894E-03  0.276581E-03  0.281489E-03  0.317984E-03  0.378278E-03
  0.444548E-03  0.489134E-03  0.489135E-03  0.444551E-03  0.378282E-03  0.317987E-03
  0.281492E-03  0.276583E-03  0.308895E-03  0.390250E-03  0.539906E-03  0.766040E-03
  0.102578E-02  0.615374E-03  0.741944E-03  0.794377E-03  0.741946E-03  0.615377E-03
  0.476705E-03  0.370283E-03  0.308895E-03  0.289392E-03  0.308896E-03  0.370284E-03
  0.476703E-03  0.615374E-03  0.741942E-03  0.794376E-03  0.741944E-03  0.615376E-03
  0.476706E-03  0.370286E-03  0.308897E-03  0.289392E-03  0.308894E-03  0.370282E-03
  0.476702E-03  0.615374E-03  0.378279E-03  0.444550E-03  0.489136E-03  0.489137E-03
  0.444553E-03  0.378282E-03  0.317986E-03  0.281490E-03  0.276583E-03  0.308897E-03
  0.390253E-03  0.539908E-03  0.766040E-03  0.102578E-02  0.120923E-02  0.120923E-02
  0.102578E-02  0.766042E-03  0.539909E-03  0.390253E-03  0.308896E-03  0.276581E-03
  0.281488E-03  0.317983E-03  0.378279E-03  0.250375E-03  0.277118E-03  0.301562E-03
  0.311413E-03  0.301564E-03  0.277121E-03  0.250379E-03  0.234899E-03  0.241880E-03
  0.281492E-03  0.370286E-03  0.539909E-03  0.827702E-03  0.122455E-02  0.160663E-02
  0.176954E-02  0.160664E-02  0.122455E-02  0.827702E-03  0.539908E-03  0.370284E-03
  0.281489E-03  0.241878E-03  0.234896E-03  0.250375E-03  0.180894E-03  0.183311E-03
  0.191720E-03  0.198086E-03  0.198087E-03  0.191722E-03  0.183314E-03  0.180897E-03
  0.194494E-03  0.234900E-03  0.317987E-03  0.476706E-03  0.766042E-03  0.122455E-02
  0.177579E-02  0.217627E-02  0.217627E-02  0.177579E-02  0.122455E-02  0.766040E-03