
     Program PWSCF v.7.2 starts on 15Apr2024 at 12:52:47 

     This program is part of the open-source Quantum ESPRESSO suite
     for quantum simulation of materials; please cite
         "P. Giannozzi et al., J. Phys.:Condens. Matter 21 395502 (2009);
         "P. Giannozzi et al., J. Phys.:Condens. Matter 29 465901 (2017);
         "P. Giannozzi et al., J. Chem. Phys. 152 154105 (2020);
          URL http://www.quantum-espresso.org", 
     in publications or presentations arising from this work. More details at
     http://www.quantum-espresso.org/quote

     Parallel version (MPI & OpenMP), running on       8 processor cores
     Number of MPI processes:                 8
     Threads/MPI process:                     1

     MPI processes distributed on     1 nodes
     0 MiB available memory on the printing compute node when the environment starts

     Waiting for input...
     Reading input from standard input
Warning: card &IONS ignored
Warning: card / ignored
Warning: card &CELL ignored
Warning: card CELL_DOFREE = 'ALL' ignored
Warning: card / ignored

     Current dimensions of program PWSCF are:
     Max number of different atomic species (ntypx) = 10
     Max number of k-points (npk) =  40000
     Max angular momentum in pseudopotentials (lmaxx) =  4

     Atomic positions and unit cell read from directory:
     ./tmp/C2L_AA_PBE_vdW.save/
     Atomic positions from file used, from input discarded


     IMPORTANT: XC functional enforced from input :
     Exchange-correlation= VDW-DF2-B86R
                           (   1   4  26   0   2   0   0)
     Any further DFT definition will be discarded
     Please, verify this is what you really want


     R & G space division:  proc/nbgrp/npool/nimage =       8
     Subspace diagonalization in iterative solution of the eigenvalue problem:
     a serial algorithm will be used


     Parallelization info
     --------------------
     sticks:   dense  smooth     PW     G-vecs:    dense   smooth      PW
     Min          45      45     13                 5519     5519     937
     Max          46      46     14                 5546     5546     966
     Sum         361     361    109                44285    44285    7639

     Using Slab Decomposition



     bravais-lattice index     =            4
     lattice parameter (alat)  =       4.6650  a.u.
     unit-cell volume          =     703.3340 (a.u.)^3
     number of atoms/cell      =            4
     number of atomic types    =            1
     number of electrons       =        16.00
     number of Kohn-Sham states=           16
     kinetic-energy cutoff     =      60.0000  Ry
     charge density cutoff     =     240.0000  Ry
     Exchange-correlation= VDW-DF2-B86R
                           (   1   4  26   0   2   0   0)

     celldm(1)=   4.664950  celldm(2)=   0.000000  celldm(3)=   8.000000
     celldm(4)=   0.000000  celldm(5)=   0.000000  celldm(6)=   0.000000

     crystal axes: (cart. coord. in units of alat)
               a(1) = (   1.000000   0.000000   0.000000 )  
               a(2) = (  -0.500000   0.866025   0.000000 )  
               a(3) = (   0.000000   0.000000   8.000000 )  

     reciprocal axes: (cart. coord. in units 2 pi/alat)
               b(1) = (  1.000000  0.577350 -0.000000 )  
               b(2) = (  0.000000  1.154701  0.000000 )  
               b(3) = (  0.000000 -0.000000  0.125000 )  


     PseudoPot. # 1 for C  read from file:
     ../../../../Pseudo/PBE/C.upf
     MD5 check sum: 34a24e64c0a39f27c6c36b90a16ac686
     Pseudo is Norm-conserving + core correction, Zval =  4.0
     Generated using ONCVPSP code by D. R. Hamann
     Using radial grid of 1248 points,  4 beta functions with: 
                l(1) =   0
                l(2) =   0
                l(3) =   1
                l(4) =   1

     atomic species   valence    mass     pseudopotential
        C              4.00    12.01100     C ( 1.00)

     12 Sym. Ops. (no inversion) found ( 6 have fractional translation)


                                    s                        frac. trans.

      isym =  1     identity                                     

 cryst.   s( 1) = (     1          0          0      )
                  (     0          1          0      )
                  (     0          0          1      )

 cart.    s( 1) = (  1.0000000  0.0000000  0.0000000 )
                  (  0.0000000  1.0000000  0.0000000 )
                  (  0.0000000  0.0000000  1.0000000 )


      isym =  2     180 deg rotation - cart. axis [0,0,1]        

 cryst.   s( 2) = (    -1          0          0      )    f =(  0.3333330 )
                  (     0         -1          0      )       ( -0.3333330 )
                  (     0          0          1      )       (  0.0000000 )

 cart.    s( 2) = ( -1.0000000  0.0000000  0.0000000 )    f =(  0.4999995 )
                  (  0.0000000 -1.0000000  0.0000000 )       ( -0.2886748 )
                  (  0.0000000  0.0000000  1.0000000 )       (  0.0000000 )


      isym =  3      60 deg rotation - cryst. axis [0,0,1]       

 cryst.   s( 3) = (     1          1          0      )    f =(  0.3333340 )
                  (    -1          0          0      )       ( -0.3333330 )
                  (     0          0          1      )       (  0.0000000 )

 cart.    s( 3) = (  0.5000000 -0.8660254  0.0000000 )    f =(  0.5000005 )
                  (  0.8660254  0.5000000  0.0000000 )       ( -0.2886748 )
                  (  0.0000000  0.0000000  1.0000000 )       (  0.0000000 )


      isym =  4      60 deg rotation - cryst. axis [0,0,-1]      

 cryst.   s( 4) = (     0         -1          0      )    f =(  0.3333330 )
                  (     1          1          0      )       ( -0.3333340 )
                  (     0          0          1      )       (  0.0000000 )

 cart.    s( 4) = (  0.5000000  0.8660254  0.0000000 )    f =(  0.5000000 )
                  ( -0.8660254  0.5000000  0.0000000 )       ( -0.2886757 )
                  (  0.0000000  0.0000000  1.0000000 )       (  0.0000000 )


      isym =  5     120 deg rotation - cryst. axis [0,0,1]       

 cryst.   s( 5) = (     0          1          0      )
                  (    -1         -1          0      )
                  (     0          0          1      )

 cart.    s( 5) = ( -0.5000000 -0.8660254  0.0000000 )
                  (  0.8660254 -0.5000000  0.0000000 )
                  (  0.0000000  0.0000000  1.0000000 )


      isym =  6     120 deg rotation - cryst. axis [0,0,-1]      

 cryst.   s( 6) = (    -1         -1          0      )
                  (     1          0          0      )
                  (     0          0          1      )

 cart.    s( 6) = ( -0.5000000  0.8660254  0.0000000 )
                  ( -0.8660254 -0.5000000  0.0000000 )
                  (  0.0000000  0.0000000  1.0000000 )


      isym =  7     inv. 180 deg rotation - cart. axis [0,1,0]   

 cryst.   s( 7) = (     1          0          0      )    f =(  0.3333340 )
                  (    -1         -1          0      )       ( -0.3333330 )
                  (     0          0          1      )       (  0.0000000 )

 cart.    s( 7) = (  1.0000000  0.0000000  0.0000000 )    f =(  0.5000005 )
                  (  0.0000000 -1.0000000  0.0000000 )       ( -0.2886748 )
                  (  0.0000000  0.0000000  1.0000000 )       (  0.0000000 )


      isym =  8     inv. 180 deg rotation - cart. axis [1,0,0]   

 cryst.   s( 8) = (    -1          0          0      )
                  (     1          1          0      )
                  (     0          0          1      )

 cart.    s( 8) = ( -1.0000000  0.0000000  0.0000000 )
                  (  0.0000000  1.0000000  0.0000000 )
                  (  0.0000000  0.0000000  1.0000000 )


      isym =  9     inv. 180 deg rotation - cryst. axis [1,-1,0] 

 cryst.   s( 9) = (     0          1          0      )    f =(  0.3333330 )
                  (     1          0          0      )       ( -0.3333330 )
                  (     0          0          1      )       (  0.0000000 )

 cart.    s( 9) = ( -0.5000000  0.8660254  0.0000000 )    f =(  0.4999995 )
                  (  0.8660254  0.5000000  0.0000000 )       ( -0.2886748 )
                  (  0.0000000  0.0000000  1.0000000 )       (  0.0000000 )


      isym = 10     inv. 180 deg rotation - cryst. axis [2,1,0]  

 cryst.   s(10) = (    -1         -1          0      )    f =(  0.3333330 )
                  (     0          1          0      )       ( -0.3333340 )
                  (     0          0          1      )       (  0.0000000 )

 cart.    s(10) = ( -0.5000000 -0.8660254  0.0000000 )    f =(  0.5000000 )
                  ( -0.8660254  0.5000000  0.0000000 )       ( -0.2886757 )
                  (  0.0000000  0.0000000  1.0000000 )       (  0.0000000 )


      isym = 11     inv. 180 deg rotation - cryst. axis [0,1,0]  

 cryst.   s(11) = (     1          1          0      )
                  (     0         -1          0      )
                  (     0          0          1      )

 cart.    s(11) = (  0.5000000  0.8660254  0.0000000 )
                  (  0.8660254 -0.5000000  0.0000000 )
                  (  0.0000000  0.0000000  1.0000000 )


      isym = 12     inv. 180 deg rotation - cryst. axis [1,1,0]  

 cryst.   s(12) = (     0         -1          0      )
                  (    -1          0          0      )
                  (     0          0          1      )

 cart.    s(12) = (  0.5000000 -0.8660254  0.0000000 )
                  ( -0.8660254 -0.5000000  0.0000000 )
                  (  0.0000000  0.0000000  1.0000000 )


     point group C_6v (6mm) 
     there are  6 classes
     the character table:

       E     2C6   2C3   C2    3s_v  3s_d 
A_1    1.00  1.00  1.00  1.00  1.00  1.00
A_2    1.00  1.00  1.00  1.00 -1.00 -1.00
B_1    1.00 -1.00  1.00 -1.00  1.00 -1.00
B_2    1.00 -1.00  1.00 -1.00 -1.00  1.00
E_1    2.00  1.00 -1.00 -2.00  0.00  0.00
E_2    2.00 -1.00 -1.00  2.00  0.00  0.00

     the symmetry operations in each class and the name of the first element:

     E        1
          identity                                               
     2C6      3    4
           60 deg rotation - cryst. axis [0,0,1]                 
     2C3      5    6
          120 deg rotation - cryst. axis [0,0,1]                 
     C2       2
          180 deg rotation - cart. axis [0,0,1]                  
     3s_v     8   12   11
          inv. 180 deg rotation - cart. axis [1,0,0]             
     3s_d     7    9   10
          inv. 180 deg rotation - cart. axis [0,1,0]             

   Cartesian axes

     site n.     atom                  positions (alat units)
         1           C   tau(   1) = (   0.0000000   0.0000000   0.0000000  )
         2           C   tau(   2) = (   0.5000005   0.2886748   0.0000000  )
         3           C   tau(   3) = (   0.0000000   0.0000000   1.4125120  )
         4           C   tau(   4) = (   0.5000005   0.2886748   1.4125120  )

   Crystallographic axes

     site n.     atom                  positions (cryst. coord.)
         1           C   tau(   1) = (  0.0000000  0.0000000  0.0000000  )
         2           C   tau(   2) = (  0.6666670  0.3333330  0.0000000  )
         3           C   tau(   3) = (  0.0000000  0.0000000  0.1765640  )
         4           C   tau(   4) = (  0.6666670  0.3333330  0.1765640  )

     number of k points=   234  Marzari-Vanderbilt smearing, width (Ry)=  0.0050
                       cart. coord. in units 2pi/alat
        k(    1) = (   0.0000000   0.0000000   0.0000000), wk =   0.0008000
        k(    2) = (   0.0000000   0.0230940   0.0000000), wk =   0.0048000
        k(    3) = (   0.0000000   0.0461880   0.0000000), wk =   0.0048000
        k(    4) = (   0.0000000   0.0692820   0.0000000), wk =   0.0048000
        k(    5) = (   0.0000000   0.0923760   0.0000000), wk =   0.0048000
        k(    6) = (   0.0000000   0.1154701   0.0000000), wk =   0.0048000
        k(    7) = (   0.0000000   0.1385641   0.0000000), wk =   0.0048000
        k(    8) = (   0.0000000   0.1616581   0.0000000), wk =   0.0048000
        k(    9) = (   0.0000000   0.1847521   0.0000000), wk =   0.0048000
        k(   10) = (   0.0000000   0.2078461   0.0000000), wk =   0.0048000
        k(   11) = (   0.0000000   0.2309401   0.0000000), wk =   0.0048000
        k(   12) = (   0.0000000   0.2540341   0.0000000), wk =   0.0048000
        k(   13) = (   0.0000000   0.2771281   0.0000000), wk =   0.0048000
        k(   14) = (   0.0000000   0.3002221   0.0000000), wk =   0.0048000
        k(   15) = (   0.0000000   0.3233162   0.0000000), wk =   0.0048000
        k(   16) = (   0.0000000   0.3464102   0.0000000), wk =   0.0048000
        k(   17) = (   0.0000000   0.3695042   0.0000000), wk =   0.0048000
        k(   18) = (   0.0000000   0.3925982   0.0000000), wk =   0.0048000
        k(   19) = (   0.0000000   0.4156922   0.0000000), wk =   0.0048000
        k(   20) = (   0.0000000   0.4387862   0.0000000), wk =   0.0048000
        k(   21) = (   0.0000000   0.4618802   0.0000000), wk =   0.0048000
        k(   22) = (   0.0000000   0.4849742   0.0000000), wk =   0.0048000
        k(   23) = (   0.0000000   0.5080682   0.0000000), wk =   0.0048000
        k(   24) = (   0.0000000   0.5311622   0.0000000), wk =   0.0048000
        k(   25) = (   0.0000000   0.5542563   0.0000000), wk =   0.0048000
        k(   26) = (   0.0000000  -0.5773503   0.0000000), wk =   0.0024000
        k(   27) = (   0.0200000   0.0346410   0.0000000), wk =   0.0048000
        k(   28) = (   0.0200000   0.0577350   0.0000000), wk =   0.0096000
        k(   29) = (   0.0200000   0.0808290   0.0000000), wk =   0.0096000
        k(   30) = (   0.0200000   0.1039230   0.0000000), wk =   0.0096000
        k(   31) = (   0.0200000   0.1270171   0.0000000), wk =   0.0096000
        k(   32) = (   0.0200000   0.1501111   0.0000000), wk =   0.0096000
        k(   33) = (   0.0200000   0.1732051   0.0000000), wk =   0.0096000
        k(   34) = (   0.0200000   0.1962991   0.0000000), wk =   0.0096000
        k(   35) = (   0.0200000   0.2193931   0.0000000), wk =   0.0096000
        k(   36) = (   0.0200000   0.2424871   0.0000000), wk =   0.0096000
        k(   37) = (   0.0200000   0.2655811   0.0000000), wk =   0.0096000
        k(   38) = (   0.0200000   0.2886751   0.0000000), wk =   0.0096000
        k(   39) = (   0.0200000   0.3117691   0.0000000), wk =   0.0096000
        k(   40) = (   0.0200000   0.3348632   0.0000000), wk =   0.0096000
        k(   41) = (   0.0200000   0.3579572   0.0000000), wk =   0.0096000
        k(   42) = (   0.0200000   0.3810512   0.0000000), wk =   0.0096000
        k(   43) = (   0.0200000   0.4041452   0.0000000), wk =   0.0096000
        k(   44) = (   0.0200000   0.4272392   0.0000000), wk =   0.0096000
        k(   45) = (   0.0200000   0.4503332   0.0000000), wk =   0.0096000
        k(   46) = (   0.0200000   0.4734272   0.0000000), wk =   0.0096000
        k(   47) = (   0.0200000   0.4965212   0.0000000), wk =   0.0096000
        k(   48) = (   0.0200000   0.5196152   0.0000000), wk =   0.0096000
        k(   49) = (   0.0200000   0.5427093   0.0000000), wk =   0.0096000
        k(   50) = (   0.0200000   0.5658033   0.0000000), wk =   0.0096000
        k(   51) = (   0.0400000   0.0692820   0.0000000), wk =   0.0048000
        k(   52) = (   0.0400000   0.0923760   0.0000000), wk =   0.0096000
        k(   53) = (   0.0400000   0.1154701   0.0000000), wk =   0.0096000
        k(   54) = (   0.0400000   0.1385641   0.0000000), wk =   0.0096000
        k(   55) = (   0.0400000   0.1616581   0.0000000), wk =   0.0096000
        k(   56) = (   0.0400000   0.1847521   0.0000000), wk =   0.0096000
        k(   57) = (   0.0400000   0.2078461   0.0000000), wk =   0.0096000
        k(   58) = (   0.0400000   0.2309401   0.0000000), wk =   0.0096000
        k(   59) = (   0.0400000   0.2540341   0.0000000), wk =   0.0096000
        k(   60) = (   0.0400000   0.2771281   0.0000000), wk =   0.0096000
        k(   61) = (   0.0400000   0.3002221   0.0000000), wk =   0.0096000
        k(   62) = (   0.0400000   0.3233162   0.0000000), wk =   0.0096000
        k(   63) = (   0.0400000   0.3464102   0.0000000), wk =   0.0096000
        k(   64) = (   0.0400000   0.3695042   0.0000000), wk =   0.0096000
        k(   65) = (   0.0400000   0.3925982   0.0000000), wk =   0.0096000
        k(   66) = (   0.0400000   0.4156922   0.0000000), wk =   0.0096000
        k(   67) = (   0.0400000   0.4387862   0.0000000), wk =   0.0096000
        k(   68) = (   0.0400000   0.4618802   0.0000000), wk =   0.0096000
        k(   69) = (   0.0400000   0.4849742   0.0000000), wk =   0.0096000
        k(   70) = (   0.0400000   0.5080682   0.0000000), wk =   0.0096000
        k(   71) = (   0.0400000   0.5311622   0.0000000), wk =   0.0096000
        k(   72) = (   0.0400000   0.5542563   0.0000000), wk =   0.0096000
        k(   73) = (   0.0400000   0.5773503   0.0000000), wk =   0.0048000
        k(   74) = (   0.0600000   0.1039230   0.0000000), wk =   0.0048000
        k(   75) = (   0.0600000   0.1270171   0.0000000), wk =   0.0096000
        k(   76) = (   0.0600000   0.1501111   0.0000000), wk =   0.0096000
        k(   77) = (   0.0600000   0.1732051   0.0000000), wk =   0.0096000
        k(   78) = (   0.0600000   0.1962991   0.0000000), wk =   0.0096000
        k(   79) = (   0.0600000   0.2193931   0.0000000), wk =   0.0096000
        k(   80) = (   0.0600000   0.2424871   0.0000000), wk =   0.0096000
        k(   81) = (   0.0600000   0.2655811   0.0000000), wk =   0.0096000
        k(   82) = (   0.0600000   0.2886751   0.0000000), wk =   0.0096000
        k(   83) = (   0.0600000   0.3117691   0.0000000), wk =   0.0096000
        k(   84) = (   0.0600000   0.3348632   0.0000000), wk =   0.0096000
        k(   85) = (   0.0600000   0.3579572   0.0000000), wk =   0.0096000
        k(   86) = (   0.0600000   0.3810512   0.0000000), wk =   0.0096000
        k(   87) = (   0.0600000   0.4041452   0.0000000), wk =   0.0096000
        k(   88) = (   0.0600000   0.4272392   0.0000000), wk =   0.0096000
        k(   89) = (   0.0600000   0.4503332   0.0000000), wk =   0.0096000
        k(   90) = (   0.0600000   0.4734272   0.0000000), wk =   0.0096000
        k(   91) = (   0.0600000   0.4965212   0.0000000), wk =   0.0096000
        k(   92) = (   0.0600000   0.5196152   0.0000000), wk =   0.0096000
        k(   93) = (   0.0600000   0.5427093   0.0000000), wk =   0.0096000
        k(   94) = (   0.0600000   0.5658033   0.0000000), wk =   0.0096000
        k(   95) = (   0.0800000   0.1385641   0.0000000), wk =   0.0048000
        k(   96) = (   0.0800000   0.1616581   0.0000000), wk =   0.0096000
        k(   97) = (   0.0800000   0.1847521   0.0000000), wk =   0.0096000
        k(   98) = (   0.0800000   0.2078461   0.0000000), wk =   0.0096000
        k(   99) = (   0.0800000   0.2309401   0.0000000), wk =   0.0096000
        k(  100) = (   0.0800000   0.2540341   0.0000000), wk =   0.0096000
        k(  101) = (   0.0800000   0.2771281   0.0000000), wk =   0.0096000
        k(  102) = (   0.0800000   0.3002221   0.0000000), wk =   0.0096000
        k(  103) = (   0.0800000   0.3233162   0.0000000), wk =   0.0096000
        k(  104) = (   0.0800000   0.3464102   0.0000000), wk =   0.0096000
        k(  105) = (   0.0800000   0.3695042   0.0000000), wk =   0.0096000
        k(  106) = (   0.0800000   0.3925982   0.0000000), wk =   0.0096000
        k(  107) = (   0.0800000   0.4156922   0.0000000), wk =   0.0096000
        k(  108) = (   0.0800000   0.4387862   0.0000000), wk =   0.0096000
        k(  109) = (   0.0800000   0.4618802   0.0000000), wk =   0.0096000
        k(  110) = (   0.0800000   0.4849742   0.0000000), wk =   0.0096000
        k(  111) = (   0.0800000   0.5080682   0.0000000), wk =   0.0096000
        k(  112) = (   0.0800000   0.5311622   0.0000000), wk =   0.0096000
        k(  113) = (   0.0800000   0.5542563   0.0000000), wk =   0.0096000
        k(  114) = (   0.0800000   0.5773503   0.0000000), wk =   0.0048000
        k(  115) = (   0.1000000   0.1732051   0.0000000), wk =   0.0048000
        k(  116) = (   0.1000000   0.1962991   0.0000000), wk =   0.0096000
        k(  117) = (   0.1000000   0.2193931   0.0000000), wk =   0.0096000
        k(  118) = (   0.1000000   0.2424871   0.0000000), wk =   0.0096000
        k(  119) = (   0.1000000   0.2655811   0.0000000), wk =   0.0096000
        k(  120) = (   0.1000000   0.2886751   0.0000000), wk =   0.0096000
        k(  121) = (   0.1000000   0.3117691   0.0000000), wk =   0.0096000
        k(  122) = (   0.1000000   0.3348632   0.0000000), wk =   0.0096000
        k(  123) = (   0.1000000   0.3579572   0.0000000), wk =   0.0096000
        k(  124) = (   0.1000000   0.3810512   0.0000000), wk =   0.0096000
        k(  125) = (   0.1000000   0.4041452   0.0000000), wk =   0.0096000
        k(  126) = (   0.1000000   0.4272392   0.0000000), wk =   0.0096000
        k(  127) = (   0.1000000   0.4503332   0.0000000), wk =   0.0096000
        k(  128) = (   0.1000000   0.4734272   0.0000000), wk =   0.0096000
        k(  129) = (   0.1000000   0.4965212   0.0000000), wk =   0.0096000
        k(  130) = (   0.1000000   0.5196152   0.0000000), wk =   0.0096000
        k(  131) = (   0.1000000   0.5427093   0.0000000), wk =   0.0096000
        k(  132) = (   0.1000000   0.5658033   0.0000000), wk =   0.0096000
        k(  133) = (   0.1200000   0.2078461   0.0000000), wk =   0.0048000
        k(  134) = (   0.1200000   0.2309401   0.0000000), wk =   0.0096000
        k(  135) = (   0.1200000   0.2540341   0.0000000), wk =   0.0096000
        k(  136) = (   0.1200000   0.2771281   0.0000000), wk =   0.0096000
        k(  137) = (   0.1200000   0.3002221   0.0000000), wk =   0.0096000
        k(  138) = (   0.1200000   0.3233162   0.0000000), wk =   0.0096000
        k(  139) = (   0.1200000   0.3464102   0.0000000), wk =   0.0096000
        k(  140) = (   0.1200000   0.3695042   0.0000000), wk =   0.0096000
        k(  141) = (   0.1200000   0.3925982   0.0000000), wk =   0.0096000
        k(  142) = (   0.1200000   0.4156922   0.0000000), wk =   0.0096000
        k(  143) = (   0.1200000   0.4387862   0.0000000), wk =   0.0096000
        k(  144) = (   0.1200000   0.4618802   0.0000000), wk =   0.0096000
        k(  145) = (   0.1200000   0.4849742   0.0000000), wk =   0.0096000
        k(  146) = (   0.1200000   0.5080682   0.0000000), wk =   0.0096000
        k(  147) = (   0.1200000   0.5311622   0.0000000), wk =   0.0096000
        k(  148) = (   0.1200000   0.5542563   0.0000000), wk =   0.0096000
        k(  149) = (   0.1200000   0.5773503   0.0000000), wk =   0.0048000
        k(  150) = (   0.1400000   0.2424871   0.0000000), wk =   0.0048000
        k(  151) = (   0.1400000   0.2655811   0.0000000), wk =   0.0096000
        k(  152) = (   0.1400000   0.2886751   0.0000000), wk =   0.0096000
        k(  153) = (   0.1400000   0.3117691   0.0000000), wk =   0.0096000
        k(  154) = (   0.1400000   0.3348632   0.0000000), wk =   0.0096000
        k(  155) = (   0.1400000   0.3579572   0.0000000), wk =   0.0096000
        k(  156) = (   0.1400000   0.3810512   0.0000000), wk =   0.0096000
        k(  157) = (   0.1400000   0.4041452   0.0000000), wk =   0.0096000
        k(  158) = (   0.1400000   0.4272392   0.0000000), wk =   0.0096000
        k(  159) = (   0.1400000   0.4503332   0.0000000), wk =   0.0096000
        k(  160) = (   0.1400000   0.4734272   0.0000000), wk =   0.0096000
        k(  161) = (   0.1400000   0.4965212   0.0000000), wk =   0.0096000
        k(  162) = (   0.1400000   0.5196152   0.0000000), wk =   0.0096000
        k(  163) = (   0.1400000   0.5427093   0.0000000), wk =   0.0096000
        k(  164) = (   0.1400000   0.5658033   0.0000000), wk =   0.0096000
        k(  165) = (   0.1600000   0.2771281   0.0000000), wk =   0.0048000
        k(  166) = (   0.1600000   0.3002221   0.0000000), wk =   0.0096000
        k(  167) = (   0.1600000   0.3233162   0.0000000), wk =   0.0096000
        k(  168) = (   0.1600000   0.3464102   0.0000000), wk =   0.0096000
        k(  169) = (   0.1600000   0.3695042   0.0000000), wk =   0.0096000
        k(  170) = (   0.1600000   0.3925982   0.0000000), wk =   0.0096000
        k(  171) = (   0.1600000   0.4156922   0.0000000), wk =   0.0096000
        k(  172) = (   0.1600000   0.4387862   0.0000000), wk =   0.0096000
        k(  173) = (   0.1600000   0.4618802   0.0000000), wk =   0.0096000
        k(  174) = (   0.1600000   0.4849742   0.0000000), wk =   0.0096000
        k(  175) = (   0.1600000   0.5080682   0.0000000), wk =   0.0096000
        k(  176) = (   0.1600000   0.5311622   0.0000000), wk =   0.0096000
        k(  177) = (   0.1600000   0.5542563   0.0000000), wk =   0.0096000
        k(  178) = (   0.1600000   0.5773503   0.0000000), wk =   0.0048000
        k(  179) = (   0.1800000   0.3117691   0.0000000), wk =   0.0048000
        k(  180) = (   0.1800000   0.3348632   0.0000000), wk =   0.0096000
        k(  181) = (   0.1800000   0.3579572   0.0000000), wk =   0.0096000
        k(  182) = (   0.1800000   0.3810512   0.0000000), wk =   0.0096000
        k(  183) = (   0.1800000   0.4041452   0.0000000), wk =   0.0096000
        k(  184) = (   0.1800000   0.4272392   0.0000000), wk =   0.0096000
        k(  185) = (   0.1800000   0.4503332   0.0000000), wk =   0.0096000
        k(  186) = (   0.1800000   0.4734272   0.0000000), wk =   0.0096000
        k(  187) = (   0.1800000   0.4965212   0.0000000), wk =   0.0096000
        k(  188) = (   0.1800000   0.5196152   0.0000000), wk =   0.0096000
        k(  189) = (   0.1800000   0.5427093   0.0000000), wk =   0.0096000
        k(  190) = (   0.1800000   0.5658033   0.0000000), wk =   0.0096000
        k(  191) = (   0.2000000   0.3464102   0.0000000), wk =   0.0048000
        k(  192) = (   0.2000000   0.3695042   0.0000000), wk =   0.0096000
        k(  193) = (   0.2000000   0.3925982   0.0000000), wk =   0.0096000
        k(  194) = (   0.2000000   0.4156922   0.0000000), wk =   0.0096000
        k(  195) = (   0.2000000   0.4387862   0.0000000), wk =   0.0096000
        k(  196) = (   0.2000000   0.4618802   0.0000000), wk =   0.0096000
        k(  197) = (   0.2000000   0.4849742   0.0000000), wk =   0.0096000
        k(  198) = (   0.2000000   0.5080682   0.0000000), wk =   0.0096000
        k(  199) = (   0.2000000   0.5311622   0.0000000), wk =   0.0096000
        k(  200) = (   0.2000000   0.5542563   0.0000000), wk =   0.0096000
        k(  201) = (   0.2000000   0.5773503   0.0000000), wk =   0.0048000
        k(  202) = (   0.2200000   0.3810512   0.0000000), wk =   0.0048000
        k(  203) = (   0.2200000   0.4041452   0.0000000), wk =   0.0096000
        k(  204) = (   0.2200000   0.4272392   0.0000000), wk =   0.0096000
        k(  205) = (   0.2200000   0.4503332   0.0000000), wk =   0.0096000
        k(  206) = (   0.2200000   0.4734272   0.0000000), wk =   0.0096000
        k(  207) = (   0.2200000   0.4965212   0.0000000), wk =   0.0096000
        k(  208) = (   0.2200000   0.5196152   0.0000000), wk =   0.0096000
        k(  209) = (   0.2200000   0.5427093   0.0000000), wk =   0.0096000
        k(  210) = (   0.2200000   0.5658033   0.0000000), wk =   0.0096000
        k(  211) = (   0.2400000   0.4156922   0.0000000), wk =   0.0048000
        k(  212) = (   0.2400000   0.4387862   0.0000000), wk =   0.0096000
        k(  213) = (   0.2400000   0.4618802   0.0000000), wk =   0.0096000
        k(  214) = (   0.2400000   0.4849742   0.0000000), wk =   0.0096000
        k(  215) = (   0.2400000   0.5080682   0.0000000), wk =   0.0096000
        k(  216) = (   0.2400000   0.5311622   0.0000000), wk =   0.0096000
        k(  217) = (   0.2400000   0.5542563   0.0000000), wk =   0.0096000
        k(  218) = (   0.2400000   0.5773503   0.0000000), wk =   0.0048000
        k(  219) = (   0.2600000   0.4503332   0.0000000), wk =   0.0048000
        k(  220) = (   0.2600000   0.4734272   0.0000000), wk =   0.0096000
        k(  221) = (   0.2600000   0.4965212   0.0000000), wk =   0.0096000
        k(  222) = (   0.2600000   0.5196152   0.0000000), wk =   0.0096000
        k(  223) = (   0.2600000   0.5427093   0.0000000), wk =   0.0096000
        k(  224) = (   0.2600000   0.5658033   0.0000000), wk =   0.0096000
        k(  225) = (   0.2800000   0.4849742   0.0000000), wk =   0.0048000
        k(  226) = (   0.2800000   0.5080682   0.0000000), wk =   0.0096000
        k(  227) = (   0.2800000   0.5311622   0.0000000), wk =   0.0096000
        k(  228) = (   0.2800000   0.5542563   0.0000000), wk =   0.0096000
        k(  229) = (   0.2800000   0.5773503   0.0000000), wk =   0.0048000
        k(  230) = (   0.3000000   0.5196152   0.0000000), wk =   0.0048000
        k(  231) = (   0.3000000   0.5427093   0.0000000), wk =   0.0096000
        k(  232) = (   0.3000000   0.5658033   0.0000000), wk =   0.0096000
        k(  233) = (   0.3200000   0.5542563   0.0000000), wk =   0.0048000
        k(  234) = (   0.3200000   0.5773503   0.0000000), wk =   0.0048000

                       cryst. coord.
        k(    1) = (   0.0000000   0.0000000   0.0000000), wk =   0.0008000
        k(    2) = (   0.0000000   0.0200000   0.0000000), wk =   0.0048000
        k(    3) = (   0.0000000   0.0400000   0.0000000), wk =   0.0048000
        k(    4) = (   0.0000000   0.0600000   0.0000000), wk =   0.0048000
        k(    5) = (   0.0000000   0.0800000   0.0000000), wk =   0.0048000
        k(    6) = (   0.0000000   0.1000000   0.0000000), wk =   0.0048000
        k(    7) = (   0.0000000   0.1200000   0.0000000), wk =   0.0048000
        k(    8) = (   0.0000000   0.1400000   0.0000000), wk =   0.0048000
        k(    9) = (   0.0000000   0.1600000   0.0000000), wk =   0.0048000
        k(   10) = (   0.0000000   0.1800000   0.0000000), wk =   0.0048000
        k(   11) = (   0.0000000   0.2000000   0.0000000), wk =   0.0048000
        k(   12) = (   0.0000000   0.2200000   0.0000000), wk =   0.0048000
        k(   13) = (   0.0000000   0.2400000   0.0000000), wk =   0.0048000
        k(   14) = (   0.0000000   0.2600000   0.0000000), wk =   0.0048000
        k(   15) = (   0.0000000   0.2800000   0.0000000), wk =   0.0048000
        k(   16) = (   0.0000000   0.3000000   0.0000000), wk =   0.0048000
        k(   17) = (   0.0000000   0.3200000   0.0000000), wk =   0.0048000
        k(   18) = (   0.0000000   0.3400000   0.0000000), wk =   0.0048000
        k(   19) = (   0.0000000   0.3600000   0.0000000), wk =   0.0048000
        k(   20) = (   0.0000000   0.3800000   0.0000000), wk =   0.0048000
        k(   21) = (   0.0000000   0.4000000   0.0000000), wk =   0.0048000
        k(   22) = (   0.0000000   0.4200000   0.0000000), wk =   0.0048000
        k(   23) = (   0.0000000   0.4400000   0.0000000), wk =   0.0048000
        k(   24) = (   0.0000000   0.4600000   0.0000000), wk =   0.0048000
        k(   25) = (   0.0000000   0.4800000   0.0000000), wk =   0.0048000
        k(   26) = (   0.0000000  -0.5000000   0.0000000), wk =   0.0024000
        k(   27) = (   0.0200000   0.0200000   0.0000000), wk =   0.0048000
        k(   28) = (   0.0200000   0.0400000   0.0000000), wk =   0.0096000
        k(   29) = (   0.0200000   0.0600000   0.0000000), wk =   0.0096000
        k(   30) = (   0.0200000   0.0800000   0.0000000), wk =   0.0096000
        k(   31) = (   0.0200000   0.1000000   0.0000000), wk =   0.0096000
        k(   32) = (   0.0200000   0.1200000   0.0000000), wk =   0.0096000
        k(   33) = (   0.0200000   0.1400000   0.0000000), wk =   0.0096000
        k(   34) = (   0.0200000   0.1600000   0.0000000), wk =   0.0096000
        k(   35) = (   0.0200000   0.1800000   0.0000000), wk =   0.0096000
        k(   36) = (   0.0200000   0.2000000   0.0000000), wk =   0.0096000
        k(   37) = (   0.0200000   0.2200000   0.0000000), wk =   0.0096000
        k(   38) = (   0.0200000   0.2400000   0.0000000), wk =   0.0096000
        k(   39) = (   0.0200000   0.2600000   0.0000000), wk =   0.0096000
        k(   40) = (   0.0200000   0.2800000   0.0000000), wk =   0.0096000
        k(   41) = (   0.0200000   0.3000000   0.0000000), wk =   0.0096000
        k(   42) = (   0.0200000   0.3200000   0.0000000), wk =   0.0096000
        k(   43) = (   0.0200000   0.3400000   0.0000000), wk =   0.0096000
        k(   44) = (   0.0200000   0.3600000   0.0000000), wk =   0.0096000
        k(   45) = (   0.0200000   0.3800000   0.0000000), wk =   0.0096000
        k(   46) = (   0.0200000   0.4000000   0.0000000), wk =   0.0096000
        k(   47) = (   0.0200000   0.4200000   0.0000000), wk =   0.0096000
        k(   48) = (   0.0200000   0.4400000   0.0000000), wk =   0.0096000
        k(   49) = (   0.0200000   0.4600000   0.0000000), wk =   0.0096000
        k(   50) = (   0.0200000   0.4800000   0.0000000), wk =   0.0096000
        k(   51) = (   0.0400000   0.0400000   0.0000000), wk =   0.0048000
        k(   52) = (   0.0400000   0.0600000   0.0000000), wk =   0.0096000
        k(   53) = (   0.0400000   0.0800000   0.0000000), wk =   0.0096000
        k(   54) = (   0.0400000   0.1000000   0.0000000), wk =   0.0096000
        k(   55) = (   0.0400000   0.1200000   0.0000000), wk =   0.0096000
        k(   56) = (   0.0400000   0.1400000   0.0000000), wk =   0.0096000
        k(   57) = (   0.0400000   0.1600000   0.0000000), wk =   0.0096000
        k(   58) = (   0.0400000   0.1800000   0.0000000), wk =   0.0096000
        k(   59) = (   0.0400000   0.2000000   0.0000000), wk =   0.0096000
        k(   60) = (   0.0400000   0.2200000   0.0000000), wk =   0.0096000
        k(   61) = (   0.0400000   0.2400000   0.0000000), wk =   0.0096000
        k(   62) = (   0.0400000   0.2600000   0.0000000), wk =   0.0096000
        k(   63) = (   0.0400000   0.2800000   0.0000000), wk =   0.0096000
        k(   64) = (   0.0400000   0.3000000   0.0000000), wk =   0.0096000
        k(   65) = (   0.0400000   0.3200000   0.0000000), wk =   0.0096000
        k(   66) = (   0.0400000   0.3400000   0.0000000), wk =   0.0096000
        k(   67) = (   0.0400000   0.3600000   0.0000000), wk =   0.0096000
        k(   68) = (   0.0400000   0.3800000   0.0000000), wk =   0.0096000
        k(   69) = (   0.0400000   0.4000000   0.0000000), wk =   0.0096000
        k(   70) = (   0.0400000   0.4200000   0.0000000), wk =   0.0096000
        k(   71) = (   0.0400000   0.4400000   0.0000000), wk =   0.0096000
        k(   72) = (   0.0400000   0.4600000   0.0000000), wk =   0.0096000
        k(   73) = (   0.0400000   0.4800000   0.0000000), wk =   0.0048000
        k(   74) = (   0.0600000   0.0600000   0.0000000), wk =   0.0048000
        k(   75) = (   0.0600000   0.0800000   0.0000000), wk =   0.0096000
        k(   76) = (   0.0600000   0.1000000   0.0000000), wk =   0.0096000
        k(   77) = (   0.0600000   0.1200000   0.0000000), wk =   0.0096000
        k(   78) = (   0.0600000   0.1400000   0.0000000), wk =   0.0096000
        k(   79) = (   0.0600000   0.1600000   0.0000000), wk =   0.0096000
        k(   80) = (   0.0600000   0.1800000   0.0000000), wk =   0.0096000
        k(   81) = (   0.0600000   0.2000000   0.0000000), wk =   0.0096000
        k(   82) = (   0.0600000   0.2200000   0.0000000), wk =   0.0096000
        k(   83) = (   0.0600000   0.2400000   0.0000000), wk =   0.0096000
        k(   84) = (   0.0600000   0.2600000   0.0000000), wk =   0.0096000
        k(   85) = (   0.0600000   0.2800000   0.0000000), wk =   0.0096000
        k(   86) = (   0.0600000   0.3000000   0.0000000), wk =   0.0096000
        k(   87) = (   0.0600000   0.3200000   0.0000000), wk =   0.0096000
        k(   88) = (   0.0600000   0.3400000   0.0000000), wk =   0.0096000
        k(   89) = (   0.0600000   0.3600000   0.0000000), wk =   0.0096000
        k(   90) = (   0.0600000   0.3800000   0.0000000), wk =   0.0096000
        k(   91) = (   0.0600000   0.4000000   0.0000000), wk =   0.0096000
        k(   92) = (   0.0600000   0.4200000   0.0000000), wk =   0.0096000
        k(   93) = (   0.0600000   0.4400000   0.0000000), wk =   0.0096000
        k(   94) = (   0.0600000   0.4600000   0.0000000), wk =   0.0096000
        k(   95) = (   0.0800000   0.0800000   0.0000000), wk =   0.0048000
        k(   96) = (   0.0800000   0.1000000   0.0000000), wk =   0.0096000
        k(   97) = (   0.0800000   0.1200000   0.0000000), wk =   0.0096000
        k(   98) = (   0.0800000   0.1400000   0.0000000), wk =   0.0096000
        k(   99) = (   0.0800000   0.1600000   0.0000000), wk =   0.0096000
        k(  100) = (   0.0800000   0.1800000   0.0000000), wk =   0.0096000
        k(  101) = (   0.0800000   0.2000000   0.0000000), wk =   0.0096000
        k(  102) = (   0.0800000   0.2200000   0.0000000), wk =   0.0096000
        k(  103) = (   0.0800000   0.2400000   0.0000000), wk =   0.0096000
        k(  104) = (   0.0800000   0.2600000   0.0000000), wk =   0.0096000
        k(  105) = (   0.0800000   0.2800000   0.0000000), wk =   0.0096000
        k(  106) = (   0.0800000   0.3000000   0.0000000), wk =   0.0096000
        k(  107) = (   0.0800000   0.3200000   0.0000000), wk =   0.0096000
        k(  108) = (   0.0800000   0.3400000   0.0000000), wk =   0.0096000
        k(  109) = (   0.0800000   0.3600000   0.0000000), wk =   0.0096000
        k(  110) = (   0.0800000   0.3800000   0.0000000), wk =   0.0096000
        k(  111) = (   0.0800000   0.4000000   0.0000000), wk =   0.0096000
        k(  112) = (   0.0800000   0.4200000   0.0000000), wk =   0.0096000
        k(  113) = (   0.0800000   0.4400000   0.0000000), wk =   0.0096000
        k(  114) = (   0.0800000   0.4600000   0.0000000), wk =   0.0048000
        k(  115) = (   0.1000000   0.1000000   0.0000000), wk =   0.0048000
        k(  116) = (   0.1000000   0.1200000   0.0000000), wk =   0.0096000
        k(  117) = (   0.1000000   0.1400000   0.0000000), wk =   0.0096000
        k(  118) = (   0.1000000   0.1600000   0.0000000), wk =   0.0096000
        k(  119) = (   0.1000000   0.1800000   0.0000000), wk =   0.0096000
        k(  120) = (   0.1000000   0.2000000   0.0000000), wk =   0.0096000
        k(  121) = (   0.1000000   0.2200000   0.0000000), wk =   0.0096000
        k(  122) = (   0.1000000   0.2400000   0.0000000), wk =   0.0096000
        k(  123) = (   0.1000000   0.2600000   0.0000000), wk =   0.0096000
        k(  124) = (   0.1000000   0.2800000   0.0000000), wk =   0.0096000
        k(  125) = (   0.1000000   0.3000000   0.0000000), wk =   0.0096000
        k(  126) = (   0.1000000   0.3200000   0.0000000), wk =   0.0096000
        k(  127) = (   0.1000000   0.3400000   0.0000000), wk =   0.0096000
        k(  128) = (   0.1000000   0.3600000   0.0000000), wk =   0.0096000
        k(  129) = (   0.1000000   0.3800000   0.0000000), wk =   0.0096000
        k(  130) = (   0.1000000   0.4000000   0.0000000), wk =   0.0096000
        k(  131) = (   0.1000000   0.4200000   0.0000000), wk =   0.0096000
        k(  132) = (   0.1000000   0.4400000   0.0000000), wk =   0.0096000
        k(  133) = (   0.1200000   0.1200000   0.0000000), wk =   0.0048000
        k(  134) = (   0.1200000   0.1400000   0.0000000), wk =   0.0096000
        k(  135) = (   0.1200000   0.1600000   0.0000000), wk =   0.0096000
        k(  136) = (   0.1200000   0.1800000   0.0000000), wk =   0.0096000
        k(  137) = (   0.1200000   0.2000000   0.0000000), wk =   0.0096000
        k(  138) = (   0.1200000   0.2200000   0.0000000), wk =   0.0096000
        k(  139) = (   0.1200000   0.2400000   0.0000000), wk =   0.0096000
        k(  140) = (   0.1200000   0.2600000   0.0000000), wk =   0.0096000
        k(  141) = (   0.1200000   0.2800000   0.0000000), wk =   0.0096000
        k(  142) = (   0.1200000   0.3000000   0.0000000), wk =   0.0096000
        k(  143) = (   0.1200000   0.3200000   0.0000000), wk =   0.0096000
        k(  144) = (   0.1200000   0.3400000   0.0000000), wk =   0.0096000
        k(  145) = (   0.1200000   0.3600000   0.0000000), wk =   0.0096000
        k(  146) = (   0.1200000   0.3800000   0.0000000), wk =   0.0096000
        k(  147) = (   0.1200000   0.4000000   0.0000000), wk =   0.0096000
        k(  148) = (   0.1200000   0.4200000   0.0000000), wk =   0.0096000
        k(  149) = (   0.1200000   0.4400000   0.0000000), wk =   0.0048000
        k(  150) = (   0.1400000   0.1400000   0.0000000), wk =   0.0048000
        k(  151) = (   0.1400000   0.1600000   0.0000000), wk =   0.0096000
        k(  152) = (   0.1400000   0.1800000   0.0000000), wk =   0.0096000
        k(  153) = (   0.1400000   0.2000000   0.0000000), wk =   0.0096000
        k(  154) = (   0.1400000   0.2200000   0.0000000), wk =   0.0096000
        k(  155) = (   0.1400000   0.2400000   0.0000000), wk =   0.0096000
        k(  156) = (   0.1400000   0.2600000   0.0000000), wk =   0.0096000
        k(  157) = (   0.1400000   0.2800000   0.0000000), wk =   0.0096000
        k(  158) = (   0.1400000   0.3000000   0.0000000), wk =   0.0096000
        k(  159) = (   0.1400000   0.3200000   0.0000000), wk =   0.0096000
        k(  160) = (   0.1400000   0.3400000   0.0000000), wk =   0.0096000
        k(  161) = (   0.1400000   0.3600000   0.0000000), wk =   0.0096000
        k(  162) = (   0.1400000   0.3800000   0.0000000), wk =   0.0096000
        k(  163) = (   0.1400000   0.4000000   0.0000000), wk =   0.0096000
        k(  164) = (   0.1400000   0.4200000   0.0000000), wk =   0.0096000
        k(  165) = (   0.1600000   0.1600000   0.0000000), wk =   0.0048000
        k(  166) = (   0.1600000   0.1800000   0.0000000), wk =   0.0096000
        k(  167) = (   0.1600000   0.2000000   0.0000000), wk =   0.0096000
        k(  168) = (   0.1600000   0.2200000   0.0000000), wk =   0.0096000
        k(  169) = (   0.1600000   0.2400000   0.0000000), wk =   0.0096000
        k(  170) = (   0.1600000   0.2600000   0.0000000), wk =   0.0096000
        k(  171) = (   0.1600000   0.2800000   0.0000000), wk =   0.0096000
        k(  172) = (   0.1600000   0.3000000   0.0000000), wk =   0.0096000
        k(  173) = (   0.1600000   0.3200000   0.0000000), wk =   0.0096000
        k(  174) = (   0.1600000   0.3400000   0.0000000), wk =   0.0096000
        k(  175) = (   0.1600000   0.3600000   0.0000000), wk =   0.0096000
        k(  176) = (   0.1600000   0.3800000   0.0000000), wk =   0.0096000
        k(  177) = (   0.1600000   0.4000000   0.0000000), wk =   0.0096000
        k(  178) = (   0.1600000   0.4200000   0.0000000), wk =   0.0048000
        k(  179) = (   0.1800000   0.1800000   0.0000000), wk =   0.0048000
        k(  180) = (   0.1800000   0.2000000   0.0000000), wk =   0.0096000
        k(  181) = (   0.1800000   0.2200000   0.0000000), wk =   0.0096000
        k(  182) = (   0.1800000   0.2400000   0.0000000), wk =   0.0096000
        k(  183) = (   0.1800000   0.2600000   0.0000000), wk =   0.0096000
        k(  184) = (   0.1800000   0.2800000   0.0000000), wk =   0.0096000
        k(  185) = (   0.1800000   0.3000000   0.0000000), wk =   0.0096000
        k(  186) = (   0.1800000   0.3200000   0.0000000), wk =   0.0096000
        k(  187) = (   0.1800000   0.3400000   0.0000000), wk =   0.0096000
        k(  188) = (   0.1800000   0.3600000   0.0000000), wk =   0.0096000
        k(  189) = (   0.1800000   0.3800000   0.0000000), wk =   0.0096000
        k(  190) = (   0.1800000   0.4000000   0.0000000), wk =   0.0096000
        k(  191) = (   0.2000000   0.2000000   0.0000000), wk =   0.0048000
        k(  192) = (   0.2000000   0.2200000   0.0000000), wk =   0.0096000
        k(  193) = (   0.2000000   0.2400000   0.0000000), wk =   0.0096000
        k(  194) = (   0.2000000   0.2600000   0.0000000), wk =   0.0096000
        k(  195) = (   0.2000000   0.2800000   0.0000000), wk =   0.0096000
        k(  196) = (   0.2000000   0.3000000   0.0000000), wk =   0.0096000
        k(  197) = (   0.2000000   0.3200000   0.0000000), wk =   0.0096000
        k(  198) = (   0.2000000   0.3400000   0.0000000), wk =   0.0096000
        k(  199) = (   0.2000000   0.3600000   0.0000000), wk =   0.0096000
        k(  200) = (   0.2000000   0.3800000   0.0000000), wk =   0.0096000
        k(  201) = (   0.2000000   0.4000000   0.0000000), wk =   0.0048000
        k(  202) = (   0.2200000   0.2200000   0.0000000), wk =   0.0048000
        k(  203) = (   0.2200000   0.2400000   0.0000000), wk =   0.0096000
        k(  204) = (   0.2200000   0.2600000   0.0000000), wk =   0.0096000
        k(  205) = (   0.2200000   0.2800000   0.0000000), wk =   0.0096000
        k(  206) = (   0.2200000   0.3000000   0.0000000), wk =   0.0096000
        k(  207) = (   0.2200000   0.3200000   0.0000000), wk =   0.0096000
        k(  208) = (   0.2200000   0.3400000   0.0000000), wk =   0.0096000
        k(  209) = (   0.2200000   0.3600000   0.0000000), wk =   0.0096000
        k(  210) = (   0.2200000   0.3800000   0.0000000), wk =   0.0096000
        k(  211) = (   0.2400000   0.2400000   0.0000000), wk =   0.0048000
        k(  212) = (   0.2400000   0.2600000   0.0000000), wk =   0.0096000
        k(  213) = (   0.2400000   0.2800000   0.0000000), wk =   0.0096000
        k(  214) = (   0.2400000   0.3000000   0.0000000), wk =   0.0096000
        k(  215) = (   0.2400000   0.3200000   0.0000000), wk =   0.0096000
        k(  216) = (   0.2400000   0.3400000   0.0000000), wk =   0.0096000
        k(  217) = (   0.2400000   0.3600000   0.0000000), wk =   0.0096000
        k(  218) = (   0.2400000   0.3800000   0.0000000), wk =   0.0048000
        k(  219) = (   0.2600000   0.2600000   0.0000000), wk =   0.0048000
        k(  220) = (   0.2600000   0.2800000   0.0000000), wk =   0.0096000
        k(  221) = (   0.2600000   0.3000000   0.0000000), wk =   0.0096000
        k(  222) = (   0.2600000   0.3200000   0.0000000), wk =   0.0096000
        k(  223) = (   0.2600000   0.3400000   0.0000000), wk =   0.0096000
        k(  224) = (   0.2600000   0.3600000   0.0000000), wk =   0.0096000
        k(  225) = (   0.2800000   0.2800000   0.0000000), wk =   0.0048000
        k(  226) = (   0.2800000   0.3000000   0.0000000), wk =   0.0096000
        k(  227) = (   0.2800000   0.3200000   0.0000000), wk =   0.0096000
        k(  228) = (   0.2800000   0.3400000   0.0000000), wk =   0.0096000
        k(  229) = (   0.2800000   0.3600000   0.0000000), wk =   0.0048000
        k(  230) = (   0.3000000   0.3000000   0.0000000), wk =   0.0048000
        k(  231) = (   0.3000000   0.3200000   0.0000000), wk =   0.0096000
        k(  232) = (   0.3000000   0.3400000   0.0000000), wk =   0.0096000
        k(  233) = (   0.3200000   0.3200000   0.0000000), wk =   0.0048000
        k(  234) = (   0.3200000   0.3400000   0.0000000), wk =   0.0048000

     Dense  grid:    44285 G-vectors     FFT dimensions: (  24,  24, 192)

     Dynamical RAM for                 wfc:       0.17 MB

     Dynamical RAM for     wfc (w. buffer):       0.17 MB

     Dynamical RAM for           str. fact:       0.08 MB

     Dynamical RAM for           local pot:       0.00 MB

     Dynamical RAM for          nlocal pot:       0.34 MB

     Dynamical RAM for                qrad:       0.36 MB

     Dynamical RAM for          rho,v,vnew:       0.57 MB

     Dynamical RAM for           G-vectors:       0.36 MB

     Dynamical RAM for          h,s,v(r/c):       0.05 MB

     Dynamical RAM for          <psi|beta>:       0.01 MB

     Dynamical RAM for                 psi:       0.34 MB

     Dynamical RAM for                hpsi:       0.34 MB

     Dynamical RAM for      wfcinit/wfcrot:       0.34 MB

     Estimated static dynamical RAM per process >       2.57 MB

     Estimated max dynamical RAM per process >       3.30 MB

     Estimated total dynamical RAM >      26.39 MB

     The potential is recalculated from file :
     ./tmp/C2L_AA_PBE_vdW.save/charge-density



     %%%%%%%%%%%%%%%%%%%%%%%%%%%%%%%%%%%%%%%%%%%%%%%%%%%%%%%%%%%%%%%%%%%%%%%%
     %                                                                      %
     % You are using vdW-DF, which was implemented by the Thonhauser group. %
     % Please cite the following two papers that made this development      %
     % possible and the two reviews that describe the various versions:     %
     %                                                                      %
     %   T. Thonhauser et al., PRL 115, 136402 (2015).                      %
     %   T. Thonhauser et al., PRB 76, 125112 (2007).                       %
     %   K. Berland et al., Rep. Prog. Phys. 78, 066501 (2015).             %
     %   D.C. Langreth et al., J. Phys.: Condens. Matter 21, 084203 (2009). %
     %                                                                      %
     % If you are calculating stress with vdW-DF, please also cite:         %
     %                                                                      %
     %   R. Sabatini et al., J. Phys.: Condens. Matter 24, 424209 (2012).   %
     %                                                                      %
     %%%%%%%%%%%%%%%%%%%%%%%%%%%%%%%%%%%%%%%%%%%%%%%%%%%%%%%%%%%%%%%%%%%%%%%%

     %%%%%%%%%%%%%%%%%%%%%%%%%%%%%%%%%%%%%%%%%%%%%%%%%%%%%%%%%%%%%%%%%%%%%%%%
     %                                                                      %
     %  vdW-DF NEWS:                                                        %
     %                                                                      %
     %  * vdW-DF3 is now available. DOI: 10.1021/acs.jctc.0c00471           %
     %    use with input_dft = 'vdW-DF3-opt1' or 'vdW-DF3-opt2'             %
     %                                                                      %
     %  * Unscreened and range-separated hybrid vdW-DF-cx functionals       %
     %    DOI: 10.1063/1.4986522 and 10.1088/1361-648X/ac2ad2               %
     %    use with input_dft = 'vdW-DF-cx0'    and 'vdW-DF-ahcx'            %
     %  * Unscreened and range-separated hybrid vdW-DF2-b86r functionals    %
     %    DOI: 10.1063/1.4986522 and DOI: 10.1103/PhysRevX.12.041003        %
     %    use with input_dft = 'vdW-DF2-br0' and 'vdW-DF2-ahbr'             %
     %                                                                      %
     %%%%%%%%%%%%%%%%%%%%%%%%%%%%%%%%%%%%%%%%%%%%%%%%%%%%%%%%%%%%%%%%%%%%%%%%


     Carrying out vdW-DF run using the following parameters:
     Nqs    =  20  Npoints =  1024  r_max =  100.000
     q_mesh =  0.00001000  0.04494208  0.09755937  0.15916263
               0.23128650  0.31572767  0.41458969  0.53033537
               0.66584808  0.82450364  1.01025438  1.22772762
               1.48234092  1.78043706  2.12944203  2.53805004
               3.01644009  3.57652955  4.23227104  5.00000000


     -----------------------------------------------
     Non-local corr. energy    =       0.19650400 Ry
     -----------------------------------------------

     Starting wfcs are   16 randomized atomic wfcs

     Band Structure Calculation
     Davidson diagonalization with overlap

     Computing kpt #:     1  of   234
     total cpu time spent up to now is       10.5 secs

     Computing kpt #:     2  of   234
     total cpu time spent up to now is       10.8 secs

     Computing kpt #:     3  of   234
     total cpu time spent up to now is       11.1 secs

     Computing kpt #:     4  of   234
     total cpu time spent up to now is       11.3 secs

     Computing kpt #:     5  of   234
     total cpu time spent up to now is       11.5 secs

     Computing kpt #:     6  of   234
     total cpu time spent up to now is       11.7 secs

     Computing kpt #:     7  of   234
     total cpu time spent up to now is       11.9 secs

     Computing kpt #:     8  of   234
     total cpu time spent up to now is       12.0 secs

     Computing kpt #:     9  of   234
     total cpu time spent up to now is       12.2 secs

     Computing kpt #:    10  of   234
     total cpu time spent up to now is       12.4 secs

     Computing kpt #:    11  of   234
     total cpu time spent up to now is       12.6 secs

     Computing kpt #:    12  of   234
     total cpu time spent up to now is       12.8 secs

     Computing kpt #:    13  of   234
     total cpu time spent up to now is       13.0 secs

     Computing kpt #:    14  of   234
     total cpu time spent up to now is       13.2 secs

     Computing kpt #:    15  of   234
     total cpu time spent up to now is       13.4 secs

     Computing kpt #:    16  of   234
     total cpu time spent up to now is       13.5 secs

     Computing kpt #:    17  of   234
     total cpu time spent up to now is       13.6 secs

     Computing kpt #:    18  of   234
     total cpu time spent up to now is       13.8 secs

     Computing kpt #:    19  of   234
     total cpu time spent up to now is       13.9 secs

     Computing kpt #:    20  of   234
     total cpu time spent up to now is       14.0 secs

     Computing kpt #:    21  of   234
     total cpu time spent up to now is       14.2 secs

     Computing kpt #:    22  of   234
     total cpu time spent up to now is       14.3 secs

     Computing kpt #:    23  of   234
     total cpu time spent up to now is       14.5 secs

     Computing kpt #:    24  of   234
     total cpu time spent up to now is       14.6 secs

     Computing kpt #:    25  of   234
     total cpu time spent up to now is       14.8 secs

     Computing kpt #:    26  of   234
     total cpu time spent up to now is       14.9 secs

     Computing kpt #:    27  of   234
     total cpu time spent up to now is       15.1 secs

     Computing kpt #:    28  of   234
     total cpu time spent up to now is       15.3 secs

     Computing kpt #:    29  of   234
     total cpu time spent up to now is       15.5 secs

     Computing kpt #:    30  of   234
     total cpu time spent up to now is       15.7 secs

     Computing kpt #:    31  of   234
     total cpu time spent up to now is       15.8 secs

     Computing kpt #:    32  of   234
     total cpu time spent up to now is       16.0 secs

     Computing kpt #:    33  of   234
     total cpu time spent up to now is       16.1 secs

     Computing kpt #:    34  of   234
     total cpu time spent up to now is       16.3 secs

     Computing kpt #:    35  of   234
     total cpu time spent up to now is       16.4 secs

     Computing kpt #:    36  of   234
     total cpu time spent up to now is       16.6 secs

     Computing kpt #:    37  of   234
     total cpu time spent up to now is       16.8 secs

     Computing kpt #:    38  of   234
     total cpu time spent up to now is       17.0 secs

     Computing kpt #:    39  of   234
     total cpu time spent up to now is       17.2 secs

     Computing kpt #:    40  of   234
     total cpu time spent up to now is       17.3 secs

     Computing kpt #:    41  of   234
     total cpu time spent up to now is       17.4 secs

     Computing kpt #:    42  of   234
     total cpu time spent up to now is       17.6 secs

     Computing kpt #:    43  of   234
     total cpu time spent up to now is       17.7 secs

     Computing kpt #:    44  of   234
     total cpu time spent up to now is       17.9 secs

     Computing kpt #:    45  of   234
     total cpu time spent up to now is       18.0 secs

     Computing kpt #:    46  of   234
     total cpu time spent up to now is       18.2 secs

     Computing kpt #:    47  of   234
     total cpu time spent up to now is       18.3 secs

     Computing kpt #:    48  of   234
     total cpu time spent up to now is       18.5 secs

     Computing kpt #:    49  of   234
     total cpu time spent up to now is       18.6 secs

     Computing kpt #:    50  of   234
     total cpu time spent up to now is       18.8 secs

     Computing kpt #:    51  of   234
     total cpu time spent up to now is       19.0 secs

     Computing kpt #:    52  of   234
     total cpu time spent up to now is       19.1 secs

     Computing kpt #:    53  of   234
     total cpu time spent up to now is       19.3 secs

     Computing kpt #:    54  of   234
     total cpu time spent up to now is       19.4 secs

     Computing kpt #:    55  of   234
     total cpu time spent up to now is       19.6 secs

     Computing kpt #:    56  of   234
     total cpu time spent up to now is       19.8 secs

     Computing kpt #:    57  of   234
     total cpu time spent up to now is       19.9 secs

     Computing kpt #:    58  of   234
     total cpu time spent up to now is       20.1 secs

     Computing kpt #:    59  of   234
     total cpu time spent up to now is       20.2 secs

     Computing kpt #:    60  of   234
     total cpu time spent up to now is       20.4 secs

     Computing kpt #:    61  of   234
     total cpu time spent up to now is       20.5 secs

     Computing kpt #:    62  of   234
     total cpu time spent up to now is       20.7 secs

     Computing kpt #:    63  of   234
     total cpu time spent up to now is       20.8 secs

     Computing kpt #:    64  of   234
     total cpu time spent up to now is       21.0 secs

     Computing kpt #:    65  of   234
     total cpu time spent up to now is       21.1 secs

     Computing kpt #:    66  of   234
     total cpu time spent up to now is       21.2 secs

     Computing kpt #:    67  of   234
     total cpu time spent up to now is       21.4 secs

     Computing kpt #:    68  of   234
     total cpu time spent up to now is       21.5 secs

     Computing kpt #:    69  of   234
     total cpu time spent up to now is       21.6 secs

     Computing kpt #:    70  of   234
     total cpu time spent up to now is       21.8 secs

     Computing kpt #:    71  of   234
     total cpu time spent up to now is       21.9 secs

     Computing kpt #:    72  of   234
     total cpu time spent up to now is       22.1 secs

     Computing kpt #:    73  of   234
     total cpu time spent up to now is       22.2 secs

     Computing kpt #:    74  of   234
     total cpu time spent up to now is       22.4 secs

     Computing kpt #:    75  of   234
     total cpu time spent up to now is       22.6 secs

     Computing kpt #:    76  of   234
     total cpu time spent up to now is       22.7 secs

     Computing kpt #:    77  of   234
     total cpu time spent up to now is       22.9 secs

     Computing kpt #:    78  of   234
     total cpu time spent up to now is       23.1 secs

     Computing kpt #:    79  of   234
     total cpu time spent up to now is       23.3 secs

     Computing kpt #:    80  of   234
     total cpu time spent up to now is       23.4 secs

     Computing kpt #:    81  of   234
     total cpu time spent up to now is       23.6 secs

     Computing kpt #:    82  of   234
     total cpu time spent up to now is       23.7 secs

     Computing kpt #:    83  of   234
     total cpu time spent up to now is       23.9 secs

     Computing kpt #:    84  of   234
     total cpu time spent up to now is       24.0 secs

     Computing kpt #:    85  of   234
     total cpu time spent up to now is       24.1 secs

     Computing kpt #:    86  of   234
     total cpu time spent up to now is       24.3 secs

     Computing kpt #:    87  of   234
     total cpu time spent up to now is       24.4 secs

     Computing kpt #:    88  of   234
     total cpu time spent up to now is       24.6 secs

     Computing kpt #:    89  of   234
     total cpu time spent up to now is       24.7 secs

     Computing kpt #:    90  of   234
     total cpu time spent up to now is       24.9 secs

     Computing kpt #:    91  of   234
     total cpu time spent up to now is       25.0 secs

     Computing kpt #:    92  of   234
     total cpu time spent up to now is       25.1 secs

     Computing kpt #:    93  of   234
     total cpu time spent up to now is       25.3 secs

     Computing kpt #:    94  of   234
     total cpu time spent up to now is       25.4 secs

     Computing kpt #:    95  of   234
     total cpu time spent up to now is       25.5 secs

     Computing kpt #:    96  of   234
     total cpu time spent up to now is       25.7 secs

     Computing kpt #:    97  of   234
     total cpu time spent up to now is       25.9 secs

     Computing kpt #:    98  of   234
     total cpu time spent up to now is       26.0 secs

     Computing kpt #:    99  of   234
     total cpu time spent up to now is       26.2 secs

     Computing kpt #:   100  of   234
     total cpu time spent up to now is       26.3 secs

     Computing kpt #:   101  of   234
     total cpu time spent up to now is       26.5 secs

     Computing kpt #:   102  of   234
     total cpu time spent up to now is       26.6 secs

     Computing kpt #:   103  of   234
     total cpu time spent up to now is       26.8 secs

     Computing kpt #:   104  of   234
     total cpu time spent up to now is       27.0 secs

     Computing kpt #:   105  of   234
     total cpu time spent up to now is       27.1 secs

     Computing kpt #:   106  of   234
     total cpu time spent up to now is       27.3 secs

     Computing kpt #:   107  of   234
     total cpu time spent up to now is       27.4 secs

     Computing kpt #:   108  of   234
     total cpu time spent up to now is       27.6 secs

     Computing kpt #:   109  of   234
     total cpu time spent up to now is       27.7 secs

     Computing kpt #:   110  of   234
     total cpu time spent up to now is       27.9 secs

     Computing kpt #:   111  of   234
     total cpu time spent up to now is       28.0 secs

     Computing kpt #:   112  of   234
     total cpu time spent up to now is       28.2 secs

     Computing kpt #:   113  of   234
     total cpu time spent up to now is       28.3 secs

     Computing kpt #:   114  of   234
     total cpu time spent up to now is       28.5 secs

     Computing kpt #:   115  of   234
     total cpu time spent up to now is       28.7 secs

     Computing kpt #:   116  of   234
     total cpu time spent up to now is       28.9 secs

     Computing kpt #:   117  of   234
     total cpu time spent up to now is       29.0 secs

     Computing kpt #:   118  of   234
     total cpu time spent up to now is       29.2 secs

     Computing kpt #:   119  of   234
     total cpu time spent up to now is       29.4 secs

     Computing kpt #:   120  of   234
     total cpu time spent up to now is       29.6 secs

     Computing kpt #:   121  of   234
     total cpu time spent up to now is       29.7 secs

     Computing kpt #:   122  of   234
     total cpu time spent up to now is       29.9 secs

     Computing kpt #:   123  of   234
     total cpu time spent up to now is       30.1 secs

     Computing kpt #:   124  of   234
     total cpu time spent up to now is       30.3 secs

     Computing kpt #:   125  of   234
     total cpu time spent up to now is       30.4 secs

     Computing kpt #:   126  of   234
     total cpu time spent up to now is       30.5 secs

     Computing kpt #:   127  of   234
     total cpu time spent up to now is       30.7 secs

     Computing kpt #:   128  of   234
     total cpu time spent up to now is       30.8 secs

     Computing kpt #:   129  of   234
     total cpu time spent up to now is       31.0 secs

     Computing kpt #:   130  of   234
     total cpu time spent up to now is       31.1 secs

     Computing kpt #:   131  of   234
     total cpu time spent up to now is       31.3 secs

     Computing kpt #:   132  of   234
     total cpu time spent up to now is       31.4 secs

     Computing kpt #:   133  of   234
     total cpu time spent up to now is       31.6 secs

     Computing kpt #:   134  of   234
     total cpu time spent up to now is       31.7 secs

     Computing kpt #:   135  of   234
     total cpu time spent up to now is       31.9 secs

     Computing kpt #:   136  of   234
     total cpu time spent up to now is       32.1 secs

     Computing kpt #:   137  of   234
     total cpu time spent up to now is       32.3 secs

     Computing kpt #:   138  of   234
     total cpu time spent up to now is       32.4 secs

     Computing kpt #:   139  of   234
     total cpu time spent up to now is       32.6 secs

     Computing kpt #:   140  of   234
     total cpu time spent up to now is       32.8 secs

     Computing kpt #:   141  of   234
     total cpu time spent up to now is       32.9 secs

     Computing kpt #:   142  of   234
     total cpu time spent up to now is       33.1 secs

     Computing kpt #:   143  of   234
     total cpu time spent up to now is       33.2 secs

     Computing kpt #:   144  of   234
     total cpu time spent up to now is       33.4 secs

     Computing kpt #:   145  of   234
     total cpu time spent up to now is       33.5 secs

     Computing kpt #:   146  of   234
     total cpu time spent up to now is       33.6 secs

     Computing kpt #:   147  of   234
     total cpu time spent up to now is       33.8 secs

     Computing kpt #:   148  of   234
     total cpu time spent up to now is       33.9 secs

     Computing kpt #:   149  of   234
     total cpu time spent up to now is       34.1 secs

     Computing kpt #:   150  of   234
     total cpu time spent up to now is       34.2 secs

     Computing kpt #:   151  of   234
     total cpu time spent up to now is       34.4 secs

     Computing kpt #:   152  of   234
     total cpu time spent up to now is       34.6 secs

     Computing kpt #:   153  of   234
     total cpu time spent up to now is       34.8 secs

     Computing kpt #:   154  of   234
     total cpu time spent up to now is       34.9 secs

     Computing kpt #:   155  of   234
     total cpu time spent up to now is       35.0 secs

     Computing kpt #:   156  of   234
     total cpu time spent up to now is       35.2 secs

     Computing kpt #:   157  of   234
     total cpu time spent up to now is       35.3 secs

     Computing kpt #:   158  of   234
     total cpu time spent up to now is       35.5 secs

     Computing kpt #:   159  of   234
     total cpu time spent up to now is       35.6 secs

     Computing kpt #:   160  of   234
     total cpu time spent up to now is       35.8 secs

     Computing kpt #:   161  of   234
     total cpu time spent up to now is       35.9 secs

     Computing kpt #:   162  of   234
     total cpu time spent up to now is       36.0 secs

     Computing kpt #:   163  of   234
     total cpu time spent up to now is       36.2 secs

     Computing kpt #:   164  of   234
     total cpu time spent up to now is       36.3 secs

     Computing kpt #:   165  of   234
     total cpu time spent up to now is       36.5 secs

     Computing kpt #:   166  of   234
     total cpu time spent up to now is       36.7 secs

     Computing kpt #:   167  of   234
     total cpu time spent up to now is       36.8 secs

     Computing kpt #:   168  of   234
     total cpu time spent up to now is       37.0 secs

     Computing kpt #:   169  of   234
     total cpu time spent up to now is       37.1 secs

     Computing kpt #:   170  of   234
     total cpu time spent up to now is       37.3 secs

     Computing kpt #:   171  of   234
     total cpu time spent up to now is       37.4 secs

     Computing kpt #:   172  of   234
     total cpu time spent up to now is       37.6 secs

     Computing kpt #:   173  of   234
     total cpu time spent up to now is       37.7 secs

     Computing kpt #:   174  of   234
     total cpu time spent up to now is       37.9 secs

     Computing kpt #:   175  of   234
     total cpu time spent up to now is       38.0 secs

     Computing kpt #:   176  of   234
     total cpu time spent up to now is       38.2 secs

     Computing kpt #:   177  of   234
     total cpu time spent up to now is       38.3 secs

     Computing kpt #:   178  of   234
     total cpu time spent up to now is       38.5 secs

     Computing kpt #:   179  of   234
     total cpu time spent up to now is       38.6 secs

     Computing kpt #:   180  of   234
     total cpu time spent up to now is       38.8 secs

     Computing kpt #:   181  of   234
     total cpu time spent up to now is       38.9 secs

     Computing kpt #:   182  of   234
     total cpu time spent up to now is       39.1 secs

     Computing kpt #:   183  of   234
     total cpu time spent up to now is       39.2 secs

     Computing kpt #:   184  of   234
     total cpu time spent up to now is       39.4 secs

     Computing kpt #:   185  of   234
     total cpu time spent up to now is       39.5 secs

     Computing kpt #:   186  of   234
     total cpu time spent up to now is       39.7 secs

     Computing kpt #:   187  of   234
     total cpu time spent up to now is       39.8 secs

     Computing kpt #:   188  of   234
     total cpu time spent up to now is       40.0 secs

     Computing kpt #:   189  of   234
     total cpu time spent up to now is       40.1 secs

     Computing kpt #:   190  of   234
     total cpu time spent up to now is       40.3 secs

     Computing kpt #:   191  of   234
     total cpu time spent up to now is       40.5 secs

     Computing kpt #:   192  of   234
     total cpu time spent up to now is       40.7 secs

     Computing kpt #:   193  of   234
     total cpu time spent up to now is       40.8 secs

     Computing kpt #:   194  of   234
     total cpu time spent up to now is       41.0 secs

     Computing kpt #:   195  of   234
     total cpu time spent up to now is       41.1 secs

     Computing kpt #:   196  of   234
     total cpu time spent up to now is       41.3 secs

     Computing kpt #:   197  of   234
     total cpu time spent up to now is       41.4 secs

     Computing kpt #:   198  of   234
     total cpu time spent up to now is       41.6 secs

     Computing kpt #:   199  of   234
     total cpu time spent up to now is       41.7 secs

     Computing kpt #:   200  of   234
     total cpu time spent up to now is       41.9 secs

     Computing kpt #:   201  of   234
     total cpu time spent up to now is       42.0 secs

     Computing kpt #:   202  of   234
     total cpu time spent up to now is       42.2 secs

     Computing kpt #:   203  of   234
     total cpu time spent up to now is       42.3 secs

     Computing kpt #:   204  of   234
     total cpu time spent up to now is       42.5 secs

     Computing kpt #:   205  of   234
     total cpu time spent up to now is       42.7 secs

     Computing kpt #:   206  of   234
     total cpu time spent up to now is       42.8 secs

     Computing kpt #:   207  of   234
     total cpu time spent up to now is       43.0 secs

     Computing kpt #:   208  of   234
     total cpu time spent up to now is       43.1 secs

     Computing kpt #:   209  of   234
     total cpu time spent up to now is       43.3 secs

     Computing kpt #:   210  of   234
     total cpu time spent up to now is       43.4 secs

     Computing kpt #:   211  of   234
     total cpu time spent up to now is       43.6 secs

     Computing kpt #:   212  of   234
     total cpu time spent up to now is       43.8 secs

     Computing kpt #:   213  of   234
     total cpu time spent up to now is       44.0 secs

     Computing kpt #:   214  of   234
     total cpu time spent up to now is       44.2 secs

     Computing kpt #:   215  of   234
     total cpu time spent up to now is       44.3 secs

     Computing kpt #:   216  of   234
     total cpu time spent up to now is       44.5 secs

     Computing kpt #:   217  of   234
     total cpu time spent up to now is       44.6 secs

     Computing kpt #:   218  of   234
     total cpu time spent up to now is       44.8 secs

     Computing kpt #:   219  of   234
     total cpu time spent up to now is       45.0 secs

     Computing kpt #:   220  of   234
     total cpu time spent up to now is       45.2 secs

     Computing kpt #:   221  of   234
     total cpu time spent up to now is       45.4 secs

     Computing kpt #:   222  of   234
     total cpu time spent up to now is       45.5 secs

     Computing kpt #:   223  of   234
     total cpu time spent up to now is       45.7 secs

     Computing kpt #:   224  of   234
     total cpu time spent up to now is       45.8 secs

     Computing kpt #:   225  of   234
     total cpu time spent up to now is       46.0 secs

     Computing kpt #:   226  of   234
     total cpu time spent up to now is       46.2 secs

     Computing kpt #:   227  of   234
     total cpu time spent up to now is       46.3 secs

     Computing kpt #:   228  of   234
     total cpu time spent up to now is       46.5 secs

     Computing kpt #:   229  of   234
     total cpu time spent up to now is       46.6 secs

     Computing kpt #:   230  of   234
     total cpu time spent up to now is       46.7 secs

     Computing kpt #:   231  of   234
     total cpu time spent up to now is       46.9 secs

     Computing kpt #:   232  of   234
     total cpu time spent up to now is       47.0 secs

     Computing kpt #:   233  of   234
     total cpu time spent up to now is       47.1 secs

     Computing kpt #:   234  of   234
     total cpu time spent up to now is       47.2 secs

     ethr =  5.00E-06,  avg # of iterations = 28.4

     total cpu time spent up to now is       47.2 secs

     End of band structure calculation

          k = 0.0000 0.0000 0.0000 (  5505 PWs)   bands (ev):

   -20.1169 -20.0012  -8.6063  -7.7672  -3.6341  -3.6340  -3.6239  -3.6238
     2.5168   2.9693   4.0397   5.2256   5.3853   7.2820   7.8209   7.8210

     occupation numbers 
     1.0000   1.0000   1.0000   1.0000   1.0000   1.0000   1.0000   1.0000
     0.0000   0.0000   0.0000   0.0000   0.0000   0.0000   0.0000   0.0000

          k = 0.0000 0.0231 0.0000 (  5494 PWs)   bands (ev):

   -20.1073 -19.9917  -8.5948  -7.7559  -3.6731  -3.6629  -3.6549  -3.6445
     2.5294   2.9821   4.0527   5.2385   5.3973   7.2940   7.8308   7.8636

     occupation numbers 
     1.0000   1.0000   1.0000   1.0000   1.0000   1.0000   1.0000   1.0000
     0.0000   0.0000   0.0000   0.0000   0.0000   0.0000   0.0000   0.0000

          k = 0.0000 0.0462 0.0000 (  5508 PWs)   bands (ev):

   -20.0790 -19.9636  -8.5606  -7.7223  -3.7904  -3.7801  -3.7165  -3.7058
     2.5674   3.0204   4.0917   5.2773   5.4333   7.3302   7.8449   7.8815

     occupation numbers 
     1.0000   1.0000   1.0000   1.0000   1.0000   1.0000   1.0000   1.0000
     0.0000   0.0000   0.0000   0.0000   0.0000   0.0000   0.0000   0.0000

          k = 0.0000 0.0693 0.0000 (  5524 PWs)   bands (ev):

   -20.0318 -19.9167  -8.5031  -7.6666  -3.9818  -3.9688  -3.8162  -3.8048
     2.6306   3.0844   4.1566   5.3419   5.4935   7.3908   7.8670   7.9005

     occupation numbers 
     1.0000   1.0000   1.0000   1.0000   1.0000   1.0000   1.0000   1.0000
     0.0000   0.0000   0.0000   0.0000   0.0000   0.0000   0.0000   0.0000

          k = 0.0000 0.0924 0.0000 (  5516 PWs)   bands (ev):

   -19.9656 -19.8511  -8.4231  -7.5884  -4.2385  -4.2229  -3.9479  -3.9366
     2.7192   3.1739   4.2476   5.4325   5.5776   7.4753   7.8878   7.9192

     occupation numbers 
     1.0000   1.0000   1.0000   1.0000   1.0000   1.0000   1.0000   1.0000
     0.0000   0.0000   0.0000   0.0000   0.0000   0.0000   0.0000   0.0000

          k = 0.0000 0.1155 0.0000 (  5524 PWs)   bands (ev):

   -19.8807 -19.7669  -8.3208  -7.4882  -4.5539  -4.5362  -4.1081  -4.0954
     2.8331   3.2890   4.3646   5.5488   5.6855   7.5831   7.9012   7.9306

     occupation numbers 
     1.0000   1.0000   1.0000   1.0000   1.0000   1.0000   1.0000   1.0000
     0.0000   0.0000   0.0000   0.0000   0.0000   0.0000   0.0000   0.0000

          k = 0.0000 0.1386 0.0000 (  5522 PWs)   bands (ev):

   -19.7770 -19.6640  -8.1956  -7.3663  -4.9203  -4.8999  -4.2889  -4.2758
     2.9722   3.4295   4.5076   5.6910   5.8172   7.7123   7.9025   7.9311

     occupation numbers 
     1.0000   1.0000   1.0000   1.0000   1.0000   1.0000   1.0000   1.0000
     0.0000   0.0000   0.0000   0.0000   0.0000   0.0000   0.0000   0.0000

          k = 0.0000 0.1617 0.0000 (  5522 PWs)   bands (ev):

   -19.6546 -19.5424  -8.0480  -7.2229  -5.3294  -5.3056  -4.4865  -4.4722
     3.1367   3.5954   4.6765   5.8589   5.9723   7.8361   7.9160   7.9177

     occupation numbers 
     1.0000   1.0000   1.0000   1.0000   1.0000   1.0000   1.0000   1.0000
     0.0000   0.0000   0.0000   0.0000   0.0000   0.0000   0.0000   0.0000

          k = 0.0000 0.1848 0.0000 (  5534 PWs)   bands (ev):

   -19.5137 -19.4026  -7.8787  -7.0581  -5.7726  -5.7457  -4.6944  -4.6795
     3.3263   3.7866   4.8714   6.0525   6.1499   7.8327   7.8864   8.0585

     occupation numbers 
     1.0000   1.0000   1.0000   1.0000   1.0000   1.0000   1.0000   1.0000
     0.0000   0.0000   0.0000   0.0000   0.0000   0.0000   0.0000   0.0000

          k = 0.0000 0.2078 0.0000 (  5524 PWs)   bands (ev):

   -19.3541 -19.2441  -7.6874  -6.8720  -6.2434  -6.2133  -4.9078  -4.8923
     3.5411   4.0031   5.0921   6.2715   6.3489   7.7866   7.8418   8.1816

     occupation numbers 
     1.0000   1.0000   1.0000   1.0000   1.0000   1.0000   1.0000   1.0000
     0.0000   0.0000   0.0000   0.0000   0.0000   0.0000   0.0000   0.0000

          k = 0.0000 0.2309 0.0000 (  5526 PWs)   bands (ev):

   -19.1761 -19.0674  -7.4746  -6.7358  -6.7039  -6.6644  -5.1229  -5.1071
     3.7810   4.2445   5.3385   6.5154   6.5649   7.7273   7.7850   7.8121

     occupation numbers 
     1.0000   1.0000   1.0000   1.0000   1.0000   1.0000   1.0000   1.0000
     0.0000   0.0000   0.0000   0.0000   0.0000   0.0000   0.0000   0.0000

          k = 0.0000 0.2540 0.0000 (  5514 PWs)   bands (ev):

   -18.9800 -18.8725  -7.2491  -7.2358  -7.2076  -6.4384  -5.3356  -5.3191
     4.0458   4.5104   5.6105   6.7738   6.7824   7.3373   7.6628   7.6655

     occupation numbers 
     1.0000   1.0000   1.0000   1.0000   1.0000   1.0000   1.0000   1.0000
     0.0000   0.0000   0.0000   0.0000   0.0000   0.0000   0.0000   0.0000

          k = 0.0000 0.2771 0.0000 (  5522 PWs)   bands (ev):

   -18.7656 -18.6598  -7.7636  -7.7245  -6.9871  -6.1921  -5.5434  -5.5267
     4.3355   4.7997   5.9070   6.6663   7.0283   7.1594   7.2056   7.6030

     occupation numbers 
     1.0000   1.0000   1.0000   1.0000   1.0000   1.0000   1.0000   1.0000
     0.0000   0.0000   0.0000   0.0000   0.0000   0.0000   0.0000   0.0000

          k = 0.0000 0.3002 0.0000 (  5514 PWs)   bands (ev):

   -18.5335 -18.4292  -8.2899  -8.2481  -6.7132  -5.9272  -5.7432  -5.7258
     4.6497   5.1094   6.1306   6.2561   6.6227   7.3194   7.3963   7.5883

     occupation numbers 
     1.0000   1.0000   1.0000   1.0000   1.0000   1.0000   1.0000   1.0000
     0.0000   0.0000   0.0000   0.0000   0.0000   0.0000   0.0000   0.0000

          k = 0.0000 0.3233 0.0000 (  5526 PWs)   bands (ev):

   -18.2838 -18.1813  -8.8196  -8.7756  -6.4213  -5.9331  -5.9155  -5.6450
     4.9874   5.4205   5.5943   6.1229   6.5828   7.3362   7.4648   7.7834

     occupation numbers 
     1.0000   1.0000   1.0000   1.0000   1.0000   1.0000   1.0000   1.0000
     0.0000   0.0000   0.0000   0.0000   0.0000   0.0000   0.0000   0.0000

          k = 0.0000 0.3464 0.0000 (  5528 PWs)   bands (ev):

   -18.0166 -17.9157  -9.3503  -9.3036  -6.1118  -6.1117  -6.0935  -5.3462
     5.0205   5.3556   5.4349   5.9354   6.9460   7.2881   7.3955   8.1403

     occupation numbers 
     1.0000   1.0000   1.0000   1.0000   1.0000   1.0000   1.0000   1.0000
     0.0000   0.0000   0.0000   0.0000   0.0000   0.0000   0.0000   0.0000

          k = 0.0000 0.3695 0.0000 (  5536 PWs)   bands (ev):

   -17.7324 -17.6332  -9.8792  -9.8295  -6.2766  -6.2584  -5.7866  -5.0329
     4.4509   4.9535   5.7391   6.2668   7.1657   7.3231   7.3991   8.4929

[...]
     0.5321   1.1711   9.5928   9.8708  10.3050  10.6215  10.8724  11.2102

     occupation numbers 
     1.0000   1.0000   1.0000   1.0000   1.0000   1.0000   1.0000   1.0000
     0.0000   0.0000   0.0000   0.0000   0.0000   0.0000   0.0000   0.0000

          k = 0.2000 0.3464 0.0000 (  5522 PWs)   bands (ev):

   -17.3331 -17.2368  -9.5448  -9.4986  -8.0506  -8.0156  -5.3109  -4.5721
     4.1139   4.5556   6.2950   6.7633   7.9218   8.8253   9.0839  10.2080

     occupation numbers 
     1.0000   1.0000   1.0000   1.0000   1.0000   1.0000   1.0000   1.0000
     0.0000   0.0000   0.0000   0.0000   0.0000   0.0000   0.0000   0.0000

          k = 0.2000 0.3695 0.0000 (  5512 PWs)   bands (ev):

   -17.0534 -16.9587  -9.8990  -9.8510  -8.3427  -8.3064  -4.9915  -4.2646
     3.6685   4.1244   6.6805   7.1466   8.3148   9.1239   9.4767  10.3605

     occupation numbers 
     1.0000   1.0000   1.0000   1.0000   1.0000   1.0000   1.0000   1.0000
     0.0000   0.0000   0.0000   0.0000   0.0000   0.0000   0.0000   0.0000

          k = 0.2000 0.3926 0.0000 (  5504 PWs)   bands (ev):

   -16.7574 -16.6646 -10.2813 -10.2308  -8.5946  -8.5571  -4.6577  -3.9440
     3.2175   3.6892   7.0892   7.5519   8.7262   9.4161   9.8923  10.3913

     occupation numbers 
     1.0000   1.0000   1.0000   1.0000   1.0000   1.0000   1.0000   1.0000
     0.0000   0.0000   0.0000   0.0000   0.0000   0.0000   0.0000   0.0000

          k = 0.2000 0.4157 0.0000 (  5502 PWs)   bands (ev):

   -16.4463 -16.3553 -10.6862 -10.6330  -8.8066  -8.7684  -4.3125  -3.6131
     2.7643   3.2535   7.5203   7.9780   9.1445   9.6944  10.3280  10.3659

     occupation numbers 
     1.0000   1.0000   1.0000   1.0000   1.0000   1.0000   1.0000   1.0000
     0.0000   0.0000   0.0000   0.0000   0.0000   0.0000   0.0000   0.0000

          k = 0.2000 0.4388 0.0000 (  5519 PWs)   bands (ev):

   -16.1210 -16.0322 -11.1068 -11.0511  -8.9821  -8.9431  -3.9594  -3.2756
     2.3143   2.8223   7.9730   8.4231   9.5311   9.9722  10.3306  10.5890

     occupation numbers 
     1.0000   1.0000   1.0000   1.0000   1.0000   1.0000   1.0000   1.0000
     0.0000   0.0000   0.0000   0.0000   0.0000   0.0000   0.0000   0.0000

          k = 0.2000 0.4619 0.0000 (  5514 PWs)   bands (ev):

   -15.7828 -15.6960 -11.5347 -11.4767  -9.1244  -9.0849  -3.6033  -2.9364
     1.8742   2.4031   8.4457   8.8846   9.7927  10.2262  10.4072  10.5459

     occupation numbers 
     1.0000   1.0000   1.0000   1.0000   1.0000   1.0000   1.0000   1.0000
     0.0000   0.0000   0.0000   0.0000   0.0000   0.0000   0.0000   0.0000

          k = 0.2000 0.4850 0.0000 (  5511 PWs)   bands (ev):

   -15.4341 -15.3494 -11.9632 -11.9026  -9.2372  -9.1974  -3.2526  -2.6046
     1.4531   2.0039   8.9362   9.3584   9.9041  10.2481  10.5036  10.8379

     occupation numbers 
     1.0000   1.0000   1.0000   1.0000   1.0000   1.0000   1.0000   1.0000
     0.0000   0.0000   0.0000   0.0000   0.0000   0.0000   0.0000   0.0000

          k = 0.2000 0.5081 0.0000 (  5508 PWs)   bands (ev):

   -15.0799 -14.9974 -12.3829 -12.3200  -9.3229  -9.2828  -2.9220  -2.2935
     1.0662   1.6397   9.4386   9.8371   9.9335  10.2543  10.4681  11.3554

     occupation numbers 
     1.0000   1.0000   1.0000   1.0000   1.0000   1.0000   1.0000   1.0000
     0.0000   0.0000   0.0000   0.0000   0.0000   0.0000   0.0000   0.0000

          k = 0.2000 0.5312 0.0000 (  5518 PWs)   bands (ev):

   -14.7315 -14.6509 -12.7799 -12.7152  -9.3835  -9.3428  -2.6357  -2.0264
     0.7387   1.3339   9.8756   9.9962  10.2715  10.3023  10.4459  11.8795

     occupation numbers 
     1.0000   1.0000   1.0000   1.0000   1.0000   1.0000   1.0000   1.0000
     0.0000   0.0000   0.0000   0.0000   0.0000   0.0000   0.0000   0.0000

          k = 0.2000 0.5543 0.0000 (  5522 PWs)   bands (ev):

   -14.4240 -14.3448 -13.1172 -13.0510  -9.4193  -9.3785  -2.4308  -1.8376
     0.5089   1.1218   9.9034  10.2217  10.4192  10.5294  10.7358  11.5775

     occupation numbers 
     1.0000   1.0000   1.0000   1.0000   1.0000   1.0000   1.0000   1.0000
     0.0000   0.0000   0.0000   0.0000   0.0000   0.0000   0.0000   0.0000

          k = 0.2000 0.5774 0.0000 (  5524 PWs)   bands (ev):

   -14.2766 -14.1976 -13.2745 -13.2082  -9.4312  -9.3903  -2.3551  -1.7683
     0.4243   1.0441   9.9010  10.2332  10.4148  10.9218  10.9548  11.1936

     occupation numbers 
     1.0000   1.0000   1.0000   1.0000   1.0000   1.0000   1.0000   1.0000
     0.0000   0.0000   0.0000   0.0000   0.0000   0.0000   0.0000   0.0000

          k = 0.2200 0.3811 0.0000 (  5518 PWs)   bands (ev):

   -16.7664 -16.6735 -10.2089 -10.1591  -8.6647  -8.6268  -4.6666  -3.9523
     3.2440   3.7107   7.0768   7.5377   8.7127   9.3973   9.8794  10.6579

     occupation numbers 
     1.0000   1.0000   1.0000   1.0000   1.0000   1.0000   1.0000   1.0000
     0.0000   0.0000   0.0000   0.0000   0.0000   0.0000   0.0000   0.0000

          k = 0.2200 0.4041 0.0000 (  5514 PWs)   bands (ev):

   -16.4641 -16.3731 -10.5469 -10.4945  -8.9445  -8.9049  -4.3283  -3.6276
     2.8145   3.2936   7.4957   7.9495   9.1153   9.6531  10.3034  10.7970

     occupation numbers 
     1.0000   1.0000   1.0000   1.0000   1.0000   1.0000   1.0000   1.0000
     0.0000   0.0000   0.0000   0.0000   0.0000   0.0000   0.0000   0.0000

          k = 0.2200 0.4272 0.0000 (  5501 PWs)   bands (ev):

   -16.1471 -16.0579 -10.9127 -10.8581  -9.1780  -9.1373  -3.9798  -3.2937
     2.3841   2.8775   7.9363   8.3798   9.4750   9.9167  10.7458  10.8251

     occupation numbers 
     1.0000   1.0000   1.0000   1.0000   1.0000   1.0000   1.0000   1.0000
     0.0000   0.0000   0.0000   0.0000   0.0000   0.0000   0.0000   0.0000

          k = 0.2200 0.4503 0.0000 (  5505 PWs)   bands (ev):

   -15.8168 -15.7299 -11.3008 -11.2438  -9.3672  -9.3258  -3.6249  -2.9548
     1.9571   2.4667   8.3972   8.8256   9.6909  10.2735  10.8170  11.1265

     occupation numbers 
     1.0000   1.0000   1.0000   1.0000   1.0000   1.0000   1.0000   1.0000
     0.0000   0.0000   0.0000   0.0000   0.0000   0.0000   0.0000   0.0000

          k = 0.2200 0.4734 0.0000 (  5501 PWs)   bands (ev):

   -15.4749 -15.3902 -11.7019 -11.6430  -9.5164  -9.4744  -3.2698  -2.6169
     1.5403   2.0682   8.8766   9.2823   9.7679  10.6745  10.8563  11.0819

     occupation numbers 
     1.0000   1.0000   1.0000   1.0000   1.0000   1.0000   1.0000   1.0000
     0.0000   0.0000   0.0000   0.0000   0.0000   0.0000   0.0000   0.0000

          k = 0.2200 0.4965 0.0000 (  5507 PWs)   bands (ev):

   -15.1249 -15.0423 -12.1072 -12.0458  -9.6306  -9.5882  -2.9243  -2.2903
     1.1445   1.6918   9.3704   9.7417   9.7780  10.7369  11.0406  11.2827

     occupation numbers 
     1.0000   1.0000   1.0000   1.0000   1.0000   1.0000   1.0000   1.0000
     0.0000   0.0000   0.0000   0.0000   0.0000   0.0000   0.0000   0.0000

          k = 0.2200 0.5196 0.0000 (  5504 PWs)   bands (ev):

   -14.7738 -14.6930 -12.5039 -12.4402  -9.7133  -9.6704  -2.6063  -1.9916
     0.7883   1.3554   9.7498   9.8865  10.1882  10.7245  11.0100  11.8120

     occupation numbers 
     1.0000   1.0000   1.0000   1.0000   1.0000   1.0000   1.0000   1.0000
     0.0000   0.0000   0.0000   0.0000   0.0000   0.0000   0.0000   0.0000

          k = 0.2200 0.5427 0.0000 (  5506 PWs)   bands (ev):

   -14.4403 -14.3614 -12.8692 -12.8042  -9.7671  -9.7241  -2.3469  -1.7498
     0.5028   1.0885   9.7352  10.3750  10.5839  10.7261  10.9996  11.9031

     occupation numbers 
     1.0000   1.0000   1.0000   1.0000   1.0000   1.0000   1.0000   1.0000
     0.0000   0.0000   0.0000   0.0000   0.0000   0.0000   0.0000   0.0000

          k = 0.2200 0.5658 0.0000 (  5504 PWs)   bands (ev):

   -14.1902 -14.1122 -13.1358 -13.0695  -9.7937  -9.7506  -2.1942  -1.6091
     0.3367   0.9348   9.7226  10.6448  10.8188  10.9311  11.0419  11.4968

     occupation numbers 
     1.0000   1.0000   1.0000   1.0000   1.0000   1.0000   1.0000   1.0000
     0.0000   0.0000   0.0000   0.0000   0.0000   0.0000   0.0000   0.0000

          k = 0.2400 0.4157 0.0000 (  5498 PWs)   bands (ev):

   -16.1558 -16.0667 -10.8366 -10.7824  -9.2551  -9.2133  -3.9864  -3.2997
     2.4086   2.8963   7.9240   8.3653   9.4555   9.8974  10.7325  11.1019

     occupation numbers 
     1.0000   1.0000   1.0000   1.0000   1.0000   1.0000   1.0000   1.0000
     0.0000   0.0000   0.0000   0.0000   0.0000   0.0000   0.0000   0.0000

          k = 0.2400 0.4388 0.0000 (  5488 PWs)   bands (ev):

   -15.8338 -15.7468 -11.1554 -11.0993  -9.5170  -9.4741  -3.6358  -2.9644
     2.0009   2.5002   8.3728   8.7958   9.6371  10.2470  11.1728  11.2522

     occupation numbers 
     1.0000   1.0000   1.0000   1.0000   1.0000   1.0000   1.0000   1.0000
     0.0000   0.0000   0.0000   0.0000   0.0000   0.0000   0.0000   0.0000

          k = 0.2400 0.4619 0.0000 (  5495 PWs)   bands (ev):

   -15.4996 -15.4147 -11.5025 -11.4445  -9.7275  -9.6837  -3.2803  -2.6250
     1.5964   2.1091   8.8402   9.2359   9.6763  10.6944  11.2842  11.5814

     occupation numbers 
     1.0000   1.0000   1.0000   1.0000   1.0000   1.0000   1.0000   1.0000
     0.0000   0.0000   0.0000   0.0000   0.0000   0.0000   0.0000   0.0000

          k = 0.2400 0.4850 0.0000 (  5490 PWs)   bands (ev):

   -15.1555 -15.0728 -11.8700 -11.8098  -9.8894  -9.8451  -2.9270  -2.2890
     1.2028   1.7305   9.3223   9.6521   9.6766  11.1364  11.3259  11.5850

     occupation numbers 
     1.0000   1.0000   1.0000   1.0000   1.0000   1.0000   1.0000   1.0000
     0.0000   0.0000   0.0000   0.0000   0.0000   0.0000   0.0000   0.0000

          k = 0.2400 0.5081 0.0000 (  5491 PWs)   bands (ev):

   -14.8063 -14.7255 -12.2463 -12.1840 -10.0084  -9.9636  -2.5880  -1.9682
     0.8318   1.3762   9.5963   9.8256  10.1016  11.2046  11.5486  11.7566

     occupation numbers 
     1.0000   1.0000   1.0000   1.0000   1.0000   1.0000   1.0000   1.0000
     0.0000   0.0000   0.0000   0.0000   0.0000   0.0000   0.0000   0.0000

          k = 0.2400 0.5312 0.0000 (  5496 PWs)   bands (ev):

   -14.4627 -14.3840 -12.6140 -12.5497 -10.0898 -10.0445  -2.2861  -1.6842
     0.5068   1.0683   9.5524  10.3215  10.4797  11.1873  11.5326  12.1199

     occupation numbers 
     1.0000   1.0000   1.0000   1.0000   1.0000   1.0000   1.0000   1.0000
     0.0000   0.0000   0.0000   0.0000   0.0000   0.0000   0.0000   0.0000

          k = 0.2400 0.5543 0.0000 (  5502 PWs)   bands (ev):

   -14.1580 -14.0808 -12.9346 -12.8690 -10.1368 -10.0918  -2.0623  -1.4757
     0.2686   0.8453   9.5202  10.7538  10.8000  11.1755  11.5471  11.8404

     occupation numbers 
     1.0000   1.0000   1.0000   1.0000   1.0000   1.0000   1.0000   1.0000
     0.0000   0.0000   0.0000   0.0000   0.0000   0.0000   0.0000   0.0000

          k = 0.2400 0.5774 0.0000 (  5498 PWs)   bands (ev):

   -14.0101 -13.9332 -13.0884 -13.0221 -10.1525 -10.1074  -1.9760  -1.3960
     0.1780   0.7608   9.5088  10.8546  11.0857  11.1980  11.5675  11.5765

     occupation numbers 
     1.0000   1.0000   1.0000   1.0000   1.0000   1.0000   1.0000   1.0000
     0.0000   0.0000   0.0000   0.0000   0.0000   0.0000   0.0000   0.0000

          k = 0.2600 0.4503 0.0000 (  5486 PWs)   bands (ev):

   -15.5077 -15.4228 -11.4238 -11.3659  -9.8104  -9.7661  -3.2838  -2.6277
     1.6162   2.1232   8.8280   9.2203   9.6448  10.6844  11.5860  11.5961

     occupation numbers 
     1.0000   1.0000   1.0000   1.0000   1.0000   1.0000   1.0000   1.0000
     0.0000   0.0000   0.0000   0.0000   0.0000   0.0000   0.0000   0.0000

          k = 0.2600 0.4734 0.0000 (  5485 PWs)   bands (ev):

   -15.1710 -15.0882 -11.7221 -11.6626 -10.0485 -10.0033  -2.9287  -2.2886
     1.2342   1.7512   9.2977   9.5862   9.6435  11.1663  11.7091  11.8743

     occupation numbers 
     1.0000   1.0000   1.0000   1.0000   1.0000   1.0000   1.0000   1.0000
     0.0000   0.0000   0.0000   0.0000   0.0000   0.0000   0.0000   0.0000

          k = 0.2600 0.4965 0.0000 (  5478 PWs)   bands (ev):

   -14.8266 -14.7459 -12.0472 -11.9859 -10.2298 -10.1839  -2.5778  -1.9550
     0.8620   1.3913   9.4965   9.7895  10.0482  11.5887  11.7737  11.9236

     occupation numbers 
     1.0000   1.0000   1.0000   1.0000   1.0000   1.0000   1.0000   1.0000
     0.0000   0.0000   0.0000   0.0000   0.0000   0.0000   0.0000   0.0000

          k = 0.2600 0.5196 0.0000 (  5489 PWs)   bands (ev):

   -14.4813 -14.4027 -12.3875 -12.3242 -10.3581 -10.3118  -2.2466  -1.6406
     0.5144   1.0574   9.4209  10.2771  10.4044  11.6120  11.9321  12.1666

     occupation numbers 
     1.0000   1.0000   1.0000   1.0000   1.0000   1.0000   1.0000   1.0000
     0.0000   0.0000   0.0000   0.0000   0.0000   0.0000   0.0000   0.0000

          k = 0.2600 0.5427 0.0000 (  5487 PWs)   bands (ev):

   -14.1522 -14.0754 -12.7179 -12.6526 -10.4396 -10.3928  -1.9637  -1.3738
     0.2206   0.7780   9.3626  10.6685  10.7584  11.5778  11.9840  12.1125

     occupation numbers 
     1.0000   1.0000   1.0000   1.0000   1.0000   1.0000   1.0000   1.0000
     0.0000   0.0000   0.0000   0.0000   0.0000   0.0000   0.0000   0.0000

          k = 0.2600 0.5658 0.0000 (  5492 PWs)   bands (ev):

   -13.9009 -13.8252 -12.9712 -12.9049 -10.4793 -10.4320  -1.7869  -1.2087
     0.0384   0.6064   9.3316  10.8041  11.1967  11.4967  11.8905  12.0639

     occupation numbers 
     1.0000   1.0000   1.0000   1.0000   1.0000   1.0000   1.0000   1.0000
     0.0000   0.0000   0.0000   0.0000   0.0000   0.0000   0.0000   0.0000

          k = 0.2800 0.4850 0.0000 (  5482 PWs)   bands (ev):

   -14.8335 -14.7527 -11.9684 -11.9074 -10.3164 -10.2700  -2.5750  -1.9506
     0.8727   1.3966   9.4623   9.7775  10.0301  11.6555  11.9958  12.0003

     occupation numbers 
     1.0000   1.0000   1.0000   1.0000   1.0000   1.0000   1.0000   1.0000
     0.0000   0.0000   0.0000   0.0000   0.0000   0.0000   0.0000   0.0000

          k = 0.2800 0.5081 0.0000 (  5487 PWs)   bands (ev):

   -14.4916 -14.4130 -12.2444 -12.1815 -10.5219 -10.4746  -2.2271  -1.6187
     0.5199   1.0527   9.3527  10.2541  10.3654  11.9340  12.0569  12.1189

     occupation numbers 
     1.0000   1.0000   1.0000   1.0000   1.0000   1.0000   1.0000   1.0000
     0.0000   0.0000   0.0000   0.0000   0.0000   0.0000   0.0000   0.0000

          k = 0.2800 0.5312 0.0000 (  5482 PWs)   bands (ev):

   -14.1543 -14.0778 -12.5406 -12.4758 -10.6635 -10.6156  -1.9028  -1.3099
     0.1922   0.7360   9.2638  10.6111  10.7271  11.8847  12.1596  12.2631

     occupation numbers 
     1.0000   1.0000   1.0000   1.0000   1.0000   1.0000   1.0000   1.0000
     0.0000   0.0000   0.0000   0.0000   0.0000   0.0000   0.0000   0.0000

          k = 0.2800 0.5543 0.0000 (  5477 PWs)   bands (ev):

   -13.8504 -13.7754 -12.8238 -12.7572 -10.7452 -10.6968  -1.6416  -1.0626
    -0.0707   0.4843   9.2069  10.7478  11.1711  11.7931  12.1946  12.3270

     occupation numbers 
     1.0000   1.0000   1.0000   1.0000   1.0000   1.0000   1.0000   1.0000
     0.0000   0.0000   0.0000   0.0000   0.0000   0.0000   0.0000   0.0000

          k = 0.2800 0.5774 0.0000 (  5474 PWs)   bands (ev):

   -13.6955 -13.6210 -12.9723 -12.9051 -10.7718 -10.7232  -1.5313  -0.9591
    -0.1814   0.3794   9.1874  10.7891  11.4806  11.6320  12.1327  12.5189

     occupation numbers 
     1.0000   1.0000   1.0000   1.0000   1.0000   1.0000   1.0000   1.0000
     0.0000   0.0000   0.0000   0.0000   0.0000   0.0000   0.0000   0.0000

          k = 0.3000 0.5196 0.0000 (  5476 PWs)   bands (ev):

   -14.1558 -14.0796 -12.4689 -12.4046 -10.7495 -10.7016  -1.8819  -1.2877
     0.1825   0.7219   9.2301  10.5911  10.7163  12.0095  12.1922  12.2984

     occupation numbers 
     1.0000   1.0000   1.0000   1.0000   1.0000   1.0000   1.0000   1.0000
     0.0000   0.0000   0.0000   0.0000   0.0000   0.0000   0.0000   0.0000

          k = 0.3000 0.5427 0.0000 (  5482 PWs)   bands (ev):

   -13.8325 -13.7580 -12.7179 -12.6514 -10.9032 -10.8543  -1.5604  -0.9798
    -0.1330   0.4139   9.1426  10.7144  11.1535  11.9568  12.3727  12.3976

     occupation numbers 
     1.0000   1.0000   1.0000   1.0000   1.0000   1.0000   1.0000   1.0000
     0.0000   0.0000   0.0000   0.0000   0.0000   0.0000   0.0000   0.0000

          k = 0.3000 0.5658 0.0000 (  5480 PWs)   bands (ev):

   -13.5697 -13.4967 -12.9440 -12.8760 -10.9795 -10.9303  -1.3232  -0.7535
    -0.3668   0.1879   9.0973  10.7623  11.5206  11.8337  12.3536  12.6113

     occupation numbers 
     1.0000   1.0000   1.0000   1.0000   1.0000   1.0000   1.0000   1.0003
     0.0000   0.0000   0.0000   0.0000   0.0000   0.0000   0.0000   0.0000

          k = 0.3200 0.5543 0.0000 (  5484 PWs)   bands (ev):

   -13.5298 -13.4573 -12.9247 -12.8562 -11.0568 -11.0074  -1.2325  -0.6628
    -0.4500   0.1017   9.0666  10.7507  11.5196  11.9206  12.4372  12.6525

     occupation numbers 
     1.0000   1.0000   1.0000   1.0000   1.0000   1.0000   1.0000   1.0405
     0.0191   0.0000   0.0000   0.0000   0.0000   0.0000   0.0000   0.0000

          k = 0.3200 0.5774 0.0000 (  5488 PWs)   bands (ev):

   -13.3337 -13.2623 -13.0874 -13.0178 -11.1097 -11.0600  -1.0223  -0.6565
    -0.4595  -0.0999   9.0408  10.7583  11.7345  11.8365  12.4419  12.8159

     occupation numbers 
     1.0000   1.0000   1.0000   1.0000   1.0000   1.0000   1.0000   1.0489
     0.0316   0.0000   0.0000   0.0000   0.0000   0.0000   0.0000   0.0000

     the Fermi energy is    -0.5262 ev
     (compare with:    -0.5156 eV, computed in scf)

     Writing all to output data dir ./tmp/C2L_AA_PBE_vdW.save/

     init_run     :     10.11s CPU     10.25s WALL (       1 calls)
     electrons    :     36.26s CPU     36.94s WALL (       1 calls)

     Called by init_run:
     wfcinit      :      0.00s CPU      0.00s WALL (       1 calls)
     wfcinit:atom :      0.04s CPU      0.05s WALL (     234 calls)
     wfcinit:wfcr :      1.76s CPU      1.83s WALL (     234 calls)
     potinit      :      9.76s CPU      9.88s WALL (       1 calls)
     hinit0       :      0.31s CPU      0.32s WALL (       1 calls)

     Called by electrons:
     c_bands      :     36.25s CPU     36.93s WALL (       1 calls)
     v_of_rho     :      9.76s CPU      9.88s WALL (       1 calls)
     v_h          :      0.00s CPU      0.00s WALL (       1 calls)
     v_xc         :      9.76s CPU      9.88s WALL (       1 calls)
     vdW_kernel   :      9.70s CPU      9.82s WALL (       1 calls)

     Called by c_bands:
     init_us_2    :      0.05s CPU      0.05s WALL (     234 calls)
     init_us_2:cp :      0.05s CPU      0.05s WALL (     234 calls)
     cegterg      :     34.15s CPU     34.52s WALL (     460 calls)

     Called by sum_band:

     Called by *egterg:
     cdiaghg      :      2.41s CPU      2.46s WALL (    6884 calls)
     cegterg:over :      2.75s CPU      2.84s WALL (    6650 calls)
     cegterg:upda :      2.26s CPU      2.22s WALL (    6650 calls)
     cegterg:last :      3.07s CPU      2.37s WALL (    3097 calls)
     h_psi        :     23.92s CPU     24.67s WALL (    7344 calls)
     g_psi        :      0.21s CPU      0.32s WALL (    6650 calls)

     Called by h_psi:
     h_psi:calbec :      1.82s CPU      1.88s WALL (    7344 calls)
     vloc_psi     :     19.84s CPU     20.74s WALL (    7344 calls)
     add_vuspsi   :      2.05s CPU      1.82s WALL (    7344 calls)

     General routines
     calbec       :      1.81s CPU      1.85s WALL (    7344 calls)
     fft          :      0.29s CPU      0.29s WALL (      61 calls)
     fftw         :     17.76s CPU     18.49s WALL (  108652 calls)
     davcio       :      0.00s CPU      0.23s WALL (     468 calls)

     Parallel routines

     PWSCF        :     46.99s CPU     48.12s WALL


   This run was terminated on:  12:53:35  15Apr2024            

=------------------------------------------------------------------------------=
   JOB DONE.
=------------------------------------------------------------------------------=
