
     Program PWSCF v.6.7MaX starts on 14Feb2024 at 14:55:52 

     This program is part of the open-source Quantum ESPRESSO suite
     for quantum simulation of materials; please cite
         "P. Giannozzi et al., J. Phys.:Condens. Matter 21 395502 (2009);
         "P. Giannozzi et al., J. Phys.:Condens. Matter 29 465901 (2017);
          URL http://www.quantum-espresso.org", 
     in publications or presentations arising from this work. More details at
     http://www.quantum-espresso.org/quote

     Parallel version (MPI), running on     1 processors

     MPI processes distributed on     1 nodes
     Waiting for input...
     Reading input from standard input

     Current dimensions of program PWSCF are:
     Max number of different atomic species (ntypx) = 10
     Max number of k-points (npk) =  40000
     Max angular momentum in pseudopotentials (lmaxx) =  3
     Message from routine read_pp_mesh:
     mesh size missing, using the one in header
     Message from routine read_pp_mesh:
     mesh size missing, using the one in header

     Subspace diagonalization in iterative solution of the eigenvalue problem:
     a serial algorithm will be used


     G-vector sticks info
     --------------------
     sticks:   dense  smooth     PW     G-vecs:    dense   smooth      PW
     Sum         241     241     85                17703    17703    3207



     bravais-lattice index     =            4
     lattice parameter (alat)  =       4.6350  a.u.
     unit-cell volume          =     517.4056 (a.u.)^3
     number of atoms/cell      =            2
     number of atomic types    =            2
     number of electrons       =         8.00
     number of Kohn-Sham states=            8
     kinetic-energy cutoff     =      40.0000  Ry
     charge density cutoff     =     160.0000  Ry
     scf convergence threshold =      1.0E-06
     mixing beta               =       0.7000
     number of iterations used =            8  plain     mixing
     Exchange-correlation= PBE
                           (   1   4   3   4   0   0   0)

     celldm(1)=   4.635000  celldm(2)=   0.000000  celldm(3)=   6.000000
     celldm(4)=   0.000000  celldm(5)=   0.000000  celldm(6)=   0.000000

     crystal axes: (cart. coord. in units of alat)
               a(1) = (   1.000000   0.000000   0.000000 )  
               a(2) = (  -0.500000   0.866025   0.000000 )  
               a(3) = (   0.000000   0.000000   6.000000 )  

     reciprocal axes: (cart. coord. in units 2 pi/alat)
               b(1) = (  1.000000  0.577350 -0.000000 )  
               b(2) = (  0.000000  1.154701  0.000000 )  
               b(3) = (  0.000000 -0.000000  0.166667 )  


     PseudoPot. # 1 for N  read from file:
     ../../../../Pseudo/PBE/N.upf
     MD5 check sum: d34365f73bb0e2ee98afc20ec3e87676
     Pseudo is Norm-conserving + core correction, Zval =  5.0
     Generated using ONCVPSP code by D. R. Hamann
     Using radial grid of 1058 points,  4 beta functions with: 
                l(1) =   0
                l(2) =   0
                l(3) =   1
                l(4) =   1

     PseudoPot. # 2 for B  read from file:
     ../../../../Pseudo/PBE/B.upf
     MD5 check sum: 72f82fc31bc892420d0cab7e25c88ab8
     Pseudo is Norm-conserving + core correction, Zval =  3.0
     Generated using ONCVPSP code by D. R. Hamann
     Using radial grid of 1534 points,  4 beta functions with: 
                l(1) =   0
                l(2) =   0
                l(3) =   1
                l(4) =   1

     atomic species   valence    mass     pseudopotential
        N              5.00    14.00670     N ( 1.00)
        B              3.00    10.80100     B ( 1.00)

     12 Sym. Ops. (no inversion) found


                                    s                        frac. trans.

      isym =  1     identity                                     

 cryst.   s( 1) = (     1          0          0      )
                  (     0          1          0      )
                  (     0          0          1      )

 cart.    s( 1) = (  1.0000000  0.0000000  0.0000000 )
                  (  0.0000000  1.0000000  0.0000000 )
                  (  0.0000000  0.0000000  1.0000000 )


      isym =  2     180 deg rotation - cart. axis [0,1,0]        

 cryst.   s( 2) = (    -1          0          0      )
                  (     1          1          0      )
                  (     0          0         -1      )

 cart.    s( 2) = ( -1.0000000  0.0000000  0.0000000 )
                  (  0.0000000  1.0000000  0.0000000 )
                  (  0.0000000  0.0000000 -1.0000000 )


      isym =  3     120 deg rotation - cryst. axis [0,0,1]       

 cryst.   s( 3) = (     0          1          0      )
                  (    -1         -1          0      )
                  (     0          0          1      )

 cart.    s( 3) = ( -0.5000000 -0.8660254  0.0000000 )
                  (  0.8660254 -0.5000000  0.0000000 )
                  (  0.0000000  0.0000000  1.0000000 )


      isym =  4     120 deg rotation - cryst. axis [0,0,-1]      

 cryst.   s( 4) = (    -1         -1          0      )
                  (     1          0          0      )
                  (     0          0          1      )

 cart.    s( 4) = ( -0.5000000  0.8660254  0.0000000 )
                  ( -0.8660254 -0.5000000  0.0000000 )
                  (  0.0000000  0.0000000  1.0000000 )


      isym =  5     180 deg rotation - cryst. axis [1,-1,0]      

 cryst.   s( 5) = (     0         -1          0      )
                  (    -1          0          0      )
                  (     0          0         -1      )

 cart.    s( 5) = (  0.5000000 -0.8660254  0.0000000 )
                  ( -0.8660254 -0.5000000  0.0000000 )
                  (  0.0000000  0.0000000 -1.0000000 )


      isym =  6     180 deg rotation - cryst. axis [2,1,0]       

 cryst.   s( 6) = (     1          1          0      )
                  (     0         -1          0      )
                  (     0          0         -1      )

 cart.    s( 6) = (  0.5000000  0.8660254  0.0000000 )
                  (  0.8660254 -0.5000000  0.0000000 )
                  (  0.0000000  0.0000000 -1.0000000 )


      isym =  7     inv. 180 deg rotation - cart. axis [0,0,1]   

 cryst.   s( 7) = (     1          0          0      )
                  (     0          1          0      )
                  (     0          0         -1      )

 cart.    s( 7) = (  1.0000000  0.0000000  0.0000000 )
                  (  0.0000000  1.0000000  0.0000000 )
                  (  0.0000000  0.0000000 -1.0000000 )


      isym =  8     inv. 180 deg rotation - cart. axis [1,0,0]   

 cryst.   s( 8) = (    -1          0          0      )
                  (     1          1          0      )
                  (     0          0          1      )

 cart.    s( 8) = ( -1.0000000  0.0000000  0.0000000 )
                  (  0.0000000  1.0000000  0.0000000 )
                  (  0.0000000  0.0000000  1.0000000 )


      isym =  9     inv.  60 deg rotation - cryst. axis [0,0,1]  

 cryst.   s( 9) = (    -1         -1          0      )
                  (     1          0          0      )
                  (     0          0         -1      )

 cart.    s( 9) = ( -0.5000000  0.8660254  0.0000000 )
                  ( -0.8660254 -0.5000000  0.0000000 )
                  (  0.0000000  0.0000000 -1.0000000 )


      isym = 10     inv.  60 deg rotation - cryst. axis [0,0,-1] 

 cryst.   s(10) = (     0          1          0      )
                  (    -1         -1          0      )
                  (     0          0         -1      )

 cart.    s(10) = ( -0.5000000 -0.8660254  0.0000000 )
                  (  0.8660254 -0.5000000  0.0000000 )
                  (  0.0000000  0.0000000 -1.0000000 )


      isym = 11     inv. 180 deg rotation - cryst. axis [0,1,0]  

 cryst.   s(11) = (     1          1          0      )
                  (     0         -1          0      )
                  (     0          0          1      )

 cart.    s(11) = (  0.5000000  0.8660254  0.0000000 )
                  (  0.8660254 -0.5000000  0.0000000 )
                  (  0.0000000  0.0000000  1.0000000 )


      isym = 12     inv. 180 deg rotation - cryst. axis [1,1,0]  

 cryst.   s(12) = (     0         -1          0      )
                  (    -1          0          0      )
                  (     0          0          1      )

 cart.    s(12) = (  0.5000000 -0.8660254  0.0000000 )
                  ( -0.8660254 -0.5000000  0.0000000 )
                  (  0.0000000  0.0000000  1.0000000 )


     point group D_3h (-62m)
     there are  6 classes
     the character table:

       E     2C3   3C2   s_h   2S3   3s_v 
A'_1   1.00  1.00  1.00  1.00  1.00  1.00
A'_2   1.00  1.00 -1.00  1.00  1.00 -1.00
E'     2.00 -1.00  0.00  2.00 -1.00  0.00
A''1   1.00  1.00  1.00 -1.00 -1.00 -1.00
A''2   1.00  1.00 -1.00 -1.00 -1.00  1.00
E''    2.00 -1.00  0.00 -2.00  1.00  0.00

     the symmetry operations in each class and the name of the first element:

     E        1
          identity                                               
     2C3      3    4
          120 deg rotation - cryst. axis [0,0,1]                 
     3C2      2    6    5
          180 deg rotation - cart. axis [0,1,0]                  
     s_h      7
          inv. 180 deg rotation - cart. axis [0,0,1]             
     2S3      9   10
          inv.  60 deg rotation - cryst. axis [0,0,1]            
     3s_v     8   11   12
          inv. 180 deg rotation - cart. axis [1,0,0]             

   Cartesian axes

     site n.     atom                  positions (alat units)
         1           B   tau(   1) = (   0.0000000   0.0000000   0.0000000  )
         2           N   tau(   2) = (  -0.0000000   0.5773503   0.0000000  )

   Crystallographic axes

     site n.     atom                  positions (cryst. coord.)
         1           B   tau(   1) = (  0.0000000  0.0000000  0.0000000  )
         2           N   tau(   2) = (  0.3333333  0.6666667  0.0000000  )

     number of k points=    30
                       cart. coord. in units 2pi/alat
        k(    1) = (   0.0000000   0.0000000   0.0000000), wk =   0.0078125
        k(    2) = (   0.0000000   0.0721688   0.0000000), wk =   0.0468750
        k(    3) = (   0.0000000   0.1443376   0.0000000), wk =   0.0468750
        k(    4) = (   0.0000000   0.2165064   0.0000000), wk =   0.0468750
        k(    5) = (   0.0000000   0.2886751   0.0000000), wk =   0.0468750
        k(    6) = (   0.0000000   0.3608439   0.0000000), wk =   0.0468750
        k(    7) = (   0.0000000   0.4330127   0.0000000), wk =   0.0468750
        k(    8) = (   0.0000000   0.5051815   0.0000000), wk =   0.0468750
        k(    9) = (   0.0000000  -0.5773503   0.0000000), wk =   0.0234375
        k(   10) = (   0.0625000   0.1082532   0.0000000), wk =   0.0468750
        k(   11) = (   0.0625000   0.1804220   0.0000000), wk =   0.0937500
        k(   12) = (   0.0625000   0.2525907   0.0000000), wk =   0.0937500
        k(   13) = (   0.0625000   0.3247595   0.0000000), wk =   0.0937500
        k(   14) = (   0.0625000   0.3969283   0.0000000), wk =   0.0937500
        k(   15) = (   0.0625000   0.4690971   0.0000000), wk =   0.0937500
        k(   16) = (   0.0625000   0.5412659   0.0000000), wk =   0.0937500
        k(   17) = (   0.1250000   0.2165064   0.0000000), wk =   0.0468750
        k(   18) = (   0.1250000   0.2886751   0.0000000), wk =   0.0937500
        k(   19) = (   0.1250000   0.3608439   0.0000000), wk =   0.0937500
        k(   20) = (   0.1250000   0.4330127   0.0000000), wk =   0.0937500
        k(   21) = (   0.1250000   0.5051815   0.0000000), wk =   0.0937500
        k(   22) = (   0.1250000   0.5773503   0.0000000), wk =   0.0468750
        k(   23) = (   0.1875000   0.3247595   0.0000000), wk =   0.0468750
        k(   24) = (   0.1875000   0.3969283   0.0000000), wk =   0.0937500
        k(   25) = (   0.1875000   0.4690971   0.0000000), wk =   0.0937500
        k(   26) = (   0.1875000   0.5412659   0.0000000), wk =   0.0937500
        k(   27) = (   0.2500000   0.4330127   0.0000000), wk =   0.0468750
        k(   28) = (   0.2500000   0.5051815   0.0000000), wk =   0.0937500
        k(   29) = (   0.2500000   0.5773503   0.0000000), wk =   0.0468750
        k(   30) = (   0.3125000   0.5412659   0.0000000), wk =   0.0468750

                       cryst. coord.
        k(    1) = (   0.0000000   0.0000000   0.0000000), wk =   0.0078125
        k(    2) = (   0.0000000   0.0625000   0.0000000), wk =   0.0468750
        k(    3) = (   0.0000000   0.1250000   0.0000000), wk =   0.0468750
        k(    4) = (   0.0000000   0.1875000   0.0000000), wk =   0.0468750
        k(    5) = (   0.0000000   0.2500000   0.0000000), wk =   0.0468750
        k(    6) = (   0.0000000   0.3125000   0.0000000), wk =   0.0468750
        k(    7) = (   0.0000000   0.3750000   0.0000000), wk =   0.0468750
        k(    8) = (   0.0000000   0.4375000   0.0000000), wk =   0.0468750
        k(    9) = (   0.0000000  -0.5000000   0.0000000), wk =   0.0234375
        k(   10) = (   0.0625000   0.0625000   0.0000000), wk =   0.0468750
        k(   11) = (   0.0625000   0.1250000   0.0000000), wk =   0.0937500
        k(   12) = (   0.0625000   0.1875000   0.0000000), wk =   0.0937500
        k(   13) = (   0.0625000   0.2500000   0.0000000), wk =   0.0937500
        k(   14) = (   0.0625000   0.3125000   0.0000000), wk =   0.0937500
        k(   15) = (   0.0625000   0.3750000   0.0000000), wk =   0.0937500
        k(   16) = (   0.0625000   0.4375000   0.0000000), wk =   0.0937500
        k(   17) = (   0.1250000   0.1250000   0.0000000), wk =   0.0468750
        k(   18) = (   0.1250000   0.1875000   0.0000000), wk =   0.0937500
        k(   19) = (   0.1250000   0.2500000   0.0000000), wk =   0.0937500
        k(   20) = (   0.1250000   0.3125000   0.0000000), wk =   0.0937500
        k(   21) = (   0.1250000   0.3750000   0.0000000), wk =   0.0937500
        k(   22) = (   0.1250000   0.4375000   0.0000000), wk =   0.0468750
        k(   23) = (   0.1875000   0.1875000   0.0000000), wk =   0.0468750
        k(   24) = (   0.1875000   0.2500000   0.0000000), wk =   0.0937500
        k(   25) = (   0.1875000   0.3125000   0.0000000), wk =   0.0937500
        k(   26) = (   0.1875000   0.3750000   0.0000000), wk =   0.0937500
        k(   27) = (   0.2500000   0.2500000   0.0000000), wk =   0.0468750
        k(   28) = (   0.2500000   0.3125000   0.0000000), wk =   0.0937500
        k(   29) = (   0.2500000   0.3750000   0.0000000), wk =   0.0468750
        k(   30) = (   0.3125000   0.3125000   0.0000000), wk =   0.0468750

     Dense  grid:    17703 G-vectors     FFT dimensions: (  20,  20, 120)

     Dynamical RAM for                 wfc:       0.27 MB

     Dynamical RAM for     wfc (w. buffer):       8.36 MB

     Dynamical RAM for           str. fact:       0.54 MB

     Dynamical RAM for           local pot:       0.00 MB

     Dynamical RAM for          nlocal pot:       0.54 MB

     Dynamical RAM for                qrad:       0.58 MB

     Dynamical RAM for          rho,v,vnew:       1.91 MB

     Dynamical RAM for               rhoin:       0.64 MB

     Dynamical RAM for            rho*nmix:       4.32 MB

     Dynamical RAM for           G-vectors:       1.15 MB

     Dynamical RAM for          h,s,v(r/c):       0.01 MB

     Dynamical RAM for          <psi|beta>:       0.00 MB

     Dynamical RAM for                 psi:       0.54 MB

     Dynamical RAM for                hpsi:       0.54 MB

     Dynamical RAM for      wfcinit/wfcrot:       0.54 MB

     Estimated static dynamical RAM per process >      20.68 MB

     Estimated max dynamical RAM per process >      21.77 MB

     Check: negative core charge=   -0.000019

     Initial potential from superposition of free atoms

     starting charge    7.99974, renormalised to    8.00000

     negative rho (up, down):  6.390E-04 0.000E+00
     Starting wfcs are    8 randomized atomic wfcs

     total cpu time spent up to now is        0.3 secs

     Self-consistent Calculation

     iteration #  1     ecut=    40.00 Ry     beta= 0.70
     Davidson diagonalization with overlap
     ethr =  1.00E-02,  avg # of iterations =  8.6

     negative rho (up, down):  1.536E-04 0.000E+00

     total cpu time spent up to now is        1.1 secs

     total energy              =     -26.60466400 Ry
     estimated scf accuracy    <       0.35123877 Ry

     iteration #  2     ecut=    40.00 Ry     beta= 0.70
     Davidson diagonalization with overlap
     ethr =  4.39E-03,  avg # of iterations =  3.9

     negative rho (up, down):  6.608E-05 0.000E+00

     total cpu time spent up to now is        1.9 secs

     total energy              =     -26.68104339 Ry
     estimated scf accuracy    <       0.10510066 Ry

     iteration #  3     ecut=    40.00 Ry     beta= 0.70
     Davidson diagonalization with overlap
     ethr =  1.31E-03,  avg # of iterations =  3.1

     negative rho (up, down):  3.993E-07 0.000E+00

     total cpu time spent up to now is        2.8 secs

     total energy              =     -26.70187785 Ry
     estimated scf accuracy    <       0.00154301 Ry

     iteration #  4     ecut=    40.00 Ry     beta= 0.70
     Davidson diagonalization with overlap
     c_bands:  1 eigenvalues not converged
     ethr =  1.93E-05,  avg # of iterations =  9.5

     negative rho (up, down):  3.028E-08 0.000E+00

     total cpu time spent up to now is        4.8 secs

     total energy              =     -26.70255582 Ry
     estimated scf accuracy    <       0.00062420 Ry

     iteration #  5     ecut=    40.00 Ry     beta= 0.70
     Davidson diagonalization with overlap
     ethr =  7.80E-06,  avg # of iterations =  2.1

     total cpu time spent up to now is        5.7 secs

     total energy              =     -26.70268431 Ry
     estimated scf accuracy    <       0.00000976 Ry

     iteration #  6     ecut=    40.00 Ry     beta= 0.70
     Davidson diagonalization with overlap
     ethr =  1.22E-07,  avg # of iterations =  3.6

     total cpu time spent up to now is        7.6 secs

     total energy              =     -26.70268633 Ry
     estimated scf accuracy    <       0.00000476 Ry

     iteration #  7     ecut=    40.00 Ry     beta= 0.70
     Davidson diagonalization with overlap
     ethr =  5.95E-08,  avg # of iterations =  1.5

     total cpu time spent up to now is        8.2 secs

     End of self-consistent calculation

          k = 0.0000 0.0000 0.0000 (  2239 PWs)   bands (ev):

   -21.4627  -8.8821  -4.5288  -4.5288   1.0065   1.8275   2.0120   4.1202

     occupation numbers 
     1.0000   1.0000   1.0000   1.0000   0.0000   0.0000   0.0000   0.0000

          k = 0.0000 0.0722 0.0000 (  2236 PWs)   bands (ev):

   -21.3838  -8.7746  -4.8621  -4.6936   1.1392   1.9542   2.1441   4.2396

     occupation numbers 
     1.0000   1.0000   1.0000   1.0000   0.0000   0.0000   0.0000   0.0000

          k = 0.0000 0.1443 0.0000 (  2222 PWs)   bands (ev):

   -21.1481  -8.4499  -5.7687  -5.1219   1.5321   2.3331   2.5362   4.5917

     occupation numbers 
     1.0000   1.0000   1.0000   1.0000   0.0000   0.0000   0.0000   0.0000

          k = 0.0000 0.2165 0.0000 (  2222 PWs)   bands (ev):

   -20.7659  -7.9278  -7.0428  -5.6867   2.1762   2.9560   3.1801   5.1361

     occupation numbers 
     1.0000   1.0000   1.0000   1.0000   0.0000   0.0000   0.0000   0.0000

          k = 0.0000 0.2887 0.0000 (  2210 PWs)   bands (ev):

   -20.2486  -8.4661  -7.2179  -6.2708   3.0666   3.7879   4.0712   5.6282

     occupation numbers 
     1.0000   1.0000   1.0000   1.0000   0.0000   0.0000   0.0000   0.0000

          k = 0.0000 0.3608 0.0000 (  2218 PWs)   bands (ev):

   -19.6321  -9.8926  -6.7963  -6.3651   4.1935   4.3323   5.1997   5.5135

     occupation numbers 
     1.0000   1.0000   1.0000   1.0000   0.0000   0.0000   0.0000   0.0000

          k = 0.0000 0.4330 0.0000 (  2210 PWs)   bands (ev):

   -18.9753 -11.1683  -7.1890  -5.4336   3.2974   5.5181   6.5235   6.5982

     occupation numbers 
     1.0000   1.0000   1.0000   1.0000   0.0000   0.0000   0.0000   0.0000

          k = 0.0000 0.5052 0.0000 (  2216 PWs)   bands (ev):

   -18.4185 -12.1091  -7.4537  -4.6033   2.1723   6.7531   7.7995   8.1938

     occupation numbers 
     1.0000   1.0000   1.0000   1.0000   0.0000   0.0000   0.0000   0.0000

          k = 0.0000-0.5774 0.0000 (  2212 PWs)   bands (ev):

   -18.1815 -12.4756  -7.5375  -4.2390   1.6914   7.1110   9.2307   9.5201

     occupation numbers 
     1.0000   1.0000   1.0000   1.0000   0.0000   0.0000   0.0000   0.0000

          k = 0.0625 0.1083 0.0000 (  2223 PWs)   bands (ev):

   -21.2258  -8.5570  -5.4616  -5.0092   1.4022   2.2072   2.4064   4.4760

     occupation numbers 
     1.0000   1.0000   1.0000   1.0000   0.0000   0.0000   0.0000   0.0000

          k = 0.0625 0.1804 0.0000 (  2221 PWs)   bands (ev):

   -20.9169  -8.1340  -6.5024  -5.5585   1.9211   2.7085   2.9251   4.9272

     occupation numbers 
     1.0000   1.0000   1.0000   1.0000   0.0000   0.0000   0.0000   0.0000

          k = 0.0625 0.2526 0.0000 (  2218 PWs)   bands (ev):

   -20.4669  -7.8014  -7.5190  -6.1804   2.6898   3.4418   3.6943   5.4912

     occupation numbers 
     1.0000   1.0000   1.0000   1.0000   0.0000   0.0000   0.0000   0.0000

          k = 0.0625 0.3248 0.0000 (  2216 PWs)   bands (ev):

   -19.8972  -9.2025  -6.7620  -6.7348   3.7028   4.2724   4.7089   5.5633

     occupation numbers 
     1.0000   1.0000   1.0000   1.0000   0.0000   0.0000   0.0000   0.0000

          k = 0.0625 0.3969 0.0000 (  2207 PWs)   bands (ev):

   -19.2523 -10.5397  -7.2346  -5.8293   3.8958   4.9449   5.9541   6.0225

     occupation numbers 
     1.0000   1.0000   1.0000   1.0000   0.0000   0.0000   0.0000   0.0000

          k = 0.0625 0.4691 0.0000 (  2223 PWs)   bands (ev):

   -18.6291 -11.6645  -7.5764  -4.9235   2.6874   6.3396   7.3427   7.4478

     occupation numbers 
     1.0000   1.0000   1.0000   1.0000   0.0000   0.0000   0.0000   0.0000

          k = 0.0625 0.5413 0.0000 (  2208 PWs)   bands (ev):

   -18.2016 -12.3357  -7.7486  -4.2732   1.8331   7.3286   8.6342   9.1624

     occupation numbers 
     1.0000   1.0000   1.0000   1.0000   0.0000   0.0000   0.0000   0.0000

          k = 0.1250 0.2165 0.0000 (  2229 PWs)   bands (ev):

   -20.5414  -7.6206  -7.4872  -6.2544   2.5654   3.3226   3.5701   5.4180

     occupation numbers 
     1.0000   1.0000   1.0000   1.0000   0.0000   0.0000   0.0000   0.0000

          k = 0.1250 0.2887 0.0000 (  2215 PWs)   bands (ev):

   -20.0336  -8.6558  -6.9632  -6.9240   3.4604   4.1134   4.4667   5.6769

     occupation numbers 
     1.0000   1.0000   1.0000   1.0000   0.0000   0.0000   0.0000   0.0000

          k = 0.1250 0.3608 0.0000 (  2215 PWs)   bands (ev):

   -19.4286  -9.9106  -7.5713  -6.0804   4.3056   4.5981   5.6081   5.7434

     occupation numbers 
     1.0000   1.0000   1.0000   1.0000   0.0000   0.0000   0.0000   0.0000

          k = 0.1250 0.4330 0.0000 (  2214 PWs)   bands (ev):

   -18.7922 -11.0769  -8.0163  -5.1691   3.2350   5.9591   6.9505   6.9774

     occupation numbers 
     1.0000   1.0000   1.0000   1.0000   0.0000   0.0000   0.0000   0.0000

          k = 0.1250 0.5052 0.0000 (  2206 PWs)   bands (ev):

   -18.2511 -11.9545  -8.2907  -4.3610   2.1904   7.4436   8.4572   8.5270

     occupation numbers 
     1.0000   1.0000   1.0000   1.0000   0.0000   0.0000   0.0000   0.0000

          k = 0.1250 0.5774 0.0000 (  2188 PWs)   bands (ev):

   -18.0216 -12.2921  -8.3742  -4.0026   1.7461   8.2418   9.5913  10.0084

     occupation numbers 
     1.0000   1.0000   1.0000   1.0000   0.0000   0.0000   0.0000   0.0000

          k = 0.1875 0.3248 0.0000 (  2223 PWs)   bands (ev):

   -19.4899  -9.5839  -7.8147  -6.1683   4.4302   4.4812   5.4913   5.6858

     occupation numbers 
     1.0000   1.0000   1.0000   1.0000   0.0000   0.0000   0.0000   0.0000

          k = 0.1875 0.3969 0.0000 (  2210 PWs)   bands (ev):

   -18.8801 -10.5594  -8.4976  -5.2988   3.6013   5.7427   6.7049   6.7608

     occupation numbers 
     1.0000   1.0000   1.0000   1.0000   0.0000   0.0000   0.0000   0.0000

          k = 0.1875 0.4691 0.0000 (  2200 PWs)   bands (ev):

   -18.2969 -11.4439  -8.9482  -4.4421   2.5786   7.2223   8.1278   8.2584

     occupation numbers 
     1.0000   1.0000   1.0000   1.0000   0.0000   0.0000   0.0000   0.0000

          k = 0.1875 0.5413 0.0000 (  2193 PWs)   bands (ev):

   -17.9093 -12.0017  -9.1671  -3.8427   1.8636   8.7845   9.6015   9.8106

     occupation numbers 
     1.0000   1.0000   1.0000   1.0000   0.0000   0.0000   0.0000   0.0000

          k = 0.2500 0.4330 0.0000 (  2211 PWs)   bands (ev):

   -18.3176 -11.1473  -9.3097  -4.4771   2.7491   7.1217   7.9895   8.1562

     occupation numbers 
     1.0000   1.0000   1.0000   1.0000   0.0000   0.0000   0.0000   0.0000

          k = 0.2500 0.5052 0.0000 (  2184 PWs)   bands (ev):

   -17.8563 -11.6121  -9.8292  -3.7665   2.0209   8.6949   9.2351   9.7684

     occupation numbers 
     1.0000   1.0000   1.0000   1.0000   0.0000   0.0000   0.0000   0.0000

          k = 0.2500 0.5774 0.0000 (  2184 PWs)   bands (ev):

   -17.6718 -11.8054 -10.0083  -3.4666   1.7114   9.5778  10.0241  10.6908

     occupation numbers 
     1.0000   1.0000   1.0000   1.0000   0.0000   0.0000   0.0000   0.0000

          k = 0.3125 0.5413 0.0000 (  2179 PWs)   bands (ev):

   -17.5873 -11.6025 -10.4323  -3.3324   1.6734   9.3515  10.2073  11.2920

     occupation numbers 
     1.0000   1.0000   1.0000   1.0000   0.0000   0.0000   0.0000   0.0000

     highest occupied, lowest unoccupied level (ev):    -3.3324    1.0065

!    total energy              =     -26.70268655 Ry
     estimated scf accuracy    <       0.00000035 Ry

     The total energy is the sum of the following terms:
     one-electron contribution =    -158.19732623 Ry
     hartree contribution      =      80.91924116 Ry
     xc contribution           =      -8.71471492 Ry
     ewald contribution        =      59.29011344 Ry

     convergence has been achieved in   7 iterations

     Forces acting on atoms (cartesian axes, Ry/au):

     atom    1 type  2   force =     0.00000000    0.00000000    0.00000000
     atom    2 type  1   force =     0.00000000    0.00000000    0.00000000
     The non-local contrib.  to forces
     atom    1 type  2   force =     0.00000000    0.00000000    0.00000000
     atom    2 type  1   force =     0.00000000    0.00000000    0.00000000
     The ionic contribution  to forces
     atom    1 type  2   force =    -0.00000001    0.00000000   -0.00000000
     atom    2 type  1   force =     0.00000001   -0.00000000   -0.00000000
     The local contribution  to forces
     atom    1 type  2   force =     0.00000000   -0.00000000    0.00000000
     atom    2 type  1   force =     0.00000003   -0.00000002    0.00000000
     The core correction contribution to forces
     atom    1 type  2   force =    -0.00000000    0.00000000    0.00000000
     atom    2 type  1   force =    -0.00000000    0.00000000    0.00000000
     The Hubbard contrib.    to forces
     atom    1 type  2   force =     0.00000000    0.00000000    0.00000000
     atom    2 type  1   force =     0.00000000    0.00000000    0.00000000
     The SCF correction term to forces
     atom    1 type  2   force =    -0.00000000    0.00000000   -0.00000000
     atom    2 type  1   force =     0.00000000   -0.00000000    0.00000000

     Total force =     0.000000     Total SCF correction =     0.000000


     Computing stress (Cartesian axis) and pressure

          total   stress  (Ry/bohr**3)                   (kbar)     P=      -53.78
  -0.00021131  -0.00000000  -0.00000000          -31.08       -0.00       -0.00
  -0.00000000  -0.00021131  -0.00000000           -0.00      -31.08       -0.00
   0.00000000  -0.00000000  -0.00067424            0.00       -0.00      -99.18

     kinetic stress (kbar)   3434.61     -0.00      0.00
                               -0.00   3434.61      0.00
                                0.00      0.00   3713.03

     local   stress (kbar) -47277.81      0.00      0.00
                                0.00 -47277.81      0.00
                                0.00      0.00  47858.82

     nonloc. stress (kbar)   -577.00      0.00      0.00
                                0.00   -577.00      0.00
                                0.00      0.00   -548.15

     hartree stress (kbar)  22449.42     -0.00      0.00
                               -0.00  22449.42     -0.00
                                0.00     -0.00 -21892.46

     exc-cor stress (kbar)   -349.97     -0.00     -0.00
                               -0.00   -349.97      0.00
                               -0.00      0.00   -376.01

     corecor stress (kbar)   -380.00      0.00     -0.00
                                0.00   -380.00     -0.00
                               -0.00     -0.00   -372.06

     ewald   stress (kbar)  22669.65     -0.00     -0.00
                               -0.00  22669.65     -0.00
                               -0.00     -0.00 -28482.36

     hubbard stress (kbar)      0.00      0.00      0.00
                                0.00      0.00      0.00
                                0.00      0.00      0.00

     DFT-D   stress (kbar)      0.00      0.00      0.00
                                0.00      0.00      0.00
                                0.00      0.00      0.00

     XDM     stress (kbar)      0.00      0.00      0.00
                                0.00      0.00      0.00
                                0.00      0.00      0.00

     dft-nl  stress (kbar)      0.00      0.00      0.00
                                0.00      0.00      0.00
                                0.00      0.00      0.00

     TS-vdW  stress (kbar)      0.00      0.00      0.00
                                0.00      0.00      0.00
                                0.00      0.00      0.00



     Writing output data file ./tmp/hBN.save/

     init_run     :      0.51s CPU      0.27s WALL (       1 calls)
     electrons    :     14.79s CPU      7.92s WALL (       1 calls)
     forces       :      0.30s CPU      0.11s WALL (       1 calls)
     stress       :      0.88s CPU      0.42s WALL (       1 calls)

     Called by init_run:
     wfcinit      :      0.43s CPU      0.18s WALL (       1 calls)
     wfcinit:atom :      0.03s CPU      0.01s WALL (      30 calls)
     wfcinit:wfcr :      0.30s CPU      0.12s WALL (      30 calls)
     potinit      :      0.02s CPU      0.02s WALL (       1 calls)
     hinit0       :      0.06s CPU      0.06s WALL (       1 calls)

     Called by electrons:
     c_bands      :     13.13s CPU      7.11s WALL (       7 calls)
     sum_band     :      1.34s CPU      0.63s WALL (       7 calls)
     v_of_rho     :      0.28s CPU      0.16s WALL (       8 calls)
     v_h          :      0.01s CPU      0.01s WALL (       8 calls)
     v_xc         :      0.37s CPU      0.20s WALL (      10 calls)
     mix_rho      :      0.03s CPU      0.03s WALL (       7 calls)

     Called by c_bands:
     init_us_2    :      0.66s CPU      0.27s WALL (     510 calls)
     cegterg      :     12.18s CPU      6.73s WALL (     210 calls)

     Called by sum_band:
     sum_band:wei :      0.00s CPU      0.00s WALL (       7 calls)
     sum_band:loo :      1.31s CPU      0.62s WALL (       7 calls)
     sum_band:buf :      0.03s CPU      0.01s WALL (     210 calls)
     sum_band:ini :      0.24s CPU      0.11s WALL (     210 calls)

     Called by *egterg:
     cdiaghg      :      0.29s CPU      0.12s WALL (    1175 calls)
     cegterg:over :      0.78s CPU      0.43s WALL (     965 calls)
     cegterg:upda :      0.56s CPU      0.32s WALL (     965 calls)
     cegterg:last :      0.55s CPU      0.31s WALL (     561 calls)
     h_psi        :      9.86s CPU      5.51s WALL (    1205 calls)
     g_psi        :      0.17s CPU      0.07s WALL (     965 calls)

     Called by h_psi:
     h_psi:calbec :      2.82s CPU      2.36s WALL (    1205 calls)
     vloc_psi     :      6.47s CPU      2.84s WALL (    1205 calls)
     add_vuspsi   :      0.45s CPU      0.26s WALL (    1205 calls)

     General routines
     calbec       :      2.92s CPU      2.41s WALL (    1355 calls)
     fft          :      0.08s CPU      0.04s WALL (     104 calls)
     ffts         :      0.01s CPU      0.00s WALL (       7 calls)
     fftw         :      5.04s CPU      2.24s WALL (   12674 calls)

     Parallel routines

     PWSCF        :     16.62s CPU      8.83s WALL


   This run was terminated on:  14:56: 0  14Feb2024            

=------------------------------------------------------------------------------=
   JOB DONE.
=------------------------------------------------------------------------------=
