
     Program PWSCF v.6.7MaX starts on 14Feb2024 at 14:56:58 

     This program is part of the open-source Quantum ESPRESSO suite
     for quantum simulation of materials; please cite
         "P. Giannozzi et al., J. Phys.:Condens. Matter 21 395502 (2009);
         "P. Giannozzi et al., J. Phys.:Condens. Matter 29 465901 (2017);
          URL http://www.quantum-espresso.org", 
     in publications or presentations arising from this work. More details at
     http://www.quantum-espresso.org/quote

     Parallel version (MPI), running on     1 processors

     MPI processes distributed on     1 nodes
     Waiting for input...
     Reading input from standard input

     Current dimensions of program PWSCF are:
     Max number of different atomic species (ntypx) = 10
     Max number of k-points (npk) =  40000
     Max angular momentum in pseudopotentials (lmaxx) =  3
     Message from routine read_pp_mesh:
     mesh size missing, using the one in header
     Message from routine read_pp_mesh:
     mesh size missing, using the one in header

     Subspace diagonalization in iterative solution of the eigenvalue problem:
     a serial algorithm will be used


     G-vector sticks info
     --------------------
     sticks:   dense  smooth     PW     G-vecs:    dense   smooth      PW
     Sum         421     421    121                41033    41033    6849



     bravais-lattice index     =            4
     lattice parameter (alat)  =       4.6350  a.u.
     unit-cell volume          =     517.4056 (a.u.)^3
     number of atoms/cell      =            2
     number of atomic types    =            2
     number of electrons       =         8.00
     number of Kohn-Sham states=            8
     kinetic-energy cutoff     =      70.0000  Ry
     charge density cutoff     =     280.0000  Ry
     scf convergence threshold =      1.0E-06
     mixing beta               =       0.7000
     number of iterations used =            8  plain     mixing
     Exchange-correlation= PBE
                           (   1   4   3   4   0   0   0)

     celldm(1)=   4.635000  celldm(2)=   0.000000  celldm(3)=   6.000000
     celldm(4)=   0.000000  celldm(5)=   0.000000  celldm(6)=   0.000000

     crystal axes: (cart. coord. in units of alat)
               a(1) = (   1.000000   0.000000   0.000000 )  
               a(2) = (  -0.500000   0.866025   0.000000 )  
               a(3) = (   0.000000   0.000000   6.000000 )  

     reciprocal axes: (cart. coord. in units 2 pi/alat)
               b(1) = (  1.000000  0.577350 -0.000000 )  
               b(2) = (  0.000000  1.154701  0.000000 )  
               b(3) = (  0.000000 -0.000000  0.166667 )  


     PseudoPot. # 1 for N  read from file:
     ../../../../Pseudo/PBE/N.upf
     MD5 check sum: d34365f73bb0e2ee98afc20ec3e87676
     Pseudo is Norm-conserving + core correction, Zval =  5.0
     Generated using ONCVPSP code by D. R. Hamann
     Using radial grid of 1058 points,  4 beta functions with: 
                l(1) =   0
                l(2) =   0
                l(3) =   1
                l(4) =   1

     PseudoPot. # 2 for B  read from file:
     ../../../../Pseudo/PBE/B.upf
     MD5 check sum: 72f82fc31bc892420d0cab7e25c88ab8
     Pseudo is Norm-conserving + core correction, Zval =  3.0
     Generated using ONCVPSP code by D. R. Hamann
     Using radial grid of 1534 points,  4 beta functions with: 
                l(1) =   0
                l(2) =   0
                l(3) =   1
                l(4) =   1

     atomic species   valence    mass     pseudopotential
        N              5.00    14.00670     N ( 1.00)
        B              3.00    10.80100     B ( 1.00)

     12 Sym. Ops. (no inversion) found


                                    s                        frac. trans.

      isym =  1     identity                                     

 cryst.   s( 1) = (     1          0          0      )
                  (     0          1          0      )
                  (     0          0          1      )

 cart.    s( 1) = (  1.0000000  0.0000000  0.0000000 )
                  (  0.0000000  1.0000000  0.0000000 )
                  (  0.0000000  0.0000000  1.0000000 )


      isym =  2     180 deg rotation - cart. axis [0,1,0]        

 cryst.   s( 2) = (    -1          0          0      )
                  (     1          1          0      )
                  (     0          0         -1      )

 cart.    s( 2) = ( -1.0000000  0.0000000  0.0000000 )
                  (  0.0000000  1.0000000  0.0000000 )
                  (  0.0000000  0.0000000 -1.0000000 )


      isym =  3     120 deg rotation - cryst. axis [0,0,1]       

 cryst.   s( 3) = (     0          1          0      )
                  (    -1         -1          0      )
                  (     0          0          1      )

 cart.    s( 3) = ( -0.5000000 -0.8660254  0.0000000 )
                  (  0.8660254 -0.5000000  0.0000000 )
                  (  0.0000000  0.0000000  1.0000000 )


      isym =  4     120 deg rotation - cryst. axis [0,0,-1]      

 cryst.   s( 4) = (    -1         -1          0      )
                  (     1          0          0      )
                  (     0          0          1      )

 cart.    s( 4) = ( -0.5000000  0.8660254  0.0000000 )
                  ( -0.8660254 -0.5000000  0.0000000 )
                  (  0.0000000  0.0000000  1.0000000 )


      isym =  5     180 deg rotation - cryst. axis [1,-1,0]      

 cryst.   s( 5) = (     0         -1          0      )
                  (    -1          0          0      )
                  (     0          0         -1      )

 cart.    s( 5) = (  0.5000000 -0.8660254  0.0000000 )
                  ( -0.8660254 -0.5000000  0.0000000 )
                  (  0.0000000  0.0000000 -1.0000000 )


      isym =  6     180 deg rotation - cryst. axis [2,1,0]       

 cryst.   s( 6) = (     1          1          0      )
                  (     0         -1          0      )
                  (     0          0         -1      )

 cart.    s( 6) = (  0.5000000  0.8660254  0.0000000 )
                  (  0.8660254 -0.5000000  0.0000000 )
                  (  0.0000000  0.0000000 -1.0000000 )


      isym =  7     inv. 180 deg rotation - cart. axis [0,0,1]   

 cryst.   s( 7) = (     1          0          0      )
                  (     0          1          0      )
                  (     0          0         -1      )

 cart.    s( 7) = (  1.0000000  0.0000000  0.0000000 )
                  (  0.0000000  1.0000000  0.0000000 )
                  (  0.0000000  0.0000000 -1.0000000 )


      isym =  8     inv. 180 deg rotation - cart. axis [1,0,0]   

 cryst.   s( 8) = (    -1          0          0      )
                  (     1          1          0      )
                  (     0          0          1      )

 cart.    s( 8) = ( -1.0000000  0.0000000  0.0000000 )
                  (  0.0000000  1.0000000  0.0000000 )
                  (  0.0000000  0.0000000  1.0000000 )


      isym =  9     inv.  60 deg rotation - cryst. axis [0,0,1]  

 cryst.   s( 9) = (    -1         -1          0      )
                  (     1          0          0      )
                  (     0          0         -1      )

 cart.    s( 9) = ( -0.5000000  0.8660254  0.0000000 )
                  ( -0.8660254 -0.5000000  0.0000000 )
                  (  0.0000000  0.0000000 -1.0000000 )


      isym = 10     inv.  60 deg rotation - cryst. axis [0,0,-1] 

 cryst.   s(10) = (     0          1          0      )
                  (    -1         -1          0      )
                  (     0          0         -1      )

 cart.    s(10) = ( -0.5000000 -0.8660254  0.0000000 )
                  (  0.8660254 -0.5000000  0.0000000 )
                  (  0.0000000  0.0000000 -1.0000000 )


      isym = 11     inv. 180 deg rotation - cryst. axis [0,1,0]  

 cryst.   s(11) = (     1          1          0      )
                  (     0         -1          0      )
                  (     0          0          1      )

 cart.    s(11) = (  0.5000000  0.8660254  0.0000000 )
                  (  0.8660254 -0.5000000  0.0000000 )
                  (  0.0000000  0.0000000  1.0000000 )


      isym = 12     inv. 180 deg rotation - cryst. axis [1,1,0]  

 cryst.   s(12) = (     0         -1          0      )
                  (    -1          0          0      )
                  (     0          0          1      )

 cart.    s(12) = (  0.5000000 -0.8660254  0.0000000 )
                  ( -0.8660254 -0.5000000  0.0000000 )
                  (  0.0000000  0.0000000  1.0000000 )


     point group D_3h (-62m)
     there are  6 classes
     the character table:

       E     2C3   3C2   s_h   2S3   3s_v 
A'_1   1.00  1.00  1.00  1.00  1.00  1.00
A'_2   1.00  1.00 -1.00  1.00  1.00 -1.00
E'     2.00 -1.00  0.00  2.00 -1.00  0.00
A''1   1.00  1.00  1.00 -1.00 -1.00 -1.00
A''2   1.00  1.00 -1.00 -1.00 -1.00  1.00
E''    2.00 -1.00  0.00 -2.00  1.00  0.00

     the symmetry operations in each class and the name of the first element:

     E        1
          identity                                               
     2C3      3    4
          120 deg rotation - cryst. axis [0,0,1]                 
     3C2      2    6    5
          180 deg rotation - cart. axis [0,1,0]                  
     s_h      7
          inv. 180 deg rotation - cart. axis [0,0,1]             
     2S3      9   10
          inv.  60 deg rotation - cryst. axis [0,0,1]            
     3s_v     8   11   12
          inv. 180 deg rotation - cart. axis [1,0,0]             

   Cartesian axes

     site n.     atom                  positions (alat units)
         1           B   tau(   1) = (   0.0000000   0.0000000   0.0000000  )
         2           N   tau(   2) = (  -0.0000000   0.5773503   0.0000000  )

   Crystallographic axes

     site n.     atom                  positions (cryst. coord.)
         1           B   tau(   1) = (  0.0000000  0.0000000  0.0000000  )
         2           N   tau(   2) = (  0.3333333  0.6666667  0.0000000  )

     number of k points=    30
                       cart. coord. in units 2pi/alat
        k(    1) = (   0.0000000   0.0000000   0.0000000), wk =   0.0078125
        k(    2) = (   0.0000000   0.0721688   0.0000000), wk =   0.0468750
        k(    3) = (   0.0000000   0.1443376   0.0000000), wk =   0.0468750
        k(    4) = (   0.0000000   0.2165064   0.0000000), wk =   0.0468750
        k(    5) = (   0.0000000   0.2886751   0.0000000), wk =   0.0468750
        k(    6) = (   0.0000000   0.3608439   0.0000000), wk =   0.0468750
        k(    7) = (   0.0000000   0.4330127   0.0000000), wk =   0.0468750
        k(    8) = (   0.0000000   0.5051815   0.0000000), wk =   0.0468750
        k(    9) = (   0.0000000  -0.5773503   0.0000000), wk =   0.0234375
        k(   10) = (   0.0625000   0.1082532   0.0000000), wk =   0.0468750
        k(   11) = (   0.0625000   0.1804220   0.0000000), wk =   0.0937500
        k(   12) = (   0.0625000   0.2525907   0.0000000), wk =   0.0937500
        k(   13) = (   0.0625000   0.3247595   0.0000000), wk =   0.0937500
        k(   14) = (   0.0625000   0.3969283   0.0000000), wk =   0.0937500
        k(   15) = (   0.0625000   0.4690971   0.0000000), wk =   0.0937500
        k(   16) = (   0.0625000   0.5412659   0.0000000), wk =   0.0937500
        k(   17) = (   0.1250000   0.2165064   0.0000000), wk =   0.0468750
        k(   18) = (   0.1250000   0.2886751   0.0000000), wk =   0.0937500
        k(   19) = (   0.1250000   0.3608439   0.0000000), wk =   0.0937500
        k(   20) = (   0.1250000   0.4330127   0.0000000), wk =   0.0937500
        k(   21) = (   0.1250000   0.5051815   0.0000000), wk =   0.0937500
        k(   22) = (   0.1250000   0.5773503   0.0000000), wk =   0.0468750
        k(   23) = (   0.1875000   0.3247595   0.0000000), wk =   0.0468750
        k(   24) = (   0.1875000   0.3969283   0.0000000), wk =   0.0937500
        k(   25) = (   0.1875000   0.4690971   0.0000000), wk =   0.0937500
        k(   26) = (   0.1875000   0.5412659   0.0000000), wk =   0.0937500
        k(   27) = (   0.2500000   0.4330127   0.0000000), wk =   0.0468750
        k(   28) = (   0.2500000   0.5051815   0.0000000), wk =   0.0937500
        k(   29) = (   0.2500000   0.5773503   0.0000000), wk =   0.0468750
        k(   30) = (   0.3125000   0.5412659   0.0000000), wk =   0.0468750

                       cryst. coord.
        k(    1) = (   0.0000000   0.0000000   0.0000000), wk =   0.0078125
        k(    2) = (   0.0000000   0.0625000   0.0000000), wk =   0.0468750
        k(    3) = (   0.0000000   0.1250000   0.0000000), wk =   0.0468750
        k(    4) = (   0.0000000   0.1875000   0.0000000), wk =   0.0468750
        k(    5) = (   0.0000000   0.2500000   0.0000000), wk =   0.0468750
        k(    6) = (   0.0000000   0.3125000   0.0000000), wk =   0.0468750
        k(    7) = (   0.0000000   0.3750000   0.0000000), wk =   0.0468750
        k(    8) = (   0.0000000   0.4375000   0.0000000), wk =   0.0468750
        k(    9) = (   0.0000000  -0.5000000   0.0000000), wk =   0.0234375
        k(   10) = (   0.0625000   0.0625000   0.0000000), wk =   0.0468750
        k(   11) = (   0.0625000   0.1250000   0.0000000), wk =   0.0937500
        k(   12) = (   0.0625000   0.1875000   0.0000000), wk =   0.0937500
        k(   13) = (   0.0625000   0.2500000   0.0000000), wk =   0.0937500
        k(   14) = (   0.0625000   0.3125000   0.0000000), wk =   0.0937500
        k(   15) = (   0.0625000   0.3750000   0.0000000), wk =   0.0937500
        k(   16) = (   0.0625000   0.4375000   0.0000000), wk =   0.0937500
        k(   17) = (   0.1250000   0.1250000   0.0000000), wk =   0.0468750
        k(   18) = (   0.1250000   0.1875000   0.0000000), wk =   0.0937500
        k(   19) = (   0.1250000   0.2500000   0.0000000), wk =   0.0937500
        k(   20) = (   0.1250000   0.3125000   0.0000000), wk =   0.0937500
        k(   21) = (   0.1250000   0.3750000   0.0000000), wk =   0.0937500
        k(   22) = (   0.1250000   0.4375000   0.0000000), wk =   0.0468750
        k(   23) = (   0.1875000   0.1875000   0.0000000), wk =   0.0468750
        k(   24) = (   0.1875000   0.2500000   0.0000000), wk =   0.0937500
        k(   25) = (   0.1875000   0.3125000   0.0000000), wk =   0.0937500
        k(   26) = (   0.1875000   0.3750000   0.0000000), wk =   0.0937500
        k(   27) = (   0.2500000   0.2500000   0.0000000), wk =   0.0468750
        k(   28) = (   0.2500000   0.3125000   0.0000000), wk =   0.0937500
        k(   29) = (   0.2500000   0.3750000   0.0000000), wk =   0.0468750
        k(   30) = (   0.3125000   0.3125000   0.0000000), wk =   0.0468750

     Dense  grid:    41033 G-vectors     FFT dimensions: (  25,  25, 150)

     Dynamical RAM for                 wfc:       0.62 MB

     Dynamical RAM for     wfc (w. buffer):      19.36 MB

     Dynamical RAM for           str. fact:       1.25 MB

     Dynamical RAM for           local pot:       0.00 MB

     Dynamical RAM for          nlocal pot:       1.25 MB

     Dynamical RAM for                qrad:       0.77 MB

     Dynamical RAM for          rho,v,vnew:       4.02 MB

     Dynamical RAM for               rhoin:       1.34 MB

     Dynamical RAM for            rho*nmix:      10.02 MB

     Dynamical RAM for           G-vectors:       2.66 MB

     Dynamical RAM for          h,s,v(r/c):       0.01 MB

     Dynamical RAM for          <psi|beta>:       0.00 MB

     Dynamical RAM for                 psi:       1.25 MB

     Dynamical RAM for                hpsi:       1.25 MB

     Dynamical RAM for      wfcinit/wfcrot:       1.25 MB

     Estimated static dynamical RAM per process >      46.13 MB

     Estimated max dynamical RAM per process >      48.64 MB

     Initial potential from superposition of free atoms

     starting charge    7.99974, renormalised to    8.00000

     negative rho (up, down):  4.231E-05 0.000E+00
     Starting wfcs are    8 randomized atomic wfcs

     total cpu time spent up to now is        1.0 secs

     Self-consistent Calculation

     iteration #  1     ecut=    70.00 Ry     beta= 0.70
     Davidson diagonalization with overlap
     ethr =  1.00E-02,  avg # of iterations =  8.1

     negative rho (up, down):  2.717E-06 0.000E+00

     total cpu time spent up to now is        4.0 secs

     total energy              =     -26.68120280 Ry
     estimated scf accuracy    <       0.42095234 Ry

     iteration #  2     ecut=    70.00 Ry     beta= 0.70
     Davidson diagonalization with overlap
     ethr =  5.26E-03,  avg # of iterations =  3.6

     negative rho (up, down):  6.703E-07 0.000E+00

     total cpu time spent up to now is        6.3 secs

     total energy              =     -26.78003144 Ry
     estimated scf accuracy    <       0.15597360 Ry

     iteration #  3     ecut=    70.00 Ry     beta= 0.70
     Davidson diagonalization with overlap
     ethr =  1.95E-03,  avg # of iterations =  2.8

     total cpu time spent up to now is        9.4 secs

     total energy              =     -26.80964356 Ry
     estimated scf accuracy    <       0.00164434 Ry

     iteration #  4     ecut=    70.00 Ry     beta= 0.70
     Davidson diagonalization with overlap
     ethr =  2.06E-05,  avg # of iterations = 10.3

     total cpu time spent up to now is       14.5 secs

     total energy              =     -26.81088125 Ry
     estimated scf accuracy    <       0.00089384 Ry

     iteration #  5     ecut=    70.00 Ry     beta= 0.70
     Davidson diagonalization with overlap
     ethr =  1.12E-05,  avg # of iterations =  1.9

     total cpu time spent up to now is       16.5 secs

     total energy              =     -26.81105279 Ry
     estimated scf accuracy    <       0.00000785 Ry

     iteration #  6     ecut=    70.00 Ry     beta= 0.70
     Davidson diagonalization with overlap
     ethr =  9.82E-08,  avg # of iterations =  5.5

     total cpu time spent up to now is       20.0 secs

     total energy              =     -26.81105734 Ry
     estimated scf accuracy    <       0.00001279 Ry

     iteration #  7     ecut=    70.00 Ry     beta= 0.70
     Davidson diagonalization with overlap
     ethr =  9.82E-08,  avg # of iterations =  1.9

     total cpu time spent up to now is       21.7 secs

     total energy              =     -26.81105778 Ry
     estimated scf accuracy    <       0.00000120 Ry

     iteration #  8     ecut=    70.00 Ry     beta= 0.70
     Davidson diagonalization with overlap
     ethr =  1.51E-08,  avg # of iterations =  3.2

     total cpu time spent up to now is       23.7 secs

     End of self-consistent calculation

          k = 0.0000 0.0000 0.0000 (  5175 PWs)   bands (ev):

   -21.3031  -8.8508  -4.5538  -4.5538   1.3478   2.3459   2.8874   4.7866

     occupation numbers 
     1.0000   1.0000   1.0000   1.0000   0.0000   0.0000   0.0000   0.0000

          k = 0.0000 0.0722 0.0000 (  5105 PWs)   bands (ev):

   -21.2243  -8.7440  -4.8820  -4.7129   1.4814   2.4698   3.0185   4.9040

     occupation numbers 
     1.0000   1.0000   1.0000   1.0000   0.0000   0.0000   0.0000   0.0000

          k = 0.0000 0.1443 0.0000 (  5117 PWs)   bands (ev):

   -20.9902  -8.4265  -5.7728  -5.1348   1.8736   2.8387   3.4092   5.2467

     occupation numbers 
     1.0000   1.0000   1.0000   1.0000   0.0000   0.0000   0.0000   0.0000

          k = 0.0000 0.2165 0.0000 (  5103 PWs)   bands (ev):

   -20.6081  -7.9066  -7.0211  -5.6959   2.5116   3.4385   4.0551   5.7588

     occupation numbers 
     1.0000   1.0000   1.0000   1.0000   0.0000   0.0000   0.0000   0.0000

          k = 0.0000 0.2887 0.0000 (  5095 PWs)   bands (ev):

   -20.0933  -8.4305  -7.2020  -6.2774   3.3864   4.1932   4.9519   6.0650

     occupation numbers 
     1.0000   1.0000   1.0000   1.0000   0.0000   0.0000   0.0000   0.0000

          k = 0.0000 0.3608 0.0000 (  5107 PWs)   bands (ev):

   -19.4765  -9.8422  -6.7948  -6.3487   4.3721   4.4834   6.0290   6.0888

     occupation numbers 
     1.0000   1.0000   1.0000   1.0000   0.0000   0.0000   0.0000   0.0000

          k = 0.0000 0.4330 0.0000 (  5106 PWs)   bands (ev):

   -18.8214 -11.1114  -7.1943  -5.4235   3.2634   5.7476   7.1387   7.3747

     occupation numbers 
     1.0000   1.0000   1.0000   1.0000   0.0000   0.0000   0.0000   0.0000

          k = 0.0000 0.5052 0.0000 (  5124 PWs)   bands (ev):

   -18.2619 -12.0561  -7.4449  -4.6035   2.1545   6.8591   8.2689   8.6867

     occupation numbers 
     1.0000   1.0000   1.0000   1.0000   0.0000   0.0000   0.0000   0.0000

          k = 0.0000-0.5774 0.0000 (  5112 PWs)   bands (ev):

   -18.0260 -12.4230  -7.5301  -4.2428   1.6823   7.1791   9.4775   9.9430

     occupation numbers 
     1.0000   1.0000   1.0000   1.0000   0.0000   0.0000   0.0000   0.0000

          k = 0.0625 0.1083 0.0000 (  5097 PWs)   bands (ev):

   -21.0678  -8.5319  -5.4662  -5.0290   1.7444   2.7163   3.2794   5.1343

     occupation numbers 
     1.0000   1.0000   1.0000   1.0000   0.0000   0.0000   0.0000   0.0000

          k = 0.0625 0.1804 0.0000 (  5099 PWs)   bands (ev):

   -20.7596  -8.1129  -6.4851  -5.5712   2.2603   3.2018   3.7983   5.5678

     occupation numbers 
     1.0000   1.0000   1.0000   1.0000   0.0000   0.0000   0.0000   0.0000

          k = 0.0625 0.2526 0.0000 (  5091 PWs)   bands (ev):

   -20.3103  -7.7725  -7.4997  -6.1842   3.0193   3.8927   4.5712   6.0396

     occupation numbers 
     1.0000   1.0000   1.0000   1.0000   0.0000   0.0000   0.0000   0.0000

          k = 0.0625 0.3248 0.0000 (  5118 PWs)   bands (ev):

   -19.7418  -9.1583  -6.7600  -6.7176   4.0119   4.5156   5.5931   5.9463

     occupation numbers 
     1.0000   1.0000   1.0000   1.0000   0.0000   0.0000   0.0000   0.0000

          k = 0.0625 0.3969 0.0000 (  5123 PWs)   bands (ev):

   -19.0981 -10.4899  -7.2331  -5.8187   3.8596   5.2158   6.5748   6.8444

     occupation numbers 
     1.0000   1.0000   1.0000   1.0000   0.0000   0.0000   0.0000   0.0000

          k = 0.0625 0.4691 0.0000 (  5124 PWs)   bands (ev):

   -18.4721 -11.6064  -7.5655  -4.9189   2.6629   6.5291   7.9612   8.0749

     occupation numbers 
     1.0000   1.0000   1.0000   1.0000   0.0000   0.0000   0.0000   0.0000

          k = 0.0625 0.5413 0.0000 (  5122 PWs)   bands (ev):

   -18.0470 -12.2855  -7.7363  -4.2798   1.8213   7.3985   9.0052   9.6010

     occupation numbers 
     1.0000   1.0000   1.0000   1.0000   0.0000   0.0000   0.0000   0.0000

          k = 0.1250 0.2165 0.0000 (  5090 PWs)   bands (ev):

   -20.3835  -7.6000  -7.4525  -6.2559   2.8990   3.7843   4.4452   5.9956

     occupation numbers 
     1.0000   1.0000   1.0000   1.0000   0.0000   0.0000   0.0000   0.0000

          k = 0.1250 0.2887 0.0000 (  5094 PWs)   bands (ev):

   -19.8779  -8.6153  -6.9651  -6.9062   3.7812   4.4535   5.3466   6.0466

     occupation numbers 
     1.0000   1.0000   1.0000   1.0000   0.0000   0.0000   0.0000   0.0000

          k = 0.1250 0.3608 0.0000 (  5124 PWs)   bands (ev):

   -19.2741  -9.8608  -7.5629  -6.0682   4.2921   4.8957   6.2852   6.4966

     occupation numbers 
     1.0000   1.0000   1.0000   1.0000   0.0000   0.0000   0.0000   0.0000

          k = 0.1250 0.4330 0.0000 (  5129 PWs)   bands (ev):

   -18.6362 -11.0251  -8.0043  -5.1630   3.1993   6.2146   7.4718   7.8711

     occupation numbers 
     1.0000   1.0000   1.0000   1.0000   0.0000   0.0000   0.0000   0.0000

          k = 0.1250 0.5052 0.0000 (  5127 PWs)   bands (ev):

   -18.0960 -11.9062  -8.2738  -4.3652   2.1715   7.6010   8.9792   9.0775

     occupation numbers 
     1.0000   1.0000   1.0000   1.0000   0.0000   0.0000   0.0000   0.0000

          k = 0.1250 0.5774 0.0000 (  5110 PWs)   bands (ev):

   -17.8700 -12.2495  -8.3643  -4.0160   1.7332   8.2850   9.8199  10.2582

     occupation numbers 
     1.0000   1.0000   1.0000   1.0000   0.0000   0.0000   0.0000   0.0000

          k = 0.1875 0.3248 0.0000 (  5118 PWs)   bands (ev):

   -19.3343  -9.5344  -7.8021  -6.1533   4.4422   4.7875   6.2119   6.3772

     occupation numbers 
     1.0000   1.0000   1.0000   1.0000   0.0000   0.0000   0.0000   0.0000

          k = 0.1875 0.3969 0.0000 (  5119 PWs)   bands (ev):

   -18.7253 -10.5091  -8.4816  -5.2948   3.5584   6.0235   7.2279   7.6564

     occupation numbers 
     1.0000   1.0000   1.0000   1.0000   0.0000   0.0000   0.0000   0.0000

          k = 0.1875 0.4691 0.0000 (  5122 PWs)   bands (ev):

   -18.1429 -11.4003  -8.9273  -4.4456   2.5495   7.4545   8.5731   9.1580

     occupation numbers 
     1.0000   1.0000   1.0000   1.0000   0.0000   0.0000   0.0000   0.0000

          k = 0.1875 0.5413 0.0000 (  5122 PWs)   bands (ev):

   -17.7557 -11.9634  -9.1444  -3.8517   1.8485   8.8994   9.8297  10.2281

     occupation numbers 
     1.0000   1.0000   1.0000   1.0000   0.0000   0.0000   0.0000   0.0000

          k = 0.2500 0.4330 0.0000 (  5132 PWs)   bands (ev):

   -18.1618 -11.1007  -9.2855  -4.4777   2.7170   7.3713   8.4286   9.0620

     occupation numbers 
     1.0000   1.0000   1.0000   1.0000   0.0000   0.0000   0.0000   0.0000

          k = 0.2500 0.5052 0.0000 (  5140 PWs)   bands (ev):

   -17.7036 -11.5821  -9.7995  -3.7805   1.9987   8.8790   9.4321  10.6587

     occupation numbers 
     1.0000   1.0000   1.0000   1.0000   0.0000   0.0000   0.0000   0.0000

          k = 0.2500 0.5774 0.0000 (  5134 PWs)   bands (ev):

   -17.5191 -11.7816  -9.9695  -3.4850   1.6954   9.6431  10.0458  10.8889

     occupation numbers 
     1.0000   1.0000   1.0000   1.0000   0.0000   0.0000   0.0000   0.0000

          k = 0.3125 0.5413 0.0000 (  5146 PWs)   bands (ev):

   -17.4347 -11.5887 -10.3910  -3.3520   1.6578   9.4136  10.2617  11.5451

     occupation numbers 
     1.0000   1.0000   1.0000   1.0000   0.0000   0.0000   0.0000   0.0000

     highest occupied, lowest unoccupied level (ev):    -3.3520    1.3478

!    total energy              =     -26.81105823 Ry
     estimated scf accuracy    <       0.00000029 Ry

     The total energy is the sum of the following terms:
     one-electron contribution =    -158.40886926 Ry
     hartree contribution      =      81.05670975 Ry
     xc contribution           =      -8.74901219 Ry
     ewald contribution        =      59.29011347 Ry

     convergence has been achieved in   8 iterations

     Forces acting on atoms (cartesian axes, Ry/au):

     atom    1 type  2   force =     0.00000000    0.00000000    0.00000000
     atom    2 type  1   force =     0.00000000    0.00000000    0.00000000
     The non-local contrib.  to forces
     atom    1 type  2   force =     0.00000000    0.00000000    0.00000000
     atom    2 type  1   force =     0.00000000    0.00000000    0.00000000
     The ionic contribution  to forces
     atom    1 type  2   force =    -0.00000001    0.00000000   -0.00000000
     atom    2 type  1   force =     0.00000001   -0.00000000   -0.00000000
     The local contribution  to forces
     atom    1 type  2   force =     0.00000000    0.00000000    0.00000000
     atom    2 type  1   force =     0.00000003   -0.00000002   -0.00000000
     The core correction contribution to forces
     atom    1 type  2   force =    -0.00000000    0.00000000    0.00000000
     atom    2 type  1   force =    -0.00000000    0.00000000    0.00000000
     The Hubbard contrib.    to forces
     atom    1 type  2   force =     0.00000000    0.00000000    0.00000000
     atom    2 type  1   force =     0.00000000    0.00000000    0.00000000
     The SCF correction term to forces
     atom    1 type  2   force =     0.00000000    0.00000000   -0.00000000
     atom    2 type  1   force =    -0.00000000    0.00000000   -0.00000000

     Total force =     0.000000     Total SCF correction =     0.000000


     Computing stress (Cartesian axis) and pressure

          total   stress  (Ry/bohr**3)                   (kbar)     P=       39.63
   0.00041027  -0.00000000   0.00000000           60.35       -0.00        0.00
  -0.00000000   0.00041027   0.00000000           -0.00       60.35        0.00
   0.00000000   0.00000000  -0.00001233            0.00        0.00       -1.81

     kinetic stress (kbar)   3514.90      0.00      0.00
                                0.00   3514.90      0.00
                                0.00      0.00   3795.81

     local   stress (kbar) -47275.60      0.00      0.00
                                0.00 -47275.60     -0.00
                                0.00     -0.00  47903.25

     nonloc. stress (kbar)   -589.11     -0.00      0.00
                               -0.00   -589.11      0.00
                                0.00      0.00   -561.74

     hartree stress (kbar)  22474.81      0.00     -0.00
                                0.00  22474.81      0.00
                               -0.00      0.00 -21904.14

     exc-cor stress (kbar)   -348.81     -0.00      0.00
                               -0.00   -348.81     -0.00
                                0.00     -0.00   -375.16

     corecor stress (kbar)   -385.49      0.00     -0.00
                                0.00   -385.49      0.00
                               -0.00      0.00   -377.47

     ewald   stress (kbar)  22669.65     -0.00     -0.00
                               -0.00  22669.65     -0.00
                               -0.00     -0.00 -28482.36

     hubbard stress (kbar)      0.00      0.00      0.00
                                0.00      0.00      0.00
                                0.00      0.00      0.00

     DFT-D   stress (kbar)      0.00      0.00      0.00
                                0.00      0.00      0.00
                                0.00      0.00      0.00

     XDM     stress (kbar)      0.00      0.00      0.00
                                0.00      0.00      0.00
                                0.00      0.00      0.00

     dft-nl  stress (kbar)      0.00      0.00      0.00
                                0.00      0.00      0.00
                                0.00      0.00      0.00

     TS-vdW  stress (kbar)      0.00      0.00      0.00
                                0.00      0.00      0.00
                                0.00      0.00      0.00



     Writing output data file ./tmp/hBN.save/

     init_run     :      1.53s CPU      0.94s WALL (       1 calls)
     electrons    :     47.98s CPU     22.74s WALL (       1 calls)
     forces       :      0.67s CPU      0.29s WALL (       1 calls)
     stress       :      3.54s CPU      2.04s WALL (       1 calls)

     Called by init_run:
     wfcinit      :      1.35s CPU      0.75s WALL (       1 calls)
     wfcinit:atom :      0.07s CPU      0.03s WALL (      30 calls)
     wfcinit:wfcr :      1.06s CPU      0.61s WALL (      30 calls)
     potinit      :      0.05s CPU      0.06s WALL (       1 calls)
     hinit0       :      0.10s CPU      0.10s WALL (       1 calls)

     Called by electrons:
     c_bands      :     44.39s CPU     20.11s WALL (       8 calls)
     sum_band     :      3.11s CPU      2.15s WALL (       8 calls)
     v_of_rho     :      0.40s CPU      0.41s WALL (       9 calls)
     v_h          :      0.03s CPU      0.03s WALL (       9 calls)
     v_xc         :      0.50s CPU      0.47s WALL (      11 calls)
     mix_rho      :      0.08s CPU      0.09s WALL (       8 calls)

     Called by c_bands:
     init_us_2    :      1.75s CPU      0.85s WALL (     570 calls)
     cegterg      :     41.33s CPU     18.82s WALL (     240 calls)

     Called by sum_band:
     sum_band:wei :      0.00s CPU      0.00s WALL (       8 calls)
     sum_band:loo :      3.06s CPU      2.10s WALL (       8 calls)
     sum_band:buf :      0.10s CPU      0.07s WALL (     240 calls)
     sum_band:ini :      0.59s CPU      0.40s WALL (     240 calls)

     Called by *egterg:
     cdiaghg      :      0.70s CPU      0.22s WALL (    1361 calls)
     cegterg:over :      2.38s CPU      0.95s WALL (    1121 calls)
     cegterg:upda :      1.75s CPU      0.84s WALL (    1121 calls)
     cegterg:last :      2.05s CPU      0.82s WALL (     665 calls)
     h_psi        :     33.12s CPU     15.55s WALL (    1391 calls)
     g_psi        :      0.64s CPU      0.20s WALL (    1121 calls)

     Called by h_psi:
     h_psi:calbec :      5.03s CPU      3.55s WALL (    1391 calls)
     vloc_psi     :     25.42s CPU     10.99s WALL (    1391 calls)
     add_vuspsi   :      2.25s CPU      0.86s WALL (    1391 calls)

     General routines
     calbec       :      5.38s CPU      3.75s WALL (    1541 calls)
     fft          :      0.15s CPU      0.13s WALL (     114 calls)
     ffts         :      0.01s CPU      0.01s WALL (       8 calls)
     fftw         :     18.81s CPU      8.41s WALL (   14752 calls)

     Parallel routines

     PWSCF        :     53.93s CPU     26.17s WALL


   This run was terminated on:  14:57:24  14Feb2024            

=------------------------------------------------------------------------------=
   JOB DONE.
=------------------------------------------------------------------------------=
