MPI startup(): Warning: I_MPI_PMI_LIBRARY will be ignored since the hydra process manager was found

     Program PROJWFC v.6.8 starts on 15Apr2024 at 13:58:53 

     This program is part of the open-source Quantum ESPRESSO suite
     for quantum simulation of materials; please cite
         "P. Giannozzi et al., J. Phys.:Condens. Matter 21 395502 (2009);
         "P. Giannozzi et al., J. Phys.:Condens. Matter 29 465901 (2017);
         "P. Giannozzi et al., J. Chem. Phys. 152 154105 (2020);
          URL http://www.quantum-espresso.org", 
     in publications or presentations arising from this work. More details at
     http://www.quantum-espresso.org/quote

     Parallel version (MPI), running on     1 processors

     MPI processes distributed on     1 nodes
     177644 MiB available memory on the printing compute node when the environment starts
 

     Reading xml data from directory:

     ./tmp/1L-MoS2.save/

     IMPORTANT: XC functional enforced from input :
     Exchange-correlation= PBE
                           (   1   4   3   4   0   0   0)
     Any further DFT definition will be discarded
     Please, verify this is what you really want

 
     G-vector sticks info
     --------------------
     sticks:   dense  smooth     PW     G-vecs:    dense   smooth      PW
     Sum         673     673    199                83307    83307   13341
 
     Using Slab Decomposition
 

     Gaussian broadening (default values): ngauss,degauss=   0    0.000735


     Calling projwave .... 

     Subspace diagonalization in iterative solution of the eigenvalue problem:
     a serial algorithm will be used

 
  Problem Sizes 
  natomwfc =           36
  nbnd     =           32
  nkstot   =           41
  npwx     =        10512
  nkb      =          102
 

     Atomic states used for projection
     (read from pseudopotential files):

     state #   1: atom   1 (Mo ), wfc  1 (l=0 j=0.5 m_j=-0.5)
     state #   2: atom   1 (Mo ), wfc  1 (l=0 j=0.5 m_j= 0.5)
     state #   3: atom   1 (Mo ), wfc  2 (l=1 j=1.5 m_j=-1.5)
     state #   4: atom   1 (Mo ), wfc  2 (l=1 j=1.5 m_j=-0.5)
     state #   5: atom   1 (Mo ), wfc  2 (l=1 j=1.5 m_j= 0.5)
     state #   6: atom   1 (Mo ), wfc  2 (l=1 j=1.5 m_j= 1.5)
     state #   7: atom   1 (Mo ), wfc  3 (l=1 j=0.5 m_j=-0.5)
     state #   8: atom   1 (Mo ), wfc  3 (l=1 j=0.5 m_j= 0.5)
     state #   9: atom   1 (Mo ), wfc  4 (l=2 j=2.5 m_j=-2.5)
     state #  10: atom   1 (Mo ), wfc  4 (l=2 j=2.5 m_j=-1.5)
     state #  11: atom   1 (Mo ), wfc  4 (l=2 j=2.5 m_j=-0.5)
     state #  12: atom   1 (Mo ), wfc  4 (l=2 j=2.5 m_j= 0.5)
     state #  13: atom   1 (Mo ), wfc  4 (l=2 j=2.5 m_j= 1.5)
     state #  14: atom   1 (Mo ), wfc  4 (l=2 j=2.5 m_j= 2.5)
     state #  15: atom   1 (Mo ), wfc  5 (l=2 j=1.5 m_j=-1.5)
     state #  16: atom   1 (Mo ), wfc  5 (l=2 j=1.5 m_j=-0.5)
     state #  17: atom   1 (Mo ), wfc  5 (l=2 j=1.5 m_j= 0.5)
     state #  18: atom   1 (Mo ), wfc  5 (l=2 j=1.5 m_j= 1.5)
     state #  19: atom   1 (Mo ), wfc  6 (l=0 j=0.5 m_j=-0.5)
     state #  20: atom   1 (Mo ), wfc  6 (l=0 j=0.5 m_j= 0.5)
     state #  21: atom   2 (S  ), wfc  1 (l=0 j=0.5 m_j=-0.5)
     state #  22: atom   2 (S  ), wfc  1 (l=0 j=0.5 m_j= 0.5)
     state #  23: atom   2 (S  ), wfc  2 (l=1 j=1.5 m_j=-1.5)
     state #  24: atom   2 (S  ), wfc  2 (l=1 j=1.5 m_j=-0.5)
     state #  25: atom   2 (S  ), wfc  2 (l=1 j=1.5 m_j= 0.5)
     state #  26: atom   2 (S  ), wfc  2 (l=1 j=1.5 m_j= 1.5)
     state #  27: atom   2 (S  ), wfc  3 (l=1 j=0.5 m_j=-0.5)
     state #  28: atom   2 (S  ), wfc  3 (l=1 j=0.5 m_j= 0.5)
     state #  29: atom   3 (S  ), wfc  1 (l=0 j=0.5 m_j=-0.5)
     state #  30: atom   3 (S  ), wfc  1 (l=0 j=0.5 m_j= 0.5)
     state #  31: atom   3 (S  ), wfc  2 (l=1 j=1.5 m_j=-1.5)
     state #  32: atom   3 (S  ), wfc  2 (l=1 j=1.5 m_j=-0.5)
     state #  33: atom   3 (S  ), wfc  2 (l=1 j=1.5 m_j= 0.5)
     state #  34: atom   3 (S  ), wfc  2 (l=1 j=1.5 m_j= 1.5)
     state #  35: atom   3 (S  ), wfc  3 (l=1 j=0.5 m_j=-0.5)
     state #  36: atom   3 (S  ), wfc  3 (l=1 j=0.5 m_j= 0.5)

 k =   0.0000000000  0.0000000000  0.0000000000
==== e(   1) =   -61.15582 eV ==== 
     psi = 0.477*[#   1]+0.477*[#   2]+0.010*[#  19]+0.010*[#  20]+0.003*[#  24]
          +0.003*[#  25]+0.003*[#  32]+0.003*[#  33]+0.002*[#  27]+0.002*[#  28]
          +0.002*[#  35]+0.002*[#  36]+0.001*[#  11]+0.001*[#  12]
    |psi|^2 = 1.000
==== e(   2) =   -61.15582 eV ==== 
     psi = 0.477*[#   1]+0.477*[#   2]+0.010*[#  19]+0.010*[#  20]+0.003*[#  24]
          +0.003*[#  25]+0.003*[#  32]+0.003*[#  33]+0.002*[#  27]+0.002*[#  28]
          +0.002*[#  35]+0.002*[#  36]+0.001*[#  11]+0.001*[#  12]
    |psi|^2 = 1.000
==== e(   3) =   -36.88094 eV ==== 
     psi = 0.495*[#   7]+0.495*[#   8]+0.001*[#  21]+0.001*[#  22]+0.001*[#  29]
          +0.001*[#  30]
    |psi|^2 = 1.000
==== e(   4) =   -36.88094 eV ==== 
     psi = 0.495*[#   7]+0.495*[#   8]+0.001*[#  21]+0.001*[#  22]+0.001*[#  29]
          +0.001*[#  30]
    |psi|^2 = 1.000
==== e(   5) =   -34.46188 eV ==== 
     psi = 0.491*[#   4]+0.491*[#   5]+0.003*[#  21]+0.003*[#  22]+0.002*[#  29]
          +0.002*[#  30]+0.001*[#   7]+0.001*[#   8]+0.001*[#  24]+0.001*[#  25]
          +0.001*[#  32]+0.001*[#  33]
    |psi|^2 = 1.000
==== e(   6) =   -34.46188 eV ==== 
     psi = 0.491*[#   4]+0.491*[#   5]+0.003*[#  21]+0.003*[#  22]+0.002*[#  29]
          +0.002*[#  30]+0.001*[#   7]+0.001*[#   8]+0.001*[#  24]+0.001*[#  25]
          +0.001*[#  32]+0.001*[#  33]
    |psi|^2 = 1.000
==== e(   7) =   -34.28505 eV ==== 
     psi = 0.499*[#   3]+0.499*[#   6]
    |psi|^2 = 1.000
==== e(   8) =   -34.28505 eV ==== 
     psi = 0.499*[#   3]+0.499*[#   6]
    |psi|^2 = 1.000
==== e(   9) =   -14.51695 eV ==== 
     psi = 0.213*[#  19]+0.213*[#  20]+0.137*[#  21]+0.137*[#  22]+0.131*[#  29]
          +0.131*[#  30]+0.011*[#   1]+0.011*[#   2]+0.002*[#  24]+0.002*[#  25]
          +0.002*[#  32]+0.002*[#  33]+0.001*[#  27]+0.001*[#  28]+0.001*[#  35]
          +0.001*[#  36]
    |psi|^2 = 0.999
==== e(  10) =   -14.51695 eV ==== 
     psi = 0.213*[#  19]+0.213*[#  20]+0.137*[#  21]+0.137*[#  22]+0.131*[#  29]
          +0.131*[#  30]+0.011*[#   1]+0.011*[#   2]+0.002*[#  24]+0.002*[#  25]
          +0.002*[#  32]+0.002*[#  33]+0.001*[#  27]+0.001*[#  28]+0.001*[#  35]
          +0.001*[#  36]
    |psi|^2 = 0.999
==== e(  11) =   -13.22291 eV ==== 
     psi = 0.248*[#  29]+0.248*[#  30]+0.242*[#  21]+0.242*[#  22]+0.005*[#   4]
          +0.005*[#   5]+0.002*[#   7]+0.002*[#   8]
    |psi|^2 = 0.996
==== e(  12) =   -13.22291 eV ==== 
     psi = 0.248*[#  29]+0.248*[#  30]+0.242*[#  21]+0.242*[#  22]+0.005*[#   4]
          +0.005*[#   5]+0.002*[#   7]+0.002*[#   8]
    |psi|^2 = 0.996
==== e(  13) =    -6.03164 eV ==== 
     psi = 0.101*[#  11]+0.101*[#  12]+0.088*[#  24]+0.088*[#  25]+0.087*[#  32]
          +0.087*[#  33]+0.068*[#  16]+0.068*[#  17]+0.044*[#  27]+0.044*[#  28]
          +0.044*[#  35]+0.044*[#  36]+0.017*[#  29]+0.017*[#  30]+0.017*[#  21]
          +0.017*[#  22]+0.015*[#  19]+0.015*[#  20]+0.011*[#   1]+0.011*[#   2]
          
    |psi|^2 = 0.985
==== e(  14) =    -6.03164 eV ==== 
     psi = 0.101*[#  11]+0.101*[#  12]+0.088*[#  24]+0.088*[#  25]+0.087*[#  32]
          +0.087*[#  33]+0.068*[#  16]+0.068*[#  17]+0.044*[#  27]+0.044*[#  28]
          +0.044*[#  35]+0.044*[#  36]+0.017*[#  29]+0.017*[#  30]+0.017*[#  21]
          +0.017*[#  22]+0.015*[#  19]+0.015*[#  20]+0.011*[#   1]+0.011*[#   2]
          
    |psi|^2 = 0.985
==== e(  15) =    -2.93048 eV ==== 
     psi = 0.281*[#  15]+0.281*[#  18]+0.075*[#  23]+0.075*[#  26]+0.074*[#  31]
          +0.074*[#  34]+0.057*[#  10]+0.057*[#  13]+0.006*[#   9]+0.006*[#  14]
          +0.001*[#  27]+0.001*[#  28]+0.001*[#  35]+0.001*[#  36]
    |psi|^2 = 0.991
==== e(  16) =    -2.93048 eV ==== 
     psi = 0.281*[#  15]+0.281*[#  18]+0.075*[#  23]+0.075*[#  26]+0.074*[#  31]
          +0.074*[#  34]+0.057*[#  10]+0.057*[#  13]+0.006*[#   9]+0.006*[#  14]
          +0.001*[#  27]+0.001*[#  28]+0.001*[#  35]+0.001*[#  36]
    |psi|^2 = 0.991
==== e(  17) =    -2.86104 eV ==== 
     psi = 0.326*[#   9]+0.326*[#  14]+0.061*[#  27]+0.061*[#  28]+0.060*[#  35]
          +0.060*[#  36]+0.020*[#  24]+0.020*[#  25]+0.019*[#  32]+0.019*[#  33]
          +0.005*[#  15]+0.005*[#  18]+0.001*[#  23]+0.001*[#  26]+0.001*[#  31]
          +0.001*[#  34]+0.001*[#  10]+0.001*[#  13]
    |psi|^2 = 0.991
==== e(  18) =    -2.86104 eV ==== 
     psi = 0.326*[#   9]+0.326*[#  14]+0.061*[#  27]+0.061*[#  28]+0.060*[#  35]
          +0.060*[#  36]+0.020*[#  24]+0.020*[#  25]+0.019*[#  32]+0.019*[#  33]
          +0.005*[#  15]+0.005*[#  18]+0.001*[#  23]+0.001*[#  26]+0.001*[#  31]
          +0.001*[#  34]+0.001*[#  10]+0.001*[#  13]
    |psi|^2 = 0.991
==== e(  19) =    -2.22115 eV ==== 
     psi = 0.169*[#  24]+0.169*[#  25]+0.169*[#  32]+0.169*[#  33]+0.076*[#  27]
          +0.076*[#  28]+0.076*[#  35]+0.076*[#  36]+0.003*[#   4]+0.003*[#   5]
          +0.001*[#   9]+0.001*[#  14]+0.001*[#   7]+0.001*[#   8]
    |psi|^2 = 0.993
==== e(  20) =    -2.22115 eV ==== 
     psi = 0.169*[#  24]+0.169*[#  25]+0.169*[#  32]+0.169*[#  33]+0.076*[#  27]
          +0.076*[#  28]+0.076*[#  35]+0.076*[#  36]+0.003*[#   4]+0.003*[#   5]
          +0.001*[#   9]+0.001*[#  14]+0.001*[#   7]+0.001*[#   8]
    |psi|^2 = 0.993
==== e(  21) =    -1.83068 eV ==== 
     psi = 0.163*[#  16]+0.163*[#  17]+0.085*[#  11]+0.085*[#  12]+0.065*[#  35]
          +0.065*[#  36]+0.064*[#  27]+0.064*[#  28]+0.032*[#  10]+0.032*[#  13]
          +0.025*[#  24]+0.025*[#  25]+0.025*[#  32]+0.025*[#  33]+0.014*[#  23]
          +0.014*[#  26]+0.014*[#  31]+0.014*[#  34]+0.007*[#  15]+0.007*[#  18]
          
    |psi|^2 = 0.988
==== e(  22) =    -1.83068 eV ==== 
     psi = 0.163*[#  16]+0.163*[#  17]+0.085*[#  11]+0.085*[#  12]+0.065*[#  35]
          +0.065*[#  36]+0.064*[#  27]+0.064*[#  28]+0.032*[#  10]+0.032*[#  13]
          +0.025*[#  24]+0.025*[#  25]+0.025*[#  32]+0.025*[#  33]+0.014*[#  23]
          +0.014*[#  26]+0.014*[#  31]+0.014*[#  34]+0.007*[#  15]+0.007*[#  18]
          
    |psi|^2 = 0.988
==== e(  23) =    -1.71320 eV ==== 
     psi = 0.204*[#  10]+0.204*[#  13]+0.090*[#  31]+0.090*[#  34]+0.090*[#  23]
          +0.090*[#  26]+0.042*[#  15]+0.042*[#  18]+0.026*[#  16]+0.026*[#  17]
          +0.013*[#  11]+0.013*[#  12]+0.010*[#  27]+0.010*[#  28]+0.010*[#  35]
          +0.010*[#  36]+0.004*[#  24]+0.004*[#  25]+0.004*[#  32]+0.004*[#  33]
          
    |psi|^2 = 0.987
==== e(  24) =    -1.71320 eV ==== 
     psi = 0.204*[#  10]+0.204*[#  13]+0.090*[#  31]+0.090*[#  34]+0.090*[#  23]
          +0.090*[#  26]+0.042*[#  15]+0.042*[#  18]+0.026*[#  16]+0.026*[#  17]
          +0.013*[#  11]+0.013*[#  12]+0.010*[#  27]+0.010*[#  28]+0.010*[#  35]
          +0.010*[#  36]+0.004*[#  24]+0.004*[#  25]+0.004*[#  32]+0.004*[#  33]
          
    |psi|^2 = 0.987
==== e(  25) =    -0.44879 eV ==== 
     psi = 0.190*[#  11]+0.190*[#  12]+0.106*[#  16]+0.106*[#  17]+0.068*[#  32]
          +0.068*[#  33]+0.067*[#  24]+0.067*[#  25]+0.024*[#  35]+0.024*[#  36]
          +0.023*[#  27]+0.023*[#  28]+0.003*[#  21]+0.003*[#  22]+0.003*[#  29]
          +0.003*[#  30]
    |psi|^2 = 0.972
==== e(  26) =    -0.44879 eV ==== 
     psi = 0.190*[#  11]+0.190*[#  12]+0.106*[#  16]+0.106*[#  17]+0.068*[#  32]
          +0.068*[#  33]+0.067*[#  24]+0.067*[#  25]+0.024*[#  35]+0.024*[#  36]
          +0.023*[#  27]+0.023*[#  28]+0.003*[#  21]+0.003*[#  22]+0.003*[#  29]
          +0.003*[#  30]
    |psi|^2 = 0.972
==== e(  27) =     2.43910 eV ==== 
     psi = 0.097*[#  16]+0.097*[#  17]+0.084*[#  27]+0.084*[#  28]+0.077*[#  35]
          +0.077*[#  36]+0.070*[#  11]+0.070*[#  12]+0.040*[#  24]+0.040*[#  25]
          +0.036*[#  32]+0.036*[#  33]+0.025*[#  23]+0.025*[#  26]+0.024*[#  10]
          +0.024*[#  13]+0.023*[#  31]+0.023*[#  34]+0.010*[#  15]+0.010*[#  18]
          
    |psi|^2 = 0.971
==== e(  28) =     2.43910 eV ==== 
     psi = 0.097*[#  16]+0.097*[#  17]+0.084*[#  27]+0.084*[#  28]+0.077*[#  35]
          +0.077*[#  36]+0.070*[#  11]+0.070*[#  12]+0.040*[#  24]+0.040*[#  25]
          +0.036*[#  32]+0.036*[#  33]+0.025*[#  23]+0.025*[#  26]+0.024*[#  10]
          +0.024*[#  13]+0.023*[#  31]+0.023*[#  34]+0.010*[#  15]+0.010*[#  18]
          
    |psi|^2 = 0.971
==== e(  29) =     2.55878 eV ==== 
     psi = 0.130*[#  23]+0.130*[#  26]+0.110*[#  31]+0.110*[#  34]+0.102*[#  10]
          +0.102*[#  13]+0.062*[#  15]+0.062*[#  18]+0.020*[#  16]+0.020*[#  17]
          +0.018*[#  27]+0.018*[#  28]+0.015*[#  35]+0.015*[#  36]+0.014*[#  11]
          +0.014*[#  12]+0.008*[#  24]+0.008*[#  25]+0.007*[#  32]+0.007*[#  33]
          
    |psi|^2 = 0.971
==== e(  30) =     2.55878 eV ==== 
     psi = 0.130*[#  23]+0.130*[#  26]+0.110*[#  31]+0.110*[#  34]+0.102*[#  10]
          +0.102*[#  13]+0.062*[#  15]+0.062*[#  18]+0.020*[#  16]+0.020*[#  17]
          +0.018*[#  27]+0.018*[#  28]+0.015*[#  35]+0.015*[#  36]+0.014*[#  11]
          +0.014*[#  12]+0.008*[#  24]+0.008*[#  25]+0.007*[#  32]+0.007*[#  33]
          
    |psi|^2 = 0.971
==== e(  31) =     2.71332 eV ==== 
     psi = 0.089*[#   9]+0.089*[#  14]+0.081*[#  31]+0.081*[#  34]+0.068*[#  23]
          +0.068*[#  26]+0.065*[#  35]+0.065*[#  36]+0.057*[#  27]+0.057*[#  28]
          +0.036*[#  15]+0.036*[#  18]+0.034*[#  32]+0.034*[#  33]+0.032*[#  10]
          +0.032*[#  13]+0.030*[#  24]+0.030*[#  25]
    |psi|^2 = 0.987
==== e(  32) =     2.71332 eV ==== 
     psi = 0.090*[#   9]+0.090*[#  14]+0.080*[#  31]+0.080*[#  34]+0.067*[#  23]
          +0.067*[#  26]+0.066*[#  35]+0.066*[#  36]+0.058*[#  27]+0.058*[#  28]
          +0.035*[#  15]+0.035*[#  18]+0.034*[#  32]+0.034*[#  33]+0.032*[#  10]
          +0.032*[#  13]+0.031*[#  24]+0.031*[#  25]
    |psi|^2 = 0.987

 k =   0.0000000000  0.1283000598  0.0000000000
==== e(   1) =   -61.15082 eV ==== 
     psi = 0.480*[#   1]+0.480*[#   2]+0.007*[#  19]+0.007*[#  20]+0.004*[#  24]
          +0.004*[#  25]+0.003*[#  32]+0.003*[#  33]+0.002*[#  35]+0.002*[#  36]
          +0.001*[#  27]+0.001*[#  28]
    |psi|^2 = 1.000
==== e(   2) =   -61.15082 eV ==== 
     psi = 0.480*[#   1]+0.480*[#   2]+0.007*[#  19]+0.007*[#  20]+0.004*[#  32]
          +0.004*[#  33]+0.003*[#  24]+0.003*[#  25]+0.002*[#  27]+0.002*[#  28]
          +0.001*[#  35]+0.001*[#  36]
    |psi|^2 = 1.000
==== e(   3) =   -36.89396 eV ==== 
     psi = 0.494*[#   7]+0.494*[#   8]+0.001*[#  21]+0.001*[#  22]
    |psi|^2 = 1.000
==== e(   4) =   -36.89390 eV ==== 
     psi = 0.494*[#   7]+0.494*[#   8]+0.001*[#  29]+0.001*[#  30]
    |psi|^2 = 1.000
==== e(   5) =   -34.46822 eV ==== 
     psi = 0.487*[#   4]+0.487*[#   5]+0.004*[#   3]+0.004*[#   6]+0.002*[#  21]
          +0.002*[#  22]+0.002*[#  29]+0.002*[#  30]+0.001*[#  24]+0.001*[#  25]
          +0.001*[#  32]+0.001*[#  33]
    |psi|^2 = 1.000
==== e(   6) =   -34.46816 eV ==== 
     psi = 0.487*[#   4]+0.487*[#   5]+0.004*[#   3]+0.004*[#   6]+0.002*[#  29]
          +0.002*[#  30]+0.002*[#  21]+0.002*[#  22]+0.001*[#  24]+0.001*[#  25]
          +0.001*[#  32]+0.001*[#  33]
    |psi|^2 = 1.000
==== e(   7) =   -34.31673 eV ==== 
     psi = 0.494*[#   3]+0.494*[#   6]+0.004*[#   4]+0.004*[#   5]
    |psi|^2 = 1.000
==== e(   8) =   -34.31660 eV ==== 
     psi = 0.494*[#   3]+0.494*[#   6]+0.004*[#   4]+0.004*[#   5]
    |psi|^2 = 1.000
==== e(   9) =   -14.32918 eV ==== 
     psi = 0.197*[#  19]+0.197*[#  20]+0.146*[#  21]+0.146*[#  22]+0.134*[#  29]
          +0.134*[#  30]+0.009*[#   1]+0.009*[#   2]+0.004*[#  24]+0.004*[#  25]
          +0.003*[#  35]+0.003*[#  36]
    |psi|^2 = 0.999
==== e(  10) =   -14.32879 eV ==== 
     psi = 0.197*[#  19]+0.197*[#  20]+0.140*[#  21]+0.140*[#  22]+0.140*[#  29]
          +0.140*[#  30]+0.009*[#   1]+0.009*[#   2]+0.004*[#  32]+0.004*[#  33]
          +0.003*[#  27]+0.003*[#  28]
    |psi|^2 = 0.999
==== e(  11) =   -13.14422 eV ==== 
     psi = 0.234*[#  21]+0.234*[#  22]+0.234*[#  29]+0.234*[#  30]+0.007*[#  10]
          +0.007*[#  13]+0.005*[#   4]+0.005*[#   5]+0.005*[#  16]+0.005*[#  17]
          +0.003*[#  11]+0.003*[#  12]+0.002*[#   7]+0.002*[#   8]+0.002*[#  23]
          +0.002*[#  26]+0.002*[#  31]+0.002*[#  34]+0.002*[#  35]+0.002*[#  36]
          +0.002*[#  15]+0.002*[#  18]+0.001*[#  24]+0.001*[#  25]
    |psi|^2 = 0.997
==== e(  12) =   -13.14385 eV ==== 
     psi = 0.240*[#  29]+0.240*[#  30]+0.228*[#  21]+0.228*[#  22]+0.007*[#  10]
          +0.007*[#  13]+0.005*[#   4]+0.005*[#   5]+0.005*[#  16]+0.005*[#  17]
          +0.003*[#  11]+0.003*[#  12]+0.002*[#   7]+0.002*[#   8]+0.002*[#  23]
          +0.002*[#  26]+0.002*[#  31]+0.002*[#  34]+0.002*[#  27]+0.002*[#  28]
          +0.002*[#  15]+0.002*[#  18]+0.001*[#  32]+0.001*[#  33]
    |psi|^2 = 0.997
==== e(  13) =    -5.82023 eV ==== 
     psi = 0.099*[#  32]+0.099*[#  33]+0.095*[#  11]+0.095*[#  12]+0.079*[#  24]
          +0.079*[#  25]+0.064*[#  16]+0.064*[#  17]+0.058*[#  27]+0.058*[#  28]
          +0.034*[#  35]+0.034*[#  36]+0.016*[#  21]+0.016*[#  22]+0.015*[#  29]
          +0.015*[#  30]+0.014*[#  19]+0.014*[#  20]+0.009*[#   1]+0.009*[#   2]
          +0.003*[#   9]+0.003*[#  14]+0.003*[#  15]+0.003*[#  18]+0.001*[#  23]
          +0.001*[#  26]+0.001*[#  31]+0.001*[#  34]
    |psi|^2 = 0.985
==== e(  14) =    -5.82014 eV ==== 
     psi = 0.100*[#  24]+0.100*[#  25]+0.094*[#  11]+0.094*[#  12]+0.078*[#  32]
          +0.078*[#  33]+0.064*[#  16]+0.064*[#  17]+0.057*[#  35]+0.057*[#  36]
          +0.034*[#  27]+0.034*[#  28]+0.016*[#  29]+0.016*[#  30]+0.015*[#  21]
          +0.015*[#  22]+0.014*[#  19]+0.014*[#  20]+0.009*[#   1]+0.009*[#   2]
          +0.003*[#   9]+0.003*[#  14]+0.003*[#  15]+0.003*[#  18]+0.001*[#  23]
          +0.001*[#  26]+0.001*[#  31]+0.001*[#  34]
    |psi|^2 = 0.985
==== e(  15) =    -3.29386 eV ==== 
     psi = 0.142*[#  15]+0.142*[#  18]+0.129*[#   9]+0.129*[#  14]+0.046*[#  23]
          +0.046*[#  26]+0.045*[#  31]+0.045*[#  34]+0.030*[#  27]+0.030*[#  28]
          +0.028*[#  10]+0.028*[#  13]+0.026*[#  35]+0.026*[#  36]+0.012*[#  32]
          +0.012*[#  33]+0.011*[#  24]+0.011*[#  25]+0.010*[#  19]+0.010*[#  20]
          +0.006*[#  21]+0.006*[#  22]+0.006*[#  29]+0.006*[#  30]+0.001*[#   1]
          +0.001*[#   2]
    |psi|^2 = 0.988
==== e(  16) =    -3.29311 eV ==== 
     psi = 0.139*[#  15]+0.139*[#  18]+0.133*[#   9]+0.133*[#  14]+0.045*[#  23]
          +0.045*[#  26]+0.044*[#  31]+0.044*[#  34]+0.030*[#  35]+0.030*[#  36]
          +0.028*[#  27]+0.028*[#  28]+0.028*[#  10]+0.028*[#  13]+0.013*[#  24]
          +0.013*[#  25]+0.011*[#  19]+0.011*[#  20]+0.011*[#  32]+0.011*[#  33]
          +0.006*[#  21]+0.006*[#  22]+0.006*[#  29]+0.006*[#  30]+0.001*[#   1]
          +0.001*[#   2]
    |psi|^2 = 0.988
==== e(  17) =    -2.88050 eV ==== 
     psi = 0.100*[#  32]+0.100*[#  33]+0.088*[#  27]+0.088*[#  28]+0.064*[#  24]
          +0.064*[#  25]+0.050*[#  10]+0.050*[#  13]+0.050*[#  16]+0.050*[#  17]
          +0.044*[#  35]+0.044*[#  36]+0.030*[#  11]+0.030*[#  12]+0.026*[#  31]
          +0.026*[#  34]+0.021*[#  15]+0.021*[#  18]+0.019*[#  23]+0.019*[#  26]
          +0.002*[#   9]+0.002*[#  14]
    |psi|^2 = 0.992
==== e(  18) =    -2.87950 eV ==== 
     psi = 0.098*[#  24]+0.098*[#  25]+0.087*[#  35]+0.087*[#  36]+0.063*[#  32]
          +0.063*[#  33]+0.051*[#  10]+0.051*[#  13]+0.050*[#  16]+0.050*[#  17]
          +0.042*[#  27]+0.042*[#  28]+0.030*[#  11]+0.030*[#  12]+0.028*[#  23]
          +0.028*[#  26]+0.023*[#  31]+0.023*[#  34]+0.020*[#  15]+0.020*[#  18]
          +0.003*[#   9]+0.003*[#  14]
    |psi|^2 = 0.992
==== e(  19) =    -2.70035 eV ==== 
     psi = 0.169*[#   9]+0.169*[#  14]+0.115*[#  15]+0.115*[#  18]+0.040*[#  23]
          +0.040*[#  26]+0.037*[#  31]+0.037*[#  34]+0.031*[#  10]+0.031*[#  13]
          +0.027*[#  27]+0.027*[#  28]+0.027*[#  35]+0.027*[#  36]+0.024*[#  24]
          +0.024*[#  25]+0.023*[#  32]+0.023*[#  33]+0.001*[#  16]+0.001*[#  17]
          
    |psi|^2 = 0.990
==== e(  20) =    -2.69917 eV ==== 
     psi = 0.172*[#   9]+0.172*[#  14]+0.113*[#  15]+0.113*[#  18]+0.037*[#  23]
          +0.037*[#  26]+0.037*[#  31]+0.037*[#  34]+0.030*[#  10]+0.030*[#  13]
          +0.028*[#  27]+0.028*[#  28]+0.027*[#  35]+0.027*[#  36]+0.024*[#  24]
          +0.024*[#  25]+0.023*[#  32]+0.023*[#  33]+0.001*[#  16]+0.001*[#  17]
          
    |psi|^2 = 0.990
==== e(  21) =    -2.04326 eV ==== 
     psi = 0.112*[#  10]+0.112*[#  13]+0.093*[#  16]+0.093*[#  17]+0.051*[#  31]
          +0.051*[#  34]+0.051*[#  23]+0.051*[#  26]+0.050*[#  11]+0.050*[#  12]
          +0.041*[#  27]+0.041*[#  28]+0.039*[#  35]+0.039*[#  36]+0.022*[#  15]
          +0.022*[#  18]+0.019*[#  32]+0.019*[#  33]+0.016*[#  24]+0.016*[#  25]
          
    |psi|^2 = 0.988
==== e(  22) =    -2.04129 eV ==== 
     psi = 0.118*[#  10]+0.118*[#  13]+0.088*[#  16]+0.088*[#  17]+0.054*[#  31]
          +0.054*[#  34]+0.052*[#  23]+0.052*[#  26]+0.047*[#  11]+0.047*[#  12]
          +0.040*[#  35]+0.040*[#  36]+0.037*[#  27]+0.037*[#  28]+0.024*[#  15]
          +0.024*[#  18]+0.018*[#  24]+0.018*[#  25]+0.016*[#  32]+0.016*[#  33]
          
    |psi|^2 = 0.988
==== e(  23) =    -1.44418 eV ==== 
     psi = 0.121*[#  32]+0.121*[#  33]+0.103*[#  27]+0.103*[#  28]+0.061*[#  24]
          +0.061*[#  25]+0.047*[#  23]+0.047*[#  26]+0.047*[#  31]+0.047*[#  34]
          +0.033*[#  10]+0.033*[#  13]+0.032*[#  35]+0.032*[#  36]+0.026*[#  16]
          +0.026*[#  17]+0.011*[#  11]+0.011*[#  12]+0.006*[#  15]+0.006*[#  18]
          +0.002*[#   4]+0.002*[#   5]
    |psi|^2 = 0.984
==== e(  24) =    -1.44290 eV ==== 
     psi = 0.123*[#  24]+0.123*[#  25]+0.103*[#  35]+0.103*[#  36]+0.060*[#  32]
          +0.060*[#  33]+0.046*[#  23]+0.046*[#  26]+0.046*[#  31]+0.046*[#  34]
          +0.038*[#  10]+0.038*[#  13]+0.033*[#  27]+0.033*[#  28]+0.021*[#  16]
          +0.021*[#  17]+0.009*[#  11]+0.009*[#  12]+0.008*[#  15]+0.008*[#  18]
          +0.002*[#   4]+0.002*[#   5]
    |psi|^2 = 0.984
==== e(  25) =    -0.53624 eV ==== 
     psi = 0.183*[#  11]+0.183*[#  12]+0.109*[#  16]+0.109*[#  17]+0.073*[#  24]
          +0.073*[#  25]+0.044*[#  32]+0.044*[#  33]+0.033*[#  35]+0.033*[#  36]
          +0.012*[#  27]+0.012*[#  28]+0.008*[#   9]+0.008*[#  14]+0.006*[#  15]
          +0.006*[#  18]+0.005*[#  21]+0.005*[#  22]+0.005*[#  29]+0.005*[#  30]
          +0.004*[#  23]+0.004*[#  26]+0.003*[#  31]+0.003*[#  34]+0.001*[#  10]
          +0.001*[#  13]
    |psi|^2 = 0.976
==== e(  26) =    -0.53537 eV ==== 
     psi = 0.184*[#  11]+0.184*[#  12]+0.108*[#  16]+0.108*[#  17]+0.076*[#  32]
          +0.076*[#  33]+0.042*[#  24]+0.042*[#  25]+0.031*[#  27]+0.031*[#  28]
          +0.013*[#  35]+0.013*[#  36]+0.008*[#   9]+0.008*[#  14]+0.006*[#  15]
          +0.006*[#  18]+0.005*[#  21]+0.005*[#  22]+0.005*[#  29]+0.005*[#  30]
          +0.004*[#  31]+0.004*[#  34]+0.003*[#  23]+0.003*[#  26]+0.001*[#  10]
          +0.001*[#  13]
    |psi|^2 = 0.976
==== e(  27) =     2.23421 eV ==== 
     psi = 0.104*[#  23]+0.104*[#  26]+0.094*[#  15]+0.094*[#  18]+0.065*[#  24]
          +0.065*[#  25]+0.063*[#   9]+0.063*[#  14]+0.050*[#  31]+0.050*[#  34]
          +0.035*[#  27]+0.035*[#  28]+0.027*[#  35]+0.027*[#  36]+0.022*[#  16]
          +0.022*[#  17]+0.010*[#  21]+0.010*[#  22]+0.004*[#  32]+0.004*[#  33]
          +0.003*[#  11]+0.003*[#  12]+0.003*[#  29]+0.003*[#  30]+0.003*[#  19]
          +0.003*[#  20]+0.002*[#  10]+0.002*[#  13]
    |psi|^2 = 0.970
==== e(  28) =     2.23971 eV ==== 
     psi = 0.091*[#  31]+0.091*[#  34]+0.089*[#  15]+0.089*[#  18]+0.070*[#   9]
          +0.070*[#  14]+0.061*[#  32]+0.061*[#  33]+0.058*[#  23]+0.058*[#  26]
          +0.039*[#  27]+0.039*[#  28]+0.033*[#  35]+0.033*[#  36]+0.016*[#  16]
          +0.016*[#  17]+0.008*[#  29]+0.008*[#  30]+0.007*[#  24]+0.007*[#  25]
          +0.004*[#  21]+0.004*[#  22]+0.004*[#  11]+0.004*[#  12]+0.003*[#  19]
          +0.003*[#  20]+0.001*[#  10]+0.001*[#  13]
    |psi|^2 = 0.970
==== e(  29) =     2.32445 eV ==== 
     psi = 0.093*[#  10]+0.093*[#  13]+0.085*[#  27]+0.085*[#  28]+0.068*[#  16]
          +0.068*[#  17]+0.060*[#  11]+0.060*[#  12]+0.060*[#  23]+0.060*[#  26]
          +0.028*[#  31]+0.028*[#  34]+0.023*[#  32]+0.023*[#  33]+0.014*[#  35]
          +0.014*[#  36]+0.013*[#  24]+0.013*[#  25]+0.013*[#  21]+0.013*[#  22]
          +0.011*[#   9]+0.011*[#  14]+0.008*[#  29]+0.008*[#  30]+0.007*[#  15]
          +0.007*[#  18]
    |psi|^2 = 0.967
==== e(  30) =     2.32917 eV ==== 
     psi = 0.096*[#  35]+0.096*[#  36]+0.093*[#  10]+0.093*[#  13]+0.071*[#  31]
          +0.071*[#  34]+0.061*[#  11]+0.061*[#  12]+0.060*[#  16]+0.060*[#  17]
          +0.017*[#  23]+0.017*[#  26]+0.016*[#  24]+0.016*[#  25]+0.015*[#   9]
          +0.015*[#  14]+0.014*[#  32]+0.014*[#  33]+0.014*[#  29]+0.014*[#  30]
          +0.011*[#  27]+0.011*[#  28]+0.007*[#  21]+0.007*[#  22]+0.006*[#  15]
          +0.006*[#  18]
    |psi|^2 = 0.967
==== e(  31) =     2.53317 eV ==== 
     psi = 0.087*[#   9]+0.087*[#  14]+0.085*[#  23]+0.085*[#  26]+0.072*[#  31]
          +0.072*[#  34]+0.064*[#  15]+0.064*[#  18]+0.054*[#  27]+0.054*[#  28]
          +0.050*[#  35]+0.050*[#  36]+0.029*[#  24]+0.029*[#  25]+0.028*[#  32]
          +0.028*[#  33]+0.018*[#  10]+0.018*[#  13]+0.002*[#  16]+0.002*[#  17]
          +0.002*[#  11]+0.002*[#  12]
    |psi|^2 = 0.983
==== e(  32) =     2.53647 eV ==== 
     psi = 0.100*[#   9]+0.100*[#  14]+0.070*[#  23]+0.070*[#  26]+0.070*[#  31]
          +0.070*[#  34]+0.059*[#  27]+0.059*[#  28]+0.057*[#  15]+0.057*[#  18]
          +0.057*[#  35]+0.057*[#  36]+0.032*[#  24]+0.032*[#  25]+0.030*[#  32]
          +0.030*[#  33]+0.013*[#  10]+0.013*[#  13]+0.002*[#  16]+0.002*[#  17]
          
    |psi|^2 = 0.983

 k =   0.0000000000  0.2566001196  0.0000000000
==== e(   1) =   -61.13812 eV ==== 
     psi = 0.485*[#   1]+0.485*[#   2]+0.004*[#  24]+0.004*[#  25]+0.003*[#  35]
          +0.003*[#  36]+0.002*[#  32]+0.002*[#  33]+0.001*[#  19]+0.001*[#  20]
          +0.001*[#  23]+0.001*[#  26]+0.001*[#  31]+0.001*[#  34]
    |psi|^2 = 1.000
==== e(   2) =   -61.13812 eV ==== 
     psi = 0.485*[#   1]+0.485*[#   2]+0.004*[#  32]+0.004*[#  33]+0.003*[#  27]
          +0.003*[#  28]+0.002*[#  24]+0.002*[#  25]+0.001*[#  19]+0.001*[#  20]
          +0.001*[#  23]+0.001*[#  26]+0.001*[#  31]+0.001*[#  34]
    |psi|^2 = 1.000
==== e(   3) =   -36.92858 eV ==== 
     psi = 0.493*[#   7]+0.493*[#   8]+0.001*[#  19]+0.001*[#  20]
    |psi|^2 = 1.000
==== e(   4) =   -36.92850 eV ==== 
     psi = 0.493*[#   7]+0.493*[#   8]+0.001*[#  19]+0.001*[#  20]
    |psi|^2 = 1.000
==== e(   5) =   -34.49772 eV ==== 
     psi = 0.411*[#   4]+0.411*[#   5]+0.078*[#   3]+0.078*[#   6]+0.002*[#  21]
          +0.002*[#  22]+0.002*[#  19]+0.002*[#  20]+0.002*[#  27]+0.002*[#  28]
          +0.001*[#  24]+0.001*[#  25]
    |psi|^2 = 1.000
==== e(   6) =   -34.49767 eV ==== 
     psi = 0.410*[#   4]+0.410*[#   5]+0.079*[#   3]+0.079*[#   6]+0.002*[#  29]
          +0.002*[#  30]+0.002*[#  19]+0.002*[#  20]+0.002*[#  35]+0.002*[#  36]
          
    |psi|^2 = 1.000
==== e(   7) =   -34.38017 eV ==== 
     psi = 0.415*[#   3]+0.415*[#   6]+0.080*[#   4]+0.080*[#   5]
    |psi|^2 = 1.000
==== e(   8) =   -34.38002 eV ==== 
     psi = 0.415*[#   3]+0.415*[#   6]+0.079*[#   4]+0.079*[#   5]+0.001*[#  19]
          +0.001*[#  20]
    |psi|^2 = 1.000
==== e(   9) =   -13.81742 eV ==== 
     psi = 0.167*[#  21]+0.167*[#  22]+0.150*[#  19]+0.150*[#  20]+0.145*[#  29]
          +0.145*[#  30]+0.007*[#  24]+0.007*[#  25]+0.006*[#  35]+0.006*[#  36]
          +0.005*[#   1]+0.005*[#   2]+0.004*[#   9]+0.004*[#  14]+0.003*[#  15]
          +0.003*[#  18]+0.003*[#  23]+0.003*[#  26]+0.003*[#  31]+0.003*[#  34]
          +0.002*[#   3]+0.002*[#   6]+0.001*[#   7]+0.001*[#   8]
    |psi|^2 = 0.999
==== e(  10) =   -13.81660 eV ==== 
     psi = 0.158*[#  29]+0.158*[#  30]+0.154*[#  21]+0.154*[#  22]+0.150*[#  19]
          +0.150*[#  20]+0.006*[#  32]+0.006*[#  33]+0.006*[#  27]+0.006*[#  28]
          +0.005*[#   1]+0.005*[#   2]+0.004*[#   9]+0.004*[#  14]+0.003*[#  15]
          +0.003*[#  18]+0.003*[#  31]+0.003*[#  34]+0.003*[#  23]+0.003*[#  26]
          +0.002*[#   3]+0.002*[#   6]+0.001*[#   7]+0.001*[#   8]
    |psi|^2 = 0.999
==== e(  11) =   -12.93061 eV ==== 
     psi = 0.216*[#  21]+0.216*[#  22]+0.211*[#  29]+0.211*[#  30]+0.020*[#  10]
          +0.020*[#  13]+0.015*[#  16]+0.015*[#  17]+0.010*[#  11]+0.010*[#  12]
          +0.005*[#  15]+0.005*[#  18]+0.004*[#   4]+0.004*[#   5]+0.004*[#  23]
          +0.004*[#  26]+0.004*[#  31]+0.004*[#  34]+0.003*[#  27]+0.003*[#  28]
          +0.003*[#  35]+0.003*[#  36]+0.002*[#   7]+0.002*[#   8]+0.001*[#  24]
          +0.001*[#  25]+0.001*[#  32]+0.001*[#  33]
    |psi|^2 = 0.998
==== e(  12) =   -12.92984 eV ==== 
     psi = 0.225*[#  29]+0.225*[#  30]+0.203*[#  21]+0.203*[#  22]+0.020*[#  10]
          +0.020*[#  13]+0.014*[#  16]+0.014*[#  17]+0.010*[#  11]+0.010*[#  12]
          +0.005*[#  15]+0.005*[#  18]+0.004*[#   4]+0.004*[#   5]+0.004*[#  31]
          +0.004*[#  34]+0.004*[#  23]+0.004*[#  26]+0.003*[#  35]+0.003*[#  36]
          +0.003*[#  27]+0.003*[#  28]+0.002*[#   7]+0.002*[#   8]+0.001*[#  32]
          +0.001*[#  33]+0.001*[#  24]+0.001*[#  25]
    |psi|^2 = 0.998
==== e(  13) =    -5.41068 eV ==== 
     psi = 0.100*[#  32]+0.100*[#  33]+0.068*[#  11]+0.068*[#  12]+0.067*[#  27]
          +0.067*[#  28]+0.064*[#  24]+0.064*[#  25]+0.046*[#  16]+0.046*[#  17]
          +0.036*[#   9]+0.036*[#  14]+0.031*[#  15]+0.031*[#  18]+0.027*[#  35]
          +0.027*[#  36]+0.010*[#  23]+0.010*[#  26]+0.010*[#  31]+0.010*[#  34]
          +0.008*[#  21]+0.008*[#  22]+0.008*[#  29]+0.008*[#  30]+0.007*[#  10]
          +0.007*[#  13]+0.005*[#  19]+0.005*[#  20]+0.003*[#   1]+0.003*[#   2]
          +0.002*[#   3]+0.002*[#   6]
    |psi|^2 = 0.986
==== e(  14) =    -5.41049 eV ==== 
     psi = 0.101*[#  24]+0.101*[#  25]+0.067*[#  11]+0.067*[#  12]+0.065*[#  35]
          +0.065*[#  36]+0.063*[#  32]+0.063*[#  33]+0.047*[#  16]+0.047*[#  17]
          +0.037*[#   9]+0.037*[#  14]+0.030*[#  15]+0.030*[#  18]+0.027*[#  27]
          +0.027*[#  28]+0.011*[#  23]+0.011*[#  26]+0.010*[#  31]+0.010*[#  34]
          +0.008*[#  29]+0.008*[#  30]+0.008*[#  21]+0.008*[#  22]+0.007*[#  10]
          +0.007*[#  13]+0.005*[#  19]+0.005*[#  20]+0.003*[#   1]+0.003*[#   2]
          +0.001*[#   3]+0.001*[#   6]
    |psi|^2 = 0.986
==== e(  15) =    -4.02665 eV ==== 
     psi = 0.072*[#   9]+0.072*[#  14]+0.072*[#  27]+0.072*[#  28]+0.069*[#  15]
          +0.069*[#  18]+0.056*[#  32]+0.056*[#  33]+0.050*[#  23]+0.050*[#  26]
          +0.042*[#  31]+0.042*[#  34]+0.036*[#  19]+0.036*[#  20]+0.021*[#  21]
          +0.021*[#  22]+0.018*[#  29]+0.018*[#  30]+0.011*[#  10]+0.011*[#  13]
          +0.011*[#  16]+0.011*[#  17]+0.009*[#  11]+0.009*[#  12]+0.009*[#  24]
          +0.009*[#  25]+0.008*[#  35]+0.008*[#  36]+0.005*[#   1]+0.005*[#   2]
          +0.001*[#   3]+0.001*[#   6]
    |psi|^2 = 0.984
==== e(  16) =    -4.02560 eV ==== 
     psi = 0.073*[#   9]+0.073*[#  14]+0.070*[#  35]+0.070*[#  36]+0.067*[#  15]
          +0.067*[#  18]+0.058*[#  24]+0.058*[#  25]+0.047*[#  31]+0.047*[#  34]
          +0.045*[#  23]+0.045*[#  26]+0.036*[#  19]+0.036*[#  20]+0.020*[#  29]
          +0.020*[#  30]+0.019*[#  21]+0.019*[#  22]+0.013*[#  10]+0.013*[#  13]
          +0.010*[#  11]+0.010*[#  12]+0.010*[#  16]+0.010*[#  17]+0.010*[#  27]
          +0.010*[#  28]+0.007*[#  32]+0.007*[#  33]+0.005*[#   1]+0.005*[#   2]
          +0.001*[#   3]+0.001*[#   6]
    |psi|^2 = 0.984
==== e(  17) =    -3.75890 eV ==== 
     psi = 0.103*[#  27]+0.103*[#  28]+0.100*[#  32]+0.100*[#  33]+0.060*[#  10]
          +0.060*[#  13]+0.050*[#  31]+0.050*[#  34]+0.049*[#  23]+0.049*[#  26]
          +0.048*[#  16]+0.048*[#  17]+0.032*[#  11]+0.032*[#  12]+0.019*[#  24]
          +0.019*[#  25]+0.014*[#  15]+0.014*[#  18]+0.011*[#  35]+0.011*[#  36]
          +0.005*[#  21]+0.005*[#  22]+0.003*[#  29]+0.003*[#  30]
    |psi|^2 = 0.989
==== e(  18) =    -3.75775 eV ==== 
     psi = 0.105*[#  35]+0.105*[#  36]+0.097*[#  24]+0.097*[#  25]+0.061*[#  10]
          +0.061*[#  13]+0.053*[#  31]+0.053*[#  34]+0.048*[#  23]+0.048*[#  26]
          +0.047*[#  16]+0.047*[#  17]+0.034*[#  11]+0.034*[#  12]+0.020*[#  32]
          +0.020*[#  33]+0.012*[#  15]+0.012*[#  18]+0.009*[#  27]+0.009*[#  28]
          +0.005*[#  29]+0.005*[#  30]+0.003*[#  21]+0.003*[#  22]
    |psi|^2 = 0.989
==== e(  19) =    -2.63001 eV ==== 
     psi = 0.102*[#  10]+0.102*[#  13]+0.085*[#  16]+0.085*[#  17]+0.059*[#  23]
          +0.059*[#  26]+0.052*[#  31]+0.052*[#  34]+0.047*[#  11]+0.047*[#  12]
          +0.042*[#  27]+0.042*[#  28]+0.038*[#  35]+0.038*[#  36]+0.034*[#  15]
          +0.034*[#  18]+0.021*[#  24]+0.021*[#  25]+0.016*[#  32]+0.016*[#  33]
          
    |psi|^2 = 0.990
==== e(  20) =    -2.62912 eV ==== 
     psi = 0.103*[#  10]+0.103*[#  13]+0.086*[#  16]+0.086*[#  17]+0.058*[#  31]
          +0.058*[#  34]+0.058*[#  23]+0.058*[#  26]+0.048*[#  11]+0.048*[#  12]
          +0.039*[#  27]+0.039*[#  28]+0.037*[#  35]+0.037*[#  36]+0.032*[#  15]
          +0.032*[#  18]+0.019*[#  32]+0.019*[#  33]+0.016*[#  24]+0.016*[#  25]
          
    |psi|^2 = 0.990
==== e(  21) =    -2.19582 eV ==== 
     psi = 0.124*[#   9]+0.124*[#  14]+0.102*[#  15]+0.102*[#  18]+0.056*[#  31]
          +0.056*[#  34]+0.053*[#  23]+0.053*[#  26]+0.051*[#  27]+0.051*[#  28]
          +0.041*[#  35]+0.041*[#  36]+0.031*[#  10]+0.031*[#  13]+0.017*[#  24]
          +0.017*[#  25]+0.016*[#  32]+0.016*[#  33]
    |psi|^2 = 0.987
==== e(  22) =    -2.19481 eV ==== 
     psi = 0.124*[#   9]+0.124*[#  14]+0.100*[#  15]+0.100*[#  18]+0.055*[#  31]
          +0.055*[#  34]+0.053*[#  35]+0.053*[#  36]+0.053*[#  23]+0.053*[#  26]
          +0.040*[#  27]+0.040*[#  28]+0.033*[#  10]+0.033*[#  13]+0.018*[#  32]
          +0.018*[#  33]+0.016*[#  24]+0.016*[#  25]
    |psi|^2 = 0.987
==== e(  23) =    -1.60497 eV ==== 
     psi = 0.167*[#  32]+0.167*[#  33]+0.130*[#  27]+0.130*[#  28]+0.066*[#  24]
          +0.066*[#  25]+0.047*[#  23]+0.047*[#  26]+0.041*[#  31]+0.041*[#  34]
          +0.022*[#  35]+0.022*[#  36]+0.005*[#  21]+0.005*[#  22]+0.005*[#  29]
          +0.005*[#  30]+0.003*[#   4]+0.003*[#   5]+0.001*[#   7]+0.001*[#   8]
          +0.001*[#  11]+0.001*[#  12]+0.001*[#  16]+0.001*[#  17]
    |psi|^2 = 0.987
==== e(  24) =    -1.60447 eV ==== 
     psi = 0.170*[#  24]+0.170*[#  25]+0.129*[#  35]+0.129*[#  36]+0.065*[#  32]
          +0.065*[#  33]+0.046*[#  31]+0.046*[#  34]+0.042*[#  23]+0.042*[#  26]
          +0.022*[#  27]+0.022*[#  28]+0.005*[#  21]+0.005*[#  22]+0.005*[#  29]
          +0.005*[#  30]+0.003*[#   4]+0.003*[#   5]+0.001*[#   7]+0.001*[#   8]
          +0.001*[#  16]+0.001*[#  17]
    |psi|^2 = 0.987
==== e(  25) =    -0.97558 eV ==== 
     psi = 0.150*[#  11]+0.150*[#  12]+0.095*[#  16]+0.095*[#  17]+0.051*[#   9]
          +0.051*[#  14]+0.051*[#  24]+0.051*[#  25]+0.035*[#  15]+0.035*[#  18]
          +0.032*[#  35]+0.032*[#  36]+0.018*[#  32]+0.018*[#  33]+0.013*[#  23]
          +0.013*[#  26]+0.012*[#  31]+0.012*[#  34]+0.009*[#  10]+0.009*[#  13]
          +0.009*[#  21]+0.009*[#  22]+0.008*[#  29]+0.008*[#  30]+0.005*[#  27]
          +0.005*[#  28]+0.003*[#  19]+0.003*[#  20]
    |psi|^2 = 0.983
==== e(  26) =    -0.97502 eV ==== 
     psi = 0.149*[#  11]+0.149*[#  12]+0.095*[#  16]+0.095*[#  17]+0.054*[#  32]
          +0.054*[#  33]+0.051*[#   9]+0.051*[#  14]+0.035*[#  15]+0.035*[#  18]
          +0.030*[#  27]+0.030*[#  28]+0.017*[#  24]+0.017*[#  25]+0.014*[#  31]
          +0.014*[#  34]+0.011*[#  23]+0.011*[#  26]+0.009*[#  10]+0.009*[#  13]
          +0.009*[#  29]+0.009*[#  30]+0.008*[#  21]+0.008*[#  22]+0.005*[#  35]
          +0.005*[#  36]+0.003*[#  19]+0.003*[#  20]
    |psi|^2 = 0.983
==== e(  27) =     1.80089 eV ==== 
     psi = 0.079*[#  15]+0.079*[#  18]+0.055*[#   9]+0.055*[#  14]+0.055*[#  23]
          +0.055*[#  26]+0.053*[#  31]+0.053*[#  34]+0.046*[#  11]+0.046*[#  12]
          +0.042*[#  24]+0.042*[#  25]+0.042*[#  16]+0.042*[#  17]+0.032*[#  35]
          +0.032*[#  36]+0.025*[#  32]+0.025*[#  33]+0.020*[#  27]+0.020*[#  28]
          +0.014*[#  10]+0.014*[#  13]+0.005*[#  21]+0.005*[#  22]+0.004*[#  19]
          +0.004*[#  20]+0.004*[#  29]+0.004*[#  30]
    |psi|^2 = 0.951
==== e(  28) =     1.80507 eV ==== 
     psi = 0.068*[#   9]+0.068*[#  14]+0.068*[#  15]+0.068*[#  18]+0.048*[#  31]
          +0.048*[#  34]+0.047*[#  23]+0.047*[#  26]+0.046*[#  11]+0.046*[#  12]
          +0.044*[#  32]+0.044*[#  33]+0.042*[#  16]+0.042*[#  17]+0.036*[#  27]
          +0.036*[#  28]+0.028*[#  24]+0.028*[#  25]+0.023*[#  35]+0.023*[#  36]
          +0.012*[#  10]+0.012*[#  13]+0.005*[#  29]+0.005*[#  30]+0.004*[#  21]
          +0.004*[#  22]+0.004*[#  19]+0.004*[#  20]
    |psi|^2 = 0.951
==== e(  29) =     2.15040 eV ==== 
     psi = 0.126*[#   9]+0.126*[#  14]+0.091*[#  15]+0.091*[#  18]+0.060*[#  23]
          +0.060*[#  26]+0.059*[#  31]+0.059*[#  34]+0.048*[#  27]+0.048*[#  28]
          +0.045*[#  35]+0.045*[#  36]+0.023*[#  24]+0.023*[#  25]+0.022*[#  32]
          +0.022*[#  33]+0.014*[#  10]+0.014*[#  13]
    |psi|^2 = 0.980
==== e(  30) =     2.15535 eV ==== 
     psi = 0.139*[#   9]+0.139*[#  14]+0.079*[#  15]+0.079*[#  18]+0.054*[#  23]
          +0.054*[#  26]+0.053*[#  31]+0.053*[#  34]+0.051*[#  35]+0.051*[#  36]
          +0.050*[#  27]+0.050*[#  28]+0.025*[#  24]+0.025*[#  25]+0.025*[#  32]
          +0.025*[#  33]+0.013*[#  10]+0.013*[#  13]+0.001*[#  11]+0.001*[#  12]
          
    |psi|^2 = 0.980
==== e(  31) =     2.49521 eV ==== 
     psi = 0.110*[#  10]+0.110*[#  13]+0.079*[#  16]+0.079*[#  17]+0.067*[#  11]
          +0.067*[#  12]+0.033*[#  32]+0.033*[#  33]+0.032*[#  27]+0.032*[#  28]
          +0.030*[#  23]+0.030*[#  26]+0.024*[#  21]+0.024*[#  22]+0.023*[#  29]
          +0.023*[#  30]+0.023*[#  31]+0.023*[#  34]+0.020*[#  24]+0.020*[#  25]
          +0.018*[#  35]+0.018*[#  36]+0.016*[#  15]+0.016*[#  18]
    |psi|^2 = 0.950
==== e(  32) =     2.49682 eV ==== 
     psi = 0.118*[#  10]+0.118*[#  13]+0.074*[#  16]+0.074*[#  17]+0.064*[#  11]
          +0.064*[#  12]+0.036*[#  35]+0.036*[#  36]+0.034*[#  24]+0.034*[#  25]
          +0.026*[#  31]+0.026*[#  34]+0.024*[#  29]+0.024*[#  30]+0.023*[#  21]
          +0.023*[#  22]+0.022*[#  32]+0.022*[#  33]+0.020*[#  27]+0.020*[#  28]
          +0.017*[#  23]+0.017*[#  26]+0.016*[#  15]+0.016*[#  18]
    |psi|^2 = 0.950

 k =   0.0000000000  0.3849001795  0.0000000000
==== e(   1) =   -61.12364 eV ==== 
     psi = 0.484*[#   1]+0.484*[#   2]+0.003*[#  24]+0.003*[#  25]+0.003*[#  35]
          +0.003*[#  36]+0.002*[#  23]+0.002*[#  26]+0.002*[#  31]+0.002*[#  34]
          +0.001*[#  19]+0.001*[#  20]
    |psi|^2 = 1.000
==== e(   2) =   -61.12364 eV ==== 
     psi = 0.484*[#   1]+0.484*[#   2]+0.003*[#  32]+0.003*[#  33]+0.003*[#  27]
          +0.003*[#  28]+0.002*[#  23]+0.002*[#  26]+0.002*[#  31]+0.002*[#  34]
          +0.001*[#  19]+0.001*[#  20]
    |psi|^2 = 1.000
==== e(   3) =   -36.97056 eV ==== 
     psi = 0.491*[#   7]+0.491*[#   8]+0.001*[#  24]+0.001*[#  25]+0.001*[#  19]
          +0.001*[#  20]+0.001*[#  32]+0.001*[#  33]
    |psi|^2 = 1.000
==== e(   4) =   -36.97049 eV ==== 
     psi = 0.491*[#   7]+0.491*[#   8]+0.001*[#  32]+0.001*[#  33]+0.001*[#  19]
          +0.001*[#  20]+0.001*[#  24]+0.001*[#  25]
    |psi|^2 = 1.000
==== e(   5) =   -34.56391 eV ==== 
     psi = 0.245*[#   4]+0.245*[#   5]+0.242*[#   3]+0.242*[#   6]+0.003*[#  27]
          +0.003*[#  28]+0.002*[#  19]+0.002*[#  20]+0.002*[#  35]+0.002*[#  36]
          +0.002*[#  21]+0.002*[#  22]
    |psi|^2 = 1.000
==== e(   6) =   -34.56384 eV ==== 
     psi = 0.246*[#   4]+0.246*[#   5]+0.242*[#   3]+0.242*[#   6]+0.003*[#  35]
          +0.003*[#  36]+0.002*[#  19]+0.002*[#  20]+0.002*[#  27]+0.002*[#  28]
          +0.002*[#  29]+0.002*[#  30]
    |psi|^2 = 1.000
==== e(   7) =   -34.41367 eV ==== 
     psi = 0.249*[#   3]+0.249*[#   6]+0.245*[#   4]+0.245*[#   5]+0.001*[#  24]
          +0.001*[#  25]
    |psi|^2 = 1.000
==== e(   8) =   -34.41362 eV ==== 
     psi = 0.249*[#   3]+0.249*[#   6]+0.245*[#   4]+0.245*[#   5]+0.001*[#  32]
          +0.001*[#  33]
    |psi|^2 = 1.000
==== e(   9) =   -13.14629 eV ==== 
     psi = 0.202*[#  21]+0.202*[#  22]+0.162*[#  29]+0.162*[#  30]+0.083*[#  19]
          +0.083*[#  20]+0.011*[#   9]+0.011*[#  14]+0.008*[#  15]+0.008*[#  18]
          +0.008*[#  24]+0.008*[#  25]+0.007*[#  35]+0.007*[#  36]+0.004*[#  23]
          +0.004*[#  26]+0.003*[#   3]+0.003*[#   6]+0.003*[#  31]+0.003*[#  34]
          +0.002*[#  10]+0.002*[#  13]+0.002*[#   1]+0.002*[#   2]+0.002*[#   7]
          +0.002*[#   8]
    |psi|^2 = 0.999
==== e(  10) =   -13.14495 eV ==== 
     psi = 0.186*[#  29]+0.186*[#  30]+0.178*[#  21]+0.178*[#  22]+0.083*[#  19]
          +0.083*[#  20]+0.011*[#   9]+0.011*[#  14]+0.008*[#  15]+0.008*[#  18]
          +0.008*[#  32]+0.008*[#  33]+0.007*[#  27]+0.007*[#  28]+0.003*[#  31]
          +0.003*[#  34]+0.003*[#  23]+0.003*[#  26]+0.003*[#   3]+0.003*[#   6]
          +0.002*[#  10]+0.002*[#  13]+0.002*[#   1]+0.002*[#   2]+0.002*[#   7]
          +0.002*[#   8]
    |psi|^2 = 0.999
==== e(  11) =   -12.65693 eV ==== 
     psi = 0.205*[#  21]+0.205*[#  22]+0.197*[#  29]+0.197*[#  30]+0.033*[#  10]
          +0.033*[#  13]+0.024*[#  16]+0.024*[#  17]+0.017*[#  11]+0.017*[#  12]
          +0.008*[#  15]+0.008*[#  18]+0.003*[#  23]+0.003*[#  26]+0.003*[#  31]
          +0.003*[#  34]+0.003*[#  27]+0.003*[#  28]+0.002*[#   4]+0.002*[#   5]
          +0.002*[#  32]+0.002*[#  33]+0.001*[#  35]+0.001*[#  36]
    |psi|^2 = 0.999
==== e(  12) =   -12.65563 eV ==== 
     psi = 0.221*[#  29]+0.221*[#  30]+0.181*[#  21]+0.181*[#  22]+0.033*[#  10]
          +0.033*[#  13]+0.024*[#  16]+0.024*[#  17]+0.017*[#  11]+0.017*[#  12]
          +0.008*[#  15]+0.008*[#  18]+0.003*[#  31]+0.003*[#  34]+0.003*[#  35]
          +0.003*[#  36]+0.003*[#  23]+0.003*[#  26]+0.003*[#   4]+0.003*[#   5]
          +0.001*[#  24]+0.001*[#  25]+0.001*[#  27]+0.001*[#  28]
    |psi|^2 = 0.999
==== e(  13) =    -5.63176 eV ==== 
     psi = 0.079*[#   9]+0.079*[#  14]+0.066*[#  15]+0.066*[#  18]+0.057*[#  35]
          +0.057*[#  36]+0.052*[#  23]+0.052*[#  26]+0.051*[#  24]+0.051*[#  25]
          +0.050*[#  31]+0.050*[#  34]+0.035*[#  27]+0.035*[#  28]+0.027*[#  32]
          +0.027*[#  33]+0.020*[#  11]+0.020*[#  12]+0.015*[#  10]+0.015*[#  13]
          +0.013*[#  16]+0.013*[#  17]+0.012*[#  19]+0.012*[#  20]+0.006*[#  21]
          +0.006*[#  22]+0.006*[#  29]+0.006*[#  30]+0.003*[#   1]+0.003*[#   2]
          
    |psi|^2 = 0.985
==== e(  14) =    -5.63143 eV ==== 
     psi = 0.079*[#   9]+0.079*[#  14]+0.066*[#  15]+0.066*[#  18]+0.058*[#  27]
          +0.058*[#  28]+0.053*[#  23]+0.053*[#  26]+0.051*[#  31]+0.051*[#  34]
          +0.049*[#  32]+0.049*[#  33]+0.033*[#  35]+0.033*[#  36]+0.027*[#  24]
          +0.027*[#  25]+0.020*[#  11]+0.020*[#  12]+0.016*[#  10]+0.016*[#  13]
          +0.013*[#  16]+0.013*[#  17]+0.012*[#  19]+0.012*[#  20]+0.006*[#  29]
          +0.006*[#  30]+0.006*[#  21]+0.006*[#  22]+0.003*[#   1]+0.003*[#   2]
          
    |psi|^2 = 0.985
==== e(  15) =    -4.60089 eV ==== 
     psi = 0.088*[#  35]+0.088*[#  36]+0.078*[#  23]+0.078*[#  24]+0.078*[#  25]
          +0.078*[#  26]+0.073*[#  31]+0.073*[#  34]+0.045*[#  10]+0.045*[#  13]
          +0.039*[#  16]+0.039*[#  17]+0.034*[#  27]+0.034*[#  28]+0.018*[#  11]
          +0.018*[#  12]+0.011*[#  21]+0.011*[#  22]+0.010*[#  15]+0.010*[#  18]
          +0.010*[#  32]+0.010*[#  33]+0.007*[#  29]+0.007*[#  30]+0.001*[#   4]
          +0.001*[#   5]
    |psi|^2 = 0.989
==== e(  16) =    -4.59996 eV ==== 
     psi = 0.088*[#  27]+0.088*[#  28]+0.078*[#  32]+0.078*[#  33]+0.078*[#  31]
          +0.078*[#  34]+0.075*[#  23]+0.075*[#  26]+0.044*[#  10]+0.044*[#  13]
          +0.038*[#  16]+0.038*[#  17]+0.031*[#  35]+0.031*[#  36]+0.019*[#  11]
          +0.019*[#  12]+0.012*[#  24]+0.012*[#  25]+0.011*[#  15]+0.011*[#  18]
          +0.010*[#  29]+0.010*[#  30]+0.008*[#  21]+0.008*[#  22]+0.001*[#   4]
          +0.001*[#   5]
    |psi|^2 = 0.989
==== e(  17) =    -4.25253 eV ==== 
     psi = 0.120*[#  24]+0.120*[#  25]+0.087*[#  35]+0.087*[#  36]+0.045*[#  11]
          +0.045*[#  12]+0.041*[#  32]+0.041*[#  33]+0.028*[#  16]+0.028*[#  17]
          +0.027*[#  19]+0.027*[#  20]+0.027*[#  23]+0.027*[#  26]+0.026*[#  21]
          +0.026*[#  22]+0.025*[#  31]+0.025*[#  34]+0.023*[#  29]+0.023*[#  30]
          +0.021*[#  27]+0.021*[#  28]+0.006*[#   9]+0.006*[#  14]+0.005*[#  15]
          +0.005*[#  18]+0.003*[#   1]+0.003*[#   2]+0.003*[#   3]+0.003*[#   6]
          +0.001*[#   7]+0.001*[#   8]
    |psi|^2 = 0.983
==== e(  18) =    -4.25137 eV ==== 
     psi = 0.121*[#  32]+0.121*[#  33]+0.085*[#  27]+0.085*[#  28]+0.047*[#  11]
          +0.047*[#  12]+0.040*[#  24]+0.040*[#  25]+0.029*[#  31]+0.029*[#  34]
          +0.027*[#  19]+0.027*[#  20]+0.027*[#  29]+0.027*[#  30]+0.026*[#  16]
          +0.026*[#  17]+0.024*[#  35]+0.024*[#  36]+0.023*[#  21]+0.023*[#  22]
          +0.023*[#  23]+0.023*[#  26]+0.005*[#   9]+0.005*[#  14]+0.005*[#  15]
          +0.005*[#  18]+0.003*[#   1]+0.003*[#   2]+0.002*[#   3]+0.002*[#   6]
          +0.001*[#   7]+0.001*[#   8]
    |psi|^2 = 0.983
==== e(  19) =    -3.15127 eV ==== 
     psi = 0.102*[#  10]+0.102*[#  13]+0.083*[#  16]+0.083*[#  17]+0.057*[#  23]
          +0.057*[#  26]+0.056*[#  31]+0.056*[#  34]+0.049*[#  11]+0.049*[#  12]
          +0.042*[#  27]+0.042*[#  28]+0.041*[#  35]+0.041*[#  36]+0.029*[#  15]
          +0.029*[#  18]+0.019*[#  24]+0.019*[#  25]+0.018*[#  32]+0.018*[#  33]
          
    |psi|^2 = 0.992
==== e(  20) =    -3.15097 eV ==== 
     psi = 0.100*[#  10]+0.100*[#  13]+0.085*[#  16]+0.085*[#  17]+0.060*[#  23]
          +0.060*[#  26]+0.059*[#  31]+0.059*[#  34]+0.050*[#  11]+0.050*[#  12]
          +0.040*[#  27]+0.040*[#  28]+0.039*[#  35]+0.039*[#  36]+0.028*[#  15]
          +0.028*[#  18]+0.018*[#  32]+0.018*[#  33]+0.017*[#  24]+0.017*[#  25]
          
    |psi|^2 = 0.992
==== e(  21) =    -2.04189 eV ==== 
     psi = 0.132*[#  32]+0.132*[#  33]+0.115*[#  27]+0.115*[#  28]+0.078*[#  24]
          +0.078*[#  25]+0.051*[#  35]+0.051*[#  36]+0.033*[#  31]+0.033*[#  34]
          +0.027*[#  23]+0.027*[#  26]+0.013*[#  10]+0.013*[#  13]+0.011*[#  29]
          +0.011*[#  30]+0.011*[#  21]+0.011*[#  22]+0.009*[#  16]+0.009*[#  17]
          +0.007*[#  11]+0.007*[#  12]+0.005*[#  15]+0.005*[#  18]+0.002*[#   4]
          +0.002*[#   5]+0.001*[#   7]+0.001*[#   8]
    |psi|^2 = 0.992
==== e(  22) =    -2.04175 eV ==== 
     psi = 0.133*[#  24]+0.133*[#  25]+0.115*[#  35]+0.115*[#  36]+0.077*[#  32]
          +0.077*[#  33]+0.052*[#  27]+0.052*[#  28]+0.033*[#  23]+0.033*[#  26]
          +0.027*[#  31]+0.027*[#  34]+0.014*[#  10]+0.014*[#  13]+0.011*[#  21]
          +0.011*[#  22]+0.011*[#  29]+0.011*[#  30]+0.009*[#  16]+0.009*[#  17]
          +0.006*[#  11]+0.006*[#  12]+0.004*[#  15]+0.004*[#  18]+0.002*[#   4]
          +0.002*[#   5]+0.001*[#   7]+0.001*[#   8]
    |psi|^2 = 0.992
==== e(  23) =    -1.62280 eV ==== 
     psi = 0.083*[#  15]+0.083*[#  18]+0.073*[#  23]+0.073*[#  26]+0.072*[#  31]
          +0.072*[#  34]+0.052*[#  35]+0.052*[#  36]+0.051*[#  27]+0.051*[#  28]
          +0.043*[#   9]+0.043*[#  14]+0.042*[#  32]+0.042*[#  33]+0.042*[#  24]
          +0.042*[#  25]+0.022*[#  10]+0.022*[#  13]+0.004*[#  11]+0.004*[#  12]
          +0.003*[#  16]+0.003*[#  17]
    |psi|^2 = 0.983
==== e(  24) =    -1.62006 eV ==== 
     psi = 0.075*[#  31]+0.075*[#  34]+0.075*[#  15]+0.075*[#  18]+0.074*[#  23]
          +0.074*[#  26]+0.054*[#   9]+0.054*[#  14]+0.051*[#  35]+0.051*[#  36]
          +0.050*[#  27]+0.050*[#  28]+0.042*[#  24]+0.042*[#  25]+0.042*[#  32]
          +0.042*[#  33]+0.020*[#  10]+0.020*[#  13]+0.003*[#  16]+0.003*[#  17]
          +0.003*[#  11]+0.003*[#  12]
    |psi|^2 = 0.983
==== e(  25) =    -1.35318 eV ==== 
     psi = 0.112*[#  11]+0.112*[#  12]+0.094*[#   9]+0.094*[#  14]+0.070*[#  16]
          +0.070*[#  17]+0.047*[#  15]+0.047*[#  18]+0.033*[#  32]+0.033*[#  33]
          +0.031*[#  24]+0.031*[#  25]+0.019*[#  19]+0.019*[#  20]+0.015*[#  35]
          +0.015*[#  36]+0.015*[#  27]+0.015*[#  28]+0.015*[#  31]+0.015*[#  34]
          +0.014*[#  23]+0.014*[#  26]+0.013*[#  10]+0.013*[#  13]+0.005*[#  29]
          +0.005*[#  30]+0.004*[#  21]+0.004*[#  22]+0.001*[#   3]+0.001*[#   6]
          
    |psi|^2 = 0.980
==== e(  26) =    -1.35020 eV ==== 
     psi = 0.111*[#  11]+0.111*[#  12]+0.105*[#   9]+0.105*[#  14]+0.070*[#  16]
          +0.070*[#  17]+0.038*[#  15]+0.038*[#  18]+0.033*[#  32]+0.033*[#  33]
          +0.031*[#  24]+0.031*[#  25]+0.019*[#  19]+0.019*[#  20]+0.016*[#  31]
          +0.016*[#  34]+0.015*[#  23]+0.015*[#  26]+0.015*[#  35]+0.015*[#  36]
          +0.014*[#  27]+0.014*[#  28]+0.011*[#  10]+0.011*[#  13]+0.005*[#  29]
          +0.005*[#  30]+0.004*[#  21]+0.004*[#  22]+0.001*[#   3]+0.001*[#   6]
          
    |psi|^2 = 0.980
==== e(  27) =     1.92362 eV ==== 
     psi = 0.188*[#  15]+0.188*[#  18]+0.061*[#   9]+0.061*[#  14]+0.061*[#  23]
          +0.061*[#  26]+0.061*[#  31]+0.061*[#  34]+0.039*[#  10]+0.039*[#  13]
          +0.023*[#  11]+0.023*[#  12]+0.021*[#  16]+0.021*[#  17]+0.008*[#  27]
          +0.008*[#  28]+0.008*[#  35]+0.008*[#  36]+0.008*[#  24]+0.008*[#  25]
          +0.008*[#  32]+0.008*[#  33]+0.002*[#  19]+0.002*[#  20]
    |psi|^2 = 0.979
==== e(  28) =     1.92603 eV ==== 
     psi = 0.184*[#  15]+0.184*[#  18]+0.073*[#   9]+0.073*[#  14]+0.056*[#  23]
          +0.056*[#  26]+0.056*[#  31]+0.056*[#  34]+0.038*[#  10]+0.038*[#  13]
          +0.020*[#  11]+0.020*[#  12]+0.018*[#  16]+0.018*[#  17]+0.012*[#  27]
          +0.012*[#  28]+0.012*[#  35]+0.012*[#  36]+0.010*[#  24]+0.010*[#  25]
          +0.009*[#  32]+0.009*[#  33]+0.001*[#  19]+0.001*[#  20]
    |psi|^2 = 0.979
==== e(  29) =     2.02174 eV ==== 
     psi = 0.162*[#   9]+0.162*[#  14]+0.080*[#  11]+0.080*[#  12]+0.063*[#  16]
          +0.063*[#  17]+0.039*[#  35]+0.039*[#  36]+0.035*[#  24]+0.035*[#  25]
          +0.033*[#  27]+0.033*[#  28]+0.028*[#  32]+0.028*[#  33]+0.010*[#  31]
          +0.010*[#  34]+0.010*[#  23]+0.010*[#  26]+0.007*[#  19]+0.007*[#  20]
          +0.006*[#  15]+0.006*[#  18]+0.002*[#  21]+0.002*[#  22]+0.002*[#  29]
          +0.002*[#  30]+0.001*[#  10]+0.001*[#  13]
    |psi|^2 = 0.957
==== e(  30) =     2.02483 eV ==== 
     psi = 0.175*[#   9]+0.175*[#  14]+0.077*[#  11]+0.077*[#  12]+0.060*[#  16]
          +0.060*[#  17]+0.044*[#  27]+0.044*[#  28]+0.037*[#  32]+0.037*[#  33]
          +0.037*[#  35]+0.037*[#  36]+0.031*[#  24]+0.031*[#  25]+0.007*[#  19]
          +0.007*[#  20]+0.003*[#  23]+0.003*[#  26]+0.003*[#  31]+0.003*[#  34]
          +0.002*[#  21]+0.002*[#  22]+0.002*[#  29]+0.002*[#  30]
    |psi|^2 = 0.958
==== e(  31) =     3.12080 eV ==== 
     psi = 0.096*[#  10]+0.096*[#  13]+0.071*[#  16]+0.071*[#  17]+0.062*[#  11]
          +0.062*[#  12]+0.042*[#  32]+0.042*[#  33]+0.037*[#  24]+0.037*[#  25]
          +0.030*[#  27]+0.030*[#  28]+0.025*[#  21]+0.025*[#  22]+0.025*[#  29]
          +0.025*[#  30]+0.022*[#  35]+0.022*[#  36]+0.018*[#  23]+0.018*[#  26]
          +0.017*[#  15]+0.017*[#  18]+0.016*[#  31]+0.016*[#  34]
    |psi|^2 = 0.923
==== e(  32) =     3.12186 eV ==== 
     psi = 0.101*[#  10]+0.101*[#  13]+0.068*[#  16]+0.068*[#  17]+0.060*[#  11]
          +0.060*[#  12]+0.042*[#  24]+0.042*[#  25]+0.039*[#  32]+0.039*[#  33]
          +0.032*[#  35]+0.032*[#  36]+0.025*[#  29]+0.025*[#  30]+0.025*[#  21]
          +0.025*[#  22]+0.024*[#  27]+0.024*[#  28]+0.018*[#  15]+0.018*[#  18]
          +0.014*[#  31]+0.014*[#  34]+0.012*[#  23]+0.012*[#  26]
    |psi|^2 = 0.923

 k =   0.0000000000  0.5132002393  0.0000000000
==== e(   1) =   -61.11416 eV ==== 
     psi = 0.478*[#   1]+0.478*[#   2]+0.009*[#  19]+0.009*[#  20]+0.002*[#  23]
          +0.002*[#  26]+0.002*[#  31]+0.002*[#  34]+0.002*[#  35]+0.002*[#  36]
          +0.002*[#   9]+0.002*[#  14]+0.002*[#  24]+0.002*[#  25]+0.001*[#  15]
          +0.001*[#  18]+0.001*[#  27]+0.001*[#  28]
    |psi|^2 = 1.000
==== e(   2) =   -61.11416 eV ==== 
     psi = 0.478*[#   1]+0.478*[#   2]+0.009*[#  19]+0.009*[#  20]+0.002*[#  23]
          +0.002*[#  26]+0.002*[#  27]+0.002*[#  28]+0.002*[#  31]+0.002*[#  34]
          +0.002*[#   9]+0.002*[#  14]+0.002*[#  32]+0.002*[#  33]+0.001*[#  15]
          +0.001*[#  18]+0.001*[#  35]+0.001*[#  36]
    |psi|^2 = 1.000
==== e(   3) =   -36.99951 eV ==== 
     psi = 0.491*[#   7]+0.491*[#   8]+0.002*[#  24]+0.002*[#  25]+0.002*[#  32]
          +0.002*[#  33]+0.001*[#  23]+0.001*[#  26]+0.001*[#  31]+0.001*[#  34]
          +0.001*[#   3]+0.001*[#   6]
    |psi|^2 = 1.000
==== e(   4) =   -36.99948 eV ==== 
     psi = 0.491*[#   7]+0.491*[#   8]+0.002*[#  24]+0.002*[#  25]+0.002*[#  32]
          +0.002*[#  33]+0.001*[#  23]+0.001*[#  26]+0.001*[#  31]+0.001*[#  34]
          +0.001*[#   3]+0.001*[#   6]
    |psi|^2 = 1.000
==== e(   5) =   -34.61755 eV ==== 
     psi = 0.306*[#   3]+0.306*[#   6]+0.181*[#   4]+0.181*[#   5]+0.003*[#  27]
          +0.003*[#  28]+0.003*[#  35]+0.003*[#  36]+0.002*[#  21]+0.002*[#  22]
          +0.001*[#   7]+0.001*[#   8]+0.001*[#  29]+0.001*[#  30]
    |psi|^2 = 1.000
==== e(   6) =   -34.61751 eV ==== 
     psi = 0.306*[#   3]+0.306*[#   6]+0.181*[#   4]+0.181*[#   5]+0.003*[#  35]
          +0.003*[#  36]+0.003*[#  27]+0.003*[#  28]+0.002*[#  29]+0.002*[#  30]
          +0.001*[#   7]+0.001*[#   8]+0.001*[#  21]+0.001*[#  22]
    |psi|^2 = 1.000
==== e(   7) =   -34.42189 eV ==== 
     psi = 0.310*[#   4]+0.310*[#   5]+0.184*[#   3]+0.184*[#   6]+0.001*[#  23]
          +0.001*[#  26]+0.001*[#  31]+0.001*[#  34]
    |psi|^2 = 1.000
==== e(   8) =   -34.42188 eV ==== 
     psi = 0.310*[#   4]+0.310*[#   5]+0.184*[#   3]+0.184*[#   6]+0.001*[#  23]
          +0.001*[#  26]+0.001*[#  31]+0.001*[#  34]
    |psi|^2 = 1.000
==== e(   9) =   -12.62611 eV ==== 
     psi = 0.247*[#  21]+0.247*[#  22]+0.169*[#  29]+0.169*[#  30]+0.024*[#  19]
          +0.024*[#  20]+0.018*[#   9]+0.018*[#  14]+0.014*[#  15]+0.014*[#  18]
          +0.006*[#  24]+0.006*[#  25]+0.005*[#  10]+0.005*[#  13]+0.004*[#  35]
          +0.004*[#  36]+0.003*[#   3]+0.003*[#   6]+0.002*[#  32]+0.002*[#  33]
          +0.002*[#   7]+0.002*[#   8]+0.001*[#  11]+0.001*[#  12]
    |psi|^2 = 0.997
==== e(  10) =   -12.62456 eV ==== 
     psi = 0.216*[#  21]+0.216*[#  22]+0.199*[#  29]+0.199*[#  30]+0.024*[#  19]
          +0.024*[#  20]+0.018*[#   9]+0.018*[#  14]+0.013*[#  15]+0.013*[#  18]
          +0.006*[#  32]+0.006*[#  33]+0.005*[#  10]+0.005*[#  13]+0.004*[#  27]
          +0.004*[#  28]+0.003*[#   3]+0.003*[#   6]+0.002*[#  24]+0.002*[#  25]
          +0.002*[#   7]+0.002*[#   8]+0.001*[#  11]+0.001*[#  12]
    |psi|^2 = 0.997
==== e(  11) =   -12.45450 eV ==== 
     psi = 0.205*[#  29]+0.205*[#  30]+0.188*[#  21]+0.188*[#  22]+0.040*[#  10]
          +0.040*[#  13]+0.031*[#  16]+0.031*[#  17]+0.020*[#  11]+0.020*[#  12]
          +0.011*[#  15]+0.011*[#  18]+0.001*[#  32]+0.001*[#  33]
    |psi|^2 = 0.999
==== e(  12) =   -12.45297 eV ==== 
     psi = 0.235*[#  29]+0.235*[#  30]+0.158*[#  21]+0.158*[#  22]+0.040*[#  10]
          +0.040*[#  13]+0.030*[#  16]+0.030*[#  17]+0.020*[#  11]+0.020*[#  12]
          +0.011*[#  15]+0.011*[#  18]+0.001*[#  35]+0.001*[#  36]
    |psi|^2 = 0.999
==== e(  13) =    -6.12457 eV ==== 
     psi = 0.081*[#  23]+0.081*[#  26]+0.077*[#  31]+0.077*[#  34]+0.062*[#  35]
          +0.062*[#  36]+0.049*[#  27]+0.049*[#  28]+0.045*[#   9]+0.045*[#  14]
          +0.038*[#  24]+0.038*[#  25]+0.036*[#  15]+0.036*[#  18]+0.035*[#  19]
          +0.035*[#  20]+0.021*[#  32]+0.021*[#  33]+0.010*[#  11]+0.010*[#  12]
          +0.009*[#  10]+0.009*[#  13]+0.009*[#  29]+0.009*[#  30]+0.009*[#  21]
          +0.009*[#  22]+0.006*[#  16]+0.006*[#  17]+0.005*[#   1]+0.005*[#   2]
          
    |psi|^2 = 0.986
==== e(  14) =    -6.12436 eV ==== 
     psi = 0.080*[#  23]+0.080*[#  26]+0.078*[#  31]+0.078*[#  34]+0.064*[#  27]
          +0.064*[#  28]+0.047*[#  35]+0.047*[#  36]+0.044*[#   9]+0.044*[#  14]
          +0.036*[#  32]+0.036*[#  33]+0.036*[#  15]+0.036*[#  18]+0.035*[#  19]
          +0.035*[#  20]+0.022*[#  24]+0.022*[#  25]+0.010*[#  11]+0.010*[#  12]
          +0.009*[#  10]+0.009*[#  13]+0.009*[#  29]+0.009*[#  30]+0.009*[#  21]
          +0.009*[#  22]+0.006*[#  16]+0.006*[#  17]+0.005*[#   1]+0.005*[#   2]
          
    |psi|^2 = 0.986
==== e(  15) =    -5.14790 eV ==== 
     psi = 0.091*[#  31]+0.091*[#  34]+0.089*[#  23]+0.089*[#  26]+0.072*[#  35]
          +0.072*[#  36]+0.055*[#  27]+0.055*[#  28]+0.048*[#  24]+0.048*[#  25]
          +0.032*[#  10]+0.032*[#  13]+0.031*[#  32]+0.031*[#  33]+0.025*[#  16]
          +0.025*[#  17]+0.015*[#  11]+0.015*[#  12]+0.013*[#  21]+0.013*[#  22]
          +0.012*[#  29]+0.012*[#  30]+0.008*[#  15]+0.008*[#  18]+0.003*[#   4]
          +0.003*[#   5]+0.001*[#   7]+0.001*[#   8]
    |psi|^2 = 0.991
==== e(  16) =    -5.14784 eV ==== 
     psi = 0.091*[#  31]+0.091*[#  34]+0.090*[#  23]+0.090*[#  26]+0.070*[#  27]
          +0.070*[#  28]+0.055*[#  35]+0.055*[#  36]+0.048*[#  32]+0.048*[#  33]
          +0.031*[#  24]+0.031*[#  25]+0.031*[#  10]+0.031*[#  13]+0.025*[#  16]
          +0.025*[#  17]+0.015*[#  11]+0.015*[#  12]+0.013*[#  21]+0.013*[#  22]
          +0.012*[#  29]+0.012*[#  30]+0.009*[#  15]+0.009*[#  18]+0.003*[#   4]
          +0.003*[#   5]+0.001*[#   7]+0.001*[#   8]
    |psi|^2 = 0.991
==== e(  17) =    -4.40913 eV ==== 
     psi = 0.090*[#  24]+0.090*[#  25]+0.063*[#  32]+0.063*[#  33]+0.056*[#  35]
          +0.056*[#  36]+0.052*[#   9]+0.052*[#  14]+0.047*[#  11]+0.047*[#  12]
          +0.044*[#  15]+0.044*[#  18]+0.034*[#  16]+0.034*[#  17]+0.032*[#  27]
          +0.032*[#  28]+0.017*[#  21]+0.017*[#  22]+0.016*[#  29]+0.016*[#  30]
          +0.012*[#  31]+0.012*[#  34]+0.012*[#  23]+0.012*[#  26]+0.010*[#  10]
          +0.010*[#  13]+0.003*[#  19]+0.003*[#  20]+0.002*[#   3]+0.002*[#   6]
          
    |psi|^2 = 0.987
==== e(  18) =    -4.40890 eV ==== 
     psi = 0.090*[#  32]+0.090*[#  33]+0.063*[#  24]+0.063*[#  25]+0.056*[#  27]
          +0.056*[#  28]+0.052*[#   9]+0.052*[#  14]+0.047*[#  11]+0.047*[#  12]
          +0.045*[#  15]+0.045*[#  18]+0.034*[#  16]+0.034*[#  17]+0.033*[#  35]
          +0.033*[#  36]+0.017*[#  29]+0.017*[#  30]+0.016*[#  21]+0.016*[#  22]
          +0.013*[#  31]+0.013*[#  34]+0.011*[#  23]+0.011*[#  26]+0.010*[#  10]
          +0.010*[#  13]+0.003*[#  19]+0.003*[#  20]+0.002*[#   3]+0.002*[#   6]
          
    |psi|^2 = 0.987
==== e(  19) =    -3.44119 eV ==== 
     psi = 0.100*[#  10]+0.100*[#  13]+0.082*[#  16]+0.082*[#  17]+0.059*[#  23]
          +0.059*[#  26]+0.057*[#  31]+0.057*[#  34]+0.051*[#  11]+0.051*[#  12]
          +0.043*[#  27]+0.043*[#  28]+0.042*[#  35]+0.042*[#  36]+0.027*[#  15]
          +0.027*[#  18]+0.018*[#  24]+0.018*[#  25]+0.018*[#  32]+0.018*[#  33]
          
    |psi|^2 = 0.993
==== e(  20) =    -3.44109 eV ==== 
     psi = 0.099*[#  10]+0.099*[#  13]+0.083*[#  16]+0.083*[#  17]+0.060*[#  23]
          +0.060*[#  26]+0.059*[#  31]+0.059*[#  34]+0.051*[#  11]+0.051*[#  12]
          +0.042*[#  27]+0.042*[#  28]+0.041*[#  35]+0.041*[#  36]+0.026*[#  15]
          +0.026*[#  18]+0.018*[#  24]+0.018*[#  25]+0.017*[#  32]+0.017*[#  33]
          
    |psi|^2 = 0.993
==== e(  21) =    -2.28017 eV ==== 
     psi = 0.110*[#  24]+0.110*[#  25]+0.108*[#  32]+0.108*[#  33]+0.074*[#  35]
          +0.074*[#  36]+0.073*[#  27]+0.073*[#  28]+0.024*[#  10]+0.024*[#  13]
          +0.021*[#  23]+0.021*[#  26]+0.021*[#  31]+0.021*[#  34]+0.018*[#  16]
          +0.018*[#  17]+0.013*[#  29]+0.013*[#  30]+0.013*[#  21]+0.013*[#  22]
          +0.011*[#  11]+0.011*[#  12]+0.008*[#  15]+0.008*[#  18]+0.001*[#   4]
          +0.001*[#   5]
    |psi|^2 = 0.994
==== e(  22) =    -2.28017 eV ==== 
     psi = 0.110*[#  32]+0.110*[#  33]+0.109*[#  24]+0.109*[#  25]+0.074*[#  27]
          +0.074*[#  28]+0.072*[#  35]+0.072*[#  36]+0.024*[#  10]+0.024*[#  13]
          +0.022*[#  31]+0.022*[#  34]+0.022*[#  23]+0.022*[#  26]+0.018*[#  16]
          +0.018*[#  17]+0.013*[#  29]+0.013*[#  30]+0.013*[#  21]+0.013*[#  22]
          +0.011*[#  11]+0.011*[#  12]+0.008*[#  15]+0.008*[#  18]+0.001*[#   4]
          +0.001*[#   5]
    |psi|^2 = 0.994
==== e(  23) =    -1.28557 eV ==== 
     psi = 0.098*[#  31]+0.098*[#  34]+0.098*[#  23]+0.098*[#  26]+0.068*[#  35]
          +0.068*[#  36]+0.067*[#  27]+0.067*[#  28]+0.045*[#  24]+0.045*[#  25]
          +0.045*[#  32]+0.045*[#  33]+0.035*[#  15]+0.035*[#  18]+0.010*[#  10]
          +0.010*[#  13]+0.008*[#   9]+0.008*[#  14]+0.006*[#  11]+0.006*[#  12]
          +0.005*[#  16]+0.005*[#  17]+0.001*[#   7]+0.001*[#   8]
    |psi|^2 = 0.978
==== e(  24) =    -1.28377 eV ==== 
     psi = 0.099*[#  31]+0.099*[#  34]+0.099*[#  23]+0.099*[#  26]+0.068*[#  35]
          +0.068*[#  36]+0.067*[#  27]+0.067*[#  28]+0.045*[#  24]+0.045*[#  25]
          +0.045*[#  32]+0.045*[#  33]+0.031*[#  15]+0.031*[#  18]+0.013*[#   9]
          +0.013*[#  14]+0.009*[#  10]+0.009*[#  13]+0.005*[#  11]+0.005*[#  12]
          +0.004*[#  16]+0.004*[#  17]+0.001*[#   7]+0.001*[#   8]
    |psi|^2 = 0.978
==== e(  25) =    -1.07217 eV ==== 
     psi = 0.088*[#  11]+0.088*[#  12]+0.065*[#  32]+0.065*[#  33]+0.063*[#  24]
          +0.063*[#  25]+0.063*[#   9]+0.063*[#  14]+0.055*[#  16]+0.055*[#  17]
          +0.033*[#  35]+0.033*[#  36]+0.033*[#  27]+0.033*[#  28]+0.033*[#  15]
          +0.033*[#  18]+0.010*[#  31]+0.010*[#  34]+0.010*[#  23]+0.010*[#  26]
          +0.009*[#  10]+0.009*[#  13]+0.009*[#  19]+0.009*[#  20]+0.002*[#   3]
          +0.002*[#   6]
    |psi|^2 = 0.948
==== e(  26) =    -1.07028 eV ==== 
     psi = 0.087*[#  11]+0.087*[#  12]+0.068*[#   9]+0.068*[#  14]+0.065*[#  32]
          +0.065*[#  33]+0.063*[#  24]+0.063*[#  25]+0.055*[#  16]+0.055*[#  17]
          +0.033*[#  35]+0.033*[#  36]+0.033*[#  27]+0.033*[#  28]+0.028*[#  15]
          +0.028*[#  18]+0.011*[#  31]+0.011*[#  34]+0.011*[#  23]+0.011*[#  26]
          +0.009*[#  19]+0.009*[#  20]+0.008*[#  10]+0.008*[#  13]+0.002*[#   3]
          +0.002*[#   6]
    |psi|^2 = 0.949
==== e(  27) =     1.98986 eV ==== 
     psi = 0.204*[#  15]+0.204*[#  18]+0.193*[#   9]+0.193*[#  14]+0.044*[#  10]
          +0.044*[#  13]+0.016*[#  23]+0.016*[#  26]+0.016*[#  31]+0.016*[#  34]
          +0.007*[#  27]+0.007*[#  28]+0.007*[#  35]+0.007*[#  36]+0.003*[#  24]
          +0.003*[#  25]+0.002*[#  32]+0.002*[#  33]+0.002*[#  11]+0.002*[#  12]
          +0.002*[#  16]+0.002*[#  17]
    |psi|^2 = 0.993
==== e(  28) =     1.99087 eV ==== 
     psi = 0.203*[#  15]+0.203*[#  18]+0.195*[#   9]+0.195*[#  14]+0.044*[#  10]
          +0.044*[#  13]+0.016*[#  23]+0.016*[#  26]+0.016*[#  31]+0.016*[#  34]
          +0.007*[#  27]+0.007*[#  28]+0.007*[#  35]+0.007*[#  36]+0.003*[#  32]
          +0.003*[#  33]+0.002*[#  24]+0.002*[#  25]+0.002*[#  11]+0.002*[#  12]
          +0.002*[#  16]+0.002*[#  17]
    |psi|^2 = 0.993
==== e(  29) =     2.42657 eV ==== 
     psi = 0.126*[#  11]+0.126*[#  12]+0.103*[#  16]+0.103*[#  17]+0.094*[#   9]
          +0.094*[#  14]+0.030*[#  15]+0.030*[#  18]+0.022*[#  24]+0.022*[#  25]
          +0.020*[#  35]+0.020*[#  36]+0.018*[#  23]+0.018*[#  26]+0.018*[#  31]
          +0.018*[#  34]+0.013*[#  27]+0.013*[#  28]+0.013*[#  32]+0.013*[#  33]
          +0.008*[#  19]+0.008*[#  20]+0.006*[#  10]+0.006*[#  13]+0.004*[#  21]
          +0.004*[#  22]+0.004*[#  29]+0.004*[#  30]
    |psi|^2 = 0.960
==== e(  30) =     2.42742 eV ==== 
     psi = 0.126*[#  11]+0.126*[#  12]+0.103*[#  16]+0.103*[#  17]+0.095*[#   9]
          +0.095*[#  14]+0.030*[#  15]+0.030*[#  18]+0.022*[#  32]+0.022*[#  33]
          +0.020*[#  27]+0.020*[#  28]+0.018*[#  31]+0.018*[#  34]+0.018*[#  23]
          +0.018*[#  26]+0.013*[#  35]+0.013*[#  36]+0.012*[#  24]+0.012*[#  25]
          +0.008*[#  19]+0.008*[#  20]+0.006*[#  10]+0.006*[#  13]+0.004*[#  21]
          +0.004*[#  22]+0.004*[#  29]+0.004*[#  30]
    |psi|^2 = 0.961
==== e(  31) =     3.53286 eV ==== 
     psi = 0.086*[#  10]+0.086*[#  13]+0.063*[#  16]+0.063*[#  17]+0.059*[#  11]
          +0.059*[#  12]+0.044*[#  32]+0.044*[#  33]+0.043*[#  24]+0.043*[#  25]
          +0.029*[#  27]+0.029*[#  28]+0.026*[#  35]+0.026*[#  36]+0.024*[#  29]
          +0.024*[#  30]+0.024*[#  21]+0.024*[#  22]+0.015*[#  23]+0.015*[#  26]
          +0.014*[#  15]+0.014*[#  18]+0.014*[#  31]+0.014*[#  34]
    |psi|^2 = 0.880
==== e(  32) =     3.53327 eV ==== 
     psi = 0.087*[#  10]+0.087*[#  13]+0.062*[#  16]+0.062*[#  17]+0.059*[#  11]
          +0.059*[#  12]+0.044*[#  24]+0.044*[#  25]+0.043*[#  32]+0.043*[#  33]
          +0.030*[#  35]+0.030*[#  36]+0.027*[#  27]+0.027*[#  28]+0.024*[#  21]
          +0.024*[#  22]+0.024*[#  29]+0.024*[#  30]+0.014*[#  15]+0.014*[#  18]
          +0.014*[#  31]+0.014*[#  34]+0.012*[#  23]+0.012*[#  26]
    |psi|^2 = 0.880

 k =   0.1111111111  0.1924500897  0.0000000000
==== e(   1) =   -61.14196 eV ==== 
     psi = 0.483*[#   1]+0.483*[#   2]+0.004*[#  24]+0.004*[#  25]+0.003*[#  19]
          +0.003*[#  20]+0.003*[#  35]+0.003*[#  36]+0.002*[#  32]+0.002*[#  33]
          +0.001*[#  27]+0.001*[#  28]
    |psi|^2 = 1.000
==== e(   2) =   -61.14196 eV ==== 
     psi = 0.483*[#   1]+0.483*[#   2]+0.004*[#  32]+0.004*[#  33]+0.003*[#  19]
          +0.003*[#  20]+0.002*[#  27]+0.002*[#  28]+0.002*[#  24]+0.002*[#  25]
          +0.001*[#  23]+0.001*[#  26]
    |psi|^2 = 1.000
==== e(   3) =   -36.91913 eV ==== 
     psi = 0.493*[#   7]+0.493*[#   8]+0.001*[#  19]+0.001*[#  20]
    |psi|^2 = 1.000
==== e(   4) =   -36.91647 eV ==== 
     psi = 0.493*[#   7]+0.493*[#   8]+0.001*[#  19]+0.001*[#  20]
    |psi|^2 = 1.000
==== e(   5) =   -34.48549 eV ==== 
     psi = 0.454*[#   4]+0.454*[#   5]+0.036*[#   3]+0.036*[#   6]+0.002*[#  21]
          +0.002*[#  22]+0.002*[#  29]+0.002*[#  30]+0.001*[#  19]+0.001*[#  20]
          +0.001*[#  27]+0.001*[#  28]+0.001*[#  35]+0.001*[#  36]
    |psi|^2 = 1.000
==== e(   6) =   -34.48402 eV ==== 
     psi = 0.449*[#   4]+0.449*[#   5]+0.040*[#   3]+0.040*[#   6]+0.002*[#  21]
          +0.002*[#  22]+0.002*[#  29]+0.002*[#  30]+0.001*[#  19]+0.001*[#  20]
          +0.001*[#  24]+0.001*[#  25]+0.001*[#  32]+0.001*[#  33]
    |psi|^2 = 1.000
==== e(   7) =   -34.36832 eV ==== 
     psi = 0.454*[#   3]+0.454*[#   6]+0.041*[#   4]+0.041*[#   5]+0.001*[#  19]
          +0.001*[#  20]
    |psi|^2 = 1.000
==== e(   8) =   -34.36299 eV ==== 
     psi = 0.459*[#   3]+0.459*[#   6]+0.036*[#   4]+0.036*[#   5]+0.001*[#  19]
          +0.001*[#  20]
    |psi|^2 = 1.000
==== e(   9) =   -13.98010 eV ==== 
     psi = 0.165*[#  19]+0.165*[#  20]+0.155*[#  21]+0.155*[#  22]+0.146*[#  29]
          +0.146*[#  30]+0.006*[#   1]+0.006*[#   2]+0.005*[#   9]+0.005*[#  14]
          +0.004*[#  24]+0.004*[#  25]+0.003*[#  32]+0.003*[#  33]+0.003*[#  35]
          +0.003*[#  36]+0.002*[#  23]+0.002*[#  26]+0.002*[#  27]+0.002*[#  28]
          +0.002*[#  31]+0.002*[#  34]+0.001*[#   3]+0.001*[#   6]+0.001*[#   7]
          +0.001*[#   8]
    |psi|^2 = 0.999
==== e(  10) =   -13.97542 eV ==== 
     psi = 0.165*[#  19]+0.165*[#  20]+0.154*[#  21]+0.154*[#  22]+0.148*[#  29]
          +0.148*[#  30]+0.006*[#   1]+0.006*[#   2]+0.004*[#  15]+0.004*[#  18]
          +0.004*[#  32]+0.004*[#  33]+0.003*[#  27]+0.003*[#  28]+0.003*[#  24]
          +0.003*[#  25]+0.002*[#  23]+0.002*[#  26]+0.002*[#  31]+0.002*[#  34]
          +0.002*[#   3]+0.002*[#   6]+0.002*[#  35]+0.002*[#  36]
    |psi|^2 = 0.999
==== e(  11) =   -12.99838 eV ==== 
     psi = 0.220*[#  21]+0.220*[#  22]+0.218*[#  29]+0.218*[#  30]+0.015*[#  10]
          +0.015*[#  13]+0.013*[#  16]+0.013*[#  17]+0.009*[#  11]+0.009*[#  12]
          +0.005*[#   4]+0.005*[#   5]+0.004*[#  23]+0.004*[#  26]+0.004*[#  31]
          +0.004*[#  34]+0.003*[#  15]+0.003*[#  18]+0.003*[#  35]+0.003*[#  36]
          +0.002*[#  27]+0.002*[#  28]+0.002*[#   7]+0.002*[#   8]+0.002*[#  24]
          +0.002*[#  25]+0.001*[#  32]+0.001*[#  33]
    |psi|^2 = 0.998
==== e(  12) =   -12.99760 eV ==== 
     psi = 0.227*[#  29]+0.227*[#  30]+0.210*[#  21]+0.210*[#  22]+0.019*[#  10]
          +0.019*[#  13]+0.010*[#  16]+0.010*[#  17]+0.007*[#  11]+0.007*[#  12]
          +0.005*[#   4]+0.005*[#   5]+0.004*[#  15]+0.004*[#  18]+0.004*[#  31]
          +0.004*[#  34]+0.004*[#  23]+0.004*[#  26]+0.002*[#  27]+0.002*[#  28]
          +0.002*[#  35]+0.002*[#  36]+0.002*[#   7]+0.002*[#   8]+0.001*[#  32]
          +0.001*[#  33]
    |psi|^2 = 0.998
==== e(  13) =    -5.48971 eV ==== 
     psi = 0.089*[#  24]+0.089*[#  25]+0.089*[#  32]+0.089*[#  33]+0.080*[#  11]
          +0.080*[#  12]+0.055*[#  16]+0.055*[#  17]+0.049*[#  27]+0.049*[#  28]
          +0.048*[#  35]+0.048*[#  36]+0.029*[#   9]+0.029*[#  14]+0.010*[#  21]
          +0.010*[#  22]+0.010*[#  29]+0.010*[#  30]+0.009*[#  19]+0.009*[#  20]
          +0.006*[#  15]+0.006*[#  18]+0.005*[#   1]+0.005*[#   2]+0.005*[#  23]
          +0.005*[#  26]+0.005*[#  31]+0.005*[#  34]+0.002*[#  10]+0.002*[#  13]
          +0.001*[#   7]+0.001*[#   8]
    |psi|^2 = 0.986
==== e(  14) =    -5.48207 eV ==== 
     psi = 0.089*[#  24]+0.089*[#  25]+0.087*[#  32]+0.087*[#  33]+0.080*[#  11]
          +0.080*[#  12]+0.055*[#  16]+0.055*[#  17]+0.047*[#  27]+0.047*[#  28]
          +0.047*[#  35]+0.047*[#  36]+0.024*[#  15]+0.024*[#  18]+0.010*[#  21]
          +0.010*[#  22]+0.010*[#  29]+0.010*[#  30]+0.009*[#  19]+0.009*[#  20]
          +0.007*[#   9]+0.007*[#  14]+0.006*[#  23]+0.006*[#  26]+0.006*[#  31]
          +0.006*[#  34]+0.006*[#  10]+0.006*[#  13]+0.005*[#   1]+0.005*[#   2]
          +0.002*[#   3]+0.002*[#   6]
    |psi|^2 = 0.986
==== e(  15) =    -3.83629 eV ==== 
     psi = 0.120*[#  15]+0.120*[#  18]+0.081*[#   9]+0.081*[#  14]+0.046*[#  23]
          +0.046*[#  26]+0.044*[#  31]+0.044*[#  34]+0.035*[#  27]+0.035*[#  28]
          +0.033*[#  35]+0.033*[#  36]+0.029*[#  19]+0.029*[#  20]+0.024*[#  10]
          +0.024*[#  13]+0.022*[#  32]+0.022*[#  33]+0.021*[#  24]+0.021*[#  25]
          +0.015*[#  21]+0.015*[#  22]+0.015*[#  29]+0.015*[#  30]+0.004*[#   1]
          +0.004*[#   2]+0.003*[#  11]+0.003*[#  12]+0.002*[#  16]+0.002*[#  17]
          
    |psi|^2 = 0.986
==== e(  16) =    -3.82721 eV ==== 
     psi = 0.132*[#   9]+0.132*[#  14]+0.078*[#  15]+0.078*[#  18]+0.047*[#  23]
          +0.047*[#  26]+0.045*[#  31]+0.045*[#  34]+0.035*[#  27]+0.035*[#  28]
          +0.035*[#  35]+0.035*[#  36]+0.029*[#  19]+0.029*[#  20]+0.020*[#  24]
          +0.020*[#  25]+0.019*[#  32]+0.019*[#  33]+0.015*[#  21]+0.015*[#  22]
          +0.015*[#  29]+0.015*[#  30]+0.015*[#  10]+0.015*[#  13]+0.004*[#   1]
          +0.004*[#   2]+0.003*[#  16]+0.003*[#  17]+0.002*[#  11]+0.002*[#  12]
          
    |psi|^2 = 0.986
==== e(  17) =    -3.42590 eV ==== 
     psi = 0.084*[#  16]+0.084*[#  17]+0.066*[#  32]+0.066*[#  33]+0.065*[#  24]
          +0.065*[#  25]+0.059*[#  31]+0.059*[#  34]+0.058*[#  23]+0.058*[#  26]
          +0.052*[#  11]+0.052*[#  12]+0.045*[#  35]+0.045*[#  36]+0.044*[#  27]
          +0.044*[#  28]+0.017*[#  10]+0.017*[#  13]+0.003*[#  15]+0.003*[#  18]
          
    |psi|^2 = 0.991
==== e(  18) =    -3.41973 eV ==== 
     psi = 0.099*[#  10]+0.099*[#  13]+0.075*[#  24]+0.075*[#  25]+0.075*[#  32]
          +0.075*[#  33]+0.074*[#  35]+0.074*[#  36]+0.073*[#  27]+0.073*[#  28]
          +0.026*[#  15]+0.026*[#  18]+0.021*[#  31]+0.021*[#  34]+0.020*[#  23]
          +0.020*[#  26]+0.018*[#  16]+0.018*[#  17]+0.010*[#  11]+0.010*[#  12]
          
    |psi|^2 = 0.990
==== e(  19) =    -2.73648 eV ==== 
     psi = 0.166*[#  10]+0.166*[#  13]+0.072*[#  27]+0.072*[#  28]+0.070*[#  35]
          +0.070*[#  36]+0.048*[#  15]+0.048*[#  18]+0.043*[#  24]+0.043*[#  25]
          +0.040*[#  32]+0.040*[#  33]+0.021*[#  16]+0.021*[#  17]+0.012*[#  11]
          +0.012*[#  12]+0.008*[#  23]+0.008*[#  26]+0.006*[#  31]+0.006*[#  34]
          +0.004*[#  21]+0.004*[#  22]+0.004*[#  29]+0.004*[#  30]
    |psi|^2 = 0.988
==== e(  20) =    -2.73431 eV ==== 
     psi = 0.133*[#  16]+0.133*[#  17]+0.107*[#  23]+0.107*[#  26]+0.103*[#  31]
          +0.103*[#  34]+0.079*[#  11]+0.079*[#  12]+0.032*[#  10]+0.032*[#  13]
          +0.009*[#  15]+0.009*[#  18]+0.007*[#  27]+0.007*[#  28]+0.006*[#  32]
          +0.006*[#  33]+0.006*[#  24]+0.006*[#  25]+0.005*[#  35]+0.005*[#  36]
          +0.004*[#  29]+0.004*[#  30]+0.004*[#  21]+0.004*[#  22]
    |psi|^2 = 0.988
==== e(  21) =    -2.41308 eV ==== 
     psi = 0.119*[#  15]+0.119*[#  18]+0.105*[#   9]+0.105*[#  14]+0.051*[#  31]
          +0.051*[#  34]+0.047*[#  23]+0.047*[#  26]+0.047*[#  35]+0.047*[#  36]
          +0.046*[#  27]+0.046*[#  28]+0.034*[#  10]+0.034*[#  13]+0.016*[#  32]
          +0.016*[#  33]+0.016*[#  24]+0.016*[#  25]+0.004*[#  16]+0.004*[#  17]
          +0.003*[#  11]+0.003*[#  12]+0.001*[#   7]+0.001*[#   8]
    |psi|^2 = 0.986
==== e(  22) =    -2.37691 eV ==== 
     psi = 0.154*[#   9]+0.154*[#  14]+0.084*[#  15]+0.084*[#  18]+0.054*[#  31]
          +0.054*[#  34]+0.054*[#  23]+0.054*[#  26]+0.038*[#  35]+0.038*[#  36]
          +0.035*[#  27]+0.035*[#  28]+0.024*[#  10]+0.024*[#  13]+0.021*[#  32]
          +0.021*[#  33]+0.020*[#  24]+0.020*[#  25]+0.003*[#  11]+0.003*[#  12]
          +0.002*[#  16]+0.002*[#  17]+0.002*[#   3]+0.002*[#   6]
    |psi|^2 = 0.987
==== e(  23) =    -1.29506 eV ==== 
     psi = 0.119*[#  27]+0.119*[#  28]+0.115*[#  32]+0.115*[#  33]+0.114*[#  24]
          +0.114*[#  25]+0.113*[#  35]+0.113*[#  36]+0.015*[#  16]+0.015*[#  17]
          +0.004*[#  10]+0.004*[#  13]+0.003*[#   4]+0.003*[#   5]+0.003*[#  11]
          +0.003*[#  12]+0.002*[#  23]+0.002*[#  26]+0.002*[#  31]+0.002*[#  34]
          +0.001*[#   7]+0.001*[#   8]
    |psi|^2 = 0.984
==== e(  24) =    -1.26162 eV ==== 
     psi = 0.100*[#  23]+0.100*[#  26]+0.099*[#  31]+0.099*[#  34]+0.092*[#  24]
          +0.092*[#  25]+0.085*[#  32]+0.085*[#  33]+0.046*[#  35]+0.046*[#  36]
          +0.042*[#  27]+0.042*[#  28]+0.017*[#  10]+0.017*[#  13]+0.003*[#  16]
          +0.003*[#  17]+0.003*[#   4]+0.003*[#   5]+0.002*[#  15]+0.002*[#  18]
          +0.001*[#   7]+0.001*[#   8]
    |psi|^2 = 0.984
==== e(  25) =    -0.82080 eV ==== 
     psi = 0.165*[#  11]+0.165*[#  12]+0.096*[#  16]+0.096*[#  17]+0.051*[#  15]
          +0.051*[#  18]+0.045*[#  24]+0.045*[#  25]+0.044*[#  32]+0.044*[#  33]
          +0.016*[#  35]+0.016*[#  36]+0.014*[#  31]+0.014*[#  34]+0.012*[#  23]
          +0.012*[#  26]+0.012*[#  27]+0.012*[#  28]+0.011*[#  10]+0.011*[#  13]
          +0.008*[#  29]+0.008*[#  30]+0.008*[#  21]+0.008*[#  22]+0.007*[#   9]
          +0.007*[#  14]
    |psi|^2 = 0.981
==== e(  26) =    -0.80413 eV ==== 
     psi = 0.157*[#  11]+0.157*[#  12]+0.105*[#  16]+0.105*[#  17]+0.066*[#   9]
          +0.066*[#  14]+0.046*[#  32]+0.046*[#  33]+0.039*[#  24]+0.039*[#  25]
          +0.021*[#  27]+0.021*[#  28]+0.021*[#  35]+0.021*[#  36]+0.008*[#  29]
          +0.008*[#  30]+0.008*[#  21]+0.008*[#  22]+0.007*[#  31]+0.007*[#  34]
          +0.007*[#  23]+0.007*[#  26]+0.005*[#  15]+0.005*[#  18]+0.001*[#  10]
          +0.001*[#  13]
    |psi|^2 = 0.982
==== e(  27) =     1.82556 eV ==== 
     psi = 0.101*[#  15]+0.101*[#  18]+0.088*[#  23]+0.088*[#  26]+0.085*[#  31]
          +0.085*[#  34]+0.046*[#   9]+0.046*[#  14]+0.038*[#  24]+0.038*[#  25]
          +0.024*[#  35]+0.024*[#  36]+0.023*[#  16]+0.023*[#  17]+0.022*[#  10]
          +0.022*[#  13]+0.016*[#  32]+0.016*[#  33]+0.014*[#  11]+0.014*[#  12]
          +0.010*[#  27]+0.010*[#  28]+0.006*[#  21]+0.006*[#  22]+0.005*[#  29]
          +0.005*[#  30]
    |psi|^2 = 0.962
==== e(  28) =     1.82926 eV ==== 
     psi = 0.104*[#   9]+0.104*[#  14]+0.057*[#  27]+0.057*[#  28]+0.055*[#  15]
          +0.055*[#  18]+0.054*[#  32]+0.054*[#  33]+0.041*[#  35]+0.041*[#  36]
          +0.036*[#  31]+0.036*[#  34]+0.035*[#  23]+0.035*[#  26]+0.033*[#  24]
          +0.033*[#  25]+0.026*[#  11]+0.026*[#  12]+0.019*[#  16]+0.019*[#  17]
          +0.008*[#  10]+0.008*[#  13]+0.006*[#  29]+0.006*[#  30]+0.006*[#  21]
          +0.006*[#  22]+0.001*[#  19]+0.001*[#  20]
    |psi|^2 = 0.960
==== e(  29) =     2.17331 eV ==== 
     psi = 0.166*[#  16]+0.166*[#  17]+0.100*[#  11]+0.100*[#  12]+0.031*[#  32]
          +0.031*[#  33]+0.029*[#  24]+0.029*[#  25]+0.029*[#  27]+0.029*[#  28]
          +0.028*[#  35]+0.028*[#  36]+0.026*[#  31]+0.026*[#  34]+0.023*[#  23]
          +0.023*[#  26]+0.017*[#  29]+0.017*[#  30]+0.017*[#  21]+0.017*[#  22]
          +0.006*[#   9]+0.006*[#  14]+0.006*[#  15]+0.006*[#  18]+0.004*[#  10]
          +0.004*[#  13]
    |psi|^2 = 0.966
==== e(  30) =     2.20439 eV ==== 
     psi = 0.129*[#  15]+0.129*[#  18]+0.059*[#  10]+0.059*[#  13]+0.058*[#  31]
          +0.058*[#  34]+0.057*[#   9]+0.057*[#  14]+0.057*[#  23]+0.057*[#  26]
          +0.040*[#  35]+0.040*[#  36]+0.040*[#  27]+0.040*[#  28]+0.009*[#  29]
          +0.009*[#  30]+0.009*[#  21]+0.009*[#  22]+0.009*[#  24]+0.009*[#  25]
          +0.008*[#  32]+0.008*[#  33]+0.005*[#  11]+0.005*[#  12]+0.003*[#  16]
          +0.003*[#  17]+0.002*[#  19]+0.002*[#  20]
    |psi|^2 = 0.969
==== e(  31) =     2.23005 eV ==== 
     psi = 0.120*[#   9]+0.120*[#  14]+0.069*[#  35]+0.069*[#  36]+0.067*[#  27]
          +0.067*[#  28]+0.056*[#  15]+0.056*[#  18]+0.042*[#  11]+0.042*[#  12]
          +0.036*[#  23]+0.036*[#  26]+0.033*[#  31]+0.033*[#  34]+0.022*[#  32]
          +0.022*[#  33]+0.022*[#  24]+0.022*[#  25]+0.010*[#  10]+0.010*[#  13]
          +0.004*[#  19]+0.004*[#  20]+0.001*[#  29]+0.001*[#  30]+0.001*[#  21]
          +0.001*[#  22]
    |psi|^2 = 0.967
==== e(  32) =     2.28234 eV ==== 
     psi = 0.201*[#  10]+0.201*[#  13]+0.064*[#  31]+0.064*[#  34]+0.063*[#  23]
          +0.063*[#  26]+0.046*[#   9]+0.046*[#  14]+0.024*[#  32]+0.024*[#  33]
          +0.024*[#  24]+0.024*[#  25]+0.016*[#  27]+0.016*[#  28]+0.015*[#  35]
          +0.015*[#  36]+0.010*[#  29]+0.010*[#  30]+0.009*[#  21]+0.009*[#  22]
          +0.005*[#  16]+0.005*[#  17]+0.004*[#  11]+0.004*[#  12]+0.002*[#  19]
          +0.002*[#  20]+0.002*[#  15]+0.002*[#  18]
    |psi|^2 = 0.967

 k =   0.1111111111  0.3207501495  0.0000000000
==== e(   1) =   -61.12836 eV ==== 
     psi = 0.485*[#   1]+0.485*[#   2]+0.003*[#  24]+0.003*[#  25]+0.003*[#  35]
          +0.003*[#  36]+0.002*[#  32]+0.002*[#  33]+0.002*[#  27]+0.002*[#  28]
          
    |psi|^2 = 1.000
==== e(   2) =   -61.12836 eV ==== 
     psi = 0.485*[#   1]+0.485*[#   2]+0.003*[#  32]+0.003*[#  33]+0.002*[#  23]
          +0.002*[#  26]+0.002*[#  27]+0.002*[#  28]+0.002*[#  31]+0.002*[#  34]
          +0.002*[#  24]+0.002*[#  25]+0.001*[#  35]+0.001*[#  36]
    |psi|^2 = 1.000
==== e(   3) =   -36.95952 eV ==== 
     psi = 0.491*[#   7]+0.491*[#   8]+0.002*[#  24]+0.002*[#  25]+0.002*[#  32]
          +0.002*[#  33]+0.002*[#  19]+0.002*[#  20]
    |psi|^2 = 1.000
==== e(   4) =   -36.95251 eV ==== 
     psi = 0.492*[#   7]+0.492*[#   8]+0.001*[#  19]+0.001*[#  20]+0.001*[#  23]
          +0.001*[#  26]+0.001*[#  31]+0.001*[#  34]
    |psi|^2 = 1.000
==== e(   5) =   -34.53265 eV ==== 
     psi = 0.278*[#   4]+0.278*[#   5]+0.210*[#   3]+0.210*[#   6]+0.003*[#  19]
          +0.003*[#  20]+0.001*[#  27]+0.001*[#  28]+0.001*[#  35]+0.001*[#  36]
          +0.001*[#  21]+0.001*[#  22]+0.001*[#  29]+0.001*[#  30]
    |psi|^2 = 1.000
==== e(   6) =   -34.52977 eV ==== 
[...]
==== e(  21) =    -3.30696 eV ==== 
     psi = 0.101*[#  31]+0.101*[#  34]+0.100*[#  23]+0.100*[#  26]+0.056*[#  35]
          +0.056*[#  36]+0.050*[#  27]+0.050*[#  28]+0.044*[#  24]+0.044*[#  25]
          +0.040*[#  32]+0.040*[#  33]+0.029*[#  11]+0.029*[#  12]+0.024*[#   9]
          +0.024*[#  14]+0.011*[#  15]+0.011*[#  18]+0.008*[#  21]+0.008*[#  22]
          +0.008*[#  29]+0.008*[#  30]+0.006*[#  19]+0.006*[#  20]+0.004*[#  16]
          +0.004*[#  17]+0.002*[#   4]+0.002*[#   5]+0.002*[#   7]+0.002*[#   8]
          
    |psi|^2 = 0.975
==== e(  22) =    -3.26521 eV ==== 
     psi = 0.087*[#  27]+0.087*[#  28]+0.086*[#  35]+0.086*[#  36]+0.067*[#  32]
          +0.067*[#  33]+0.066*[#  24]+0.066*[#  25]+0.046*[#  31]+0.046*[#  34]
          +0.041*[#  23]+0.041*[#  26]+0.021*[#  15]+0.021*[#  18]+0.021*[#  11]
          +0.021*[#  12]+0.012*[#  16]+0.012*[#  17]+0.009*[#   9]+0.009*[#  14]
          +0.008*[#  21]+0.008*[#  22]+0.008*[#  29]+0.008*[#  30]+0.007*[#  19]
          +0.007*[#  20]+0.005*[#   3]+0.005*[#   6]+0.005*[#  10]+0.005*[#  13]
          
    |psi|^2 = 0.976
==== e(  23) =    -2.27746 eV ==== 
     psi = 0.113*[#  24]+0.113*[#  25]+0.105*[#  32]+0.105*[#  33]+0.088*[#  35]
          +0.088*[#  36]+0.077*[#  27]+0.077*[#  28]+0.049*[#  10]+0.049*[#  13]
          +0.018*[#  15]+0.018*[#  18]+0.016*[#  29]+0.016*[#  30]+0.016*[#  21]
          +0.016*[#  22]+0.004*[#  16]+0.004*[#  17]+0.003*[#  11]+0.003*[#  12]
          +0.002*[#  23]+0.002*[#  26]+0.002*[#  31]+0.002*[#  34]+0.002*[#   4]
          +0.002*[#   5]
    |psi|^2 = 0.995
==== e(  24) =    -2.27555 eV ==== 
     psi = 0.096*[#  32]+0.096*[#  33]+0.084*[#  24]+0.084*[#  25]+0.062*[#  31]
          +0.062*[#  34]+0.060*[#  23]+0.060*[#  26]+0.048*[#  27]+0.048*[#  28]
          +0.043*[#  16]+0.043*[#  17]+0.040*[#  35]+0.040*[#  36]+0.022*[#  11]
          +0.022*[#  12]+0.016*[#  29]+0.016*[#  30]+0.015*[#  21]+0.015*[#  22]
          +0.006*[#  10]+0.006*[#  13]+0.002*[#   4]+0.002*[#   5]+0.002*[#  15]
          +0.002*[#  18]
    |psi|^2 = 0.995
==== e(  25) =    -0.69048 eV ==== 
     psi = 0.249*[#  15]+0.249*[#  18]+0.064*[#  10]+0.064*[#  13]+0.033*[#  11]
          +0.033*[#  12]+0.032*[#  27]+0.032*[#  28]+0.032*[#  35]+0.032*[#  36]
          +0.023*[#  16]+0.023*[#  17]+0.023*[#  24]+0.023*[#  25]+0.023*[#  32]
          +0.023*[#  33]+0.005*[#  19]+0.005*[#  20]+0.004*[#  23]+0.004*[#  26]
          +0.004*[#  31]+0.004*[#  34]
    |psi|^2 = 0.988
==== e(  26) =    -0.57139 eV ==== 
     psi = 0.304*[#   9]+0.304*[#  14]+0.049*[#  23]+0.049*[#  26]+0.049*[#  31]
          +0.049*[#  34]+0.038*[#  11]+0.038*[#  12]+0.025*[#  16]+0.025*[#  17]
          +0.006*[#  32]+0.006*[#  33]+0.006*[#  24]+0.006*[#  25]+0.006*[#  19]
          +0.006*[#  20]+0.005*[#  27]+0.005*[#  28]+0.005*[#  35]+0.005*[#  36]
          
    |psi|^2 = 0.988
==== e(  27) =     1.78171 eV ==== 
     psi = 0.166*[#  11]+0.166*[#  12]+0.137*[#  16]+0.137*[#  17]+0.054*[#  15]
          +0.054*[#  18]+0.037*[#  31]+0.037*[#  34]+0.036*[#  23]+0.036*[#  26]
          +0.014*[#  10]+0.014*[#  13]+0.012*[#  19]+0.012*[#  20]+0.010*[#  24]
          +0.010*[#  25]+0.009*[#  32]+0.009*[#  33]+0.007*[#   9]+0.007*[#  14]
          +0.005*[#  27]+0.005*[#  28]+0.005*[#  35]+0.005*[#  36]
    |psi|^2 = 0.983
==== e(  28) =     1.80899 eV ==== 
     psi = 0.168*[#  11]+0.168*[#  12]+0.127*[#  16]+0.127*[#  17]+0.073*[#   9]
          +0.073*[#  14]+0.024*[#  32]+0.024*[#  33]+0.024*[#  24]+0.024*[#  25]
          +0.024*[#  27]+0.024*[#  28]+0.024*[#  35]+0.024*[#  36]+0.010*[#  19]
          +0.010*[#  20]+0.008*[#  15]+0.008*[#  18]+0.003*[#  23]+0.003*[#  26]
          +0.003*[#  31]+0.003*[#  34]+0.001*[#  10]+0.001*[#  13]
    |psi|^2 = 0.982
==== e(  29) =     2.77137 eV ==== 
     psi = 0.274*[#  15]+0.274*[#  18]+0.066*[#  24]+0.066*[#  25]+0.065*[#  32]
          +0.065*[#  33]+0.026*[#  11]+0.026*[#  12]+0.014*[#   9]+0.014*[#  14]
          +0.009*[#  19]+0.009*[#  20]+0.006*[#  21]+0.006*[#  22]+0.005*[#  23]
          +0.005*[#  26]+0.005*[#  29]+0.005*[#  30]+0.003*[#  31]+0.003*[#  34]
          +0.001*[#  10]+0.001*[#  13]+0.001*[#  27]+0.001*[#  28]
    |psi|^2 = 0.955
==== e(  30) =     2.82920 eV ==== 
     psi = 0.106*[#  16]+0.106*[#  17]+0.097*[#  31]+0.097*[#  34]+0.095*[#  23]
          +0.095*[#  26]+0.082*[#  11]+0.082*[#  12]+0.033*[#  10]+0.033*[#  13]
          +0.010*[#  15]+0.010*[#  18]+0.009*[#   9]+0.009*[#  14]+0.008*[#  27]
          +0.008*[#  28]+0.008*[#  35]+0.008*[#  36]+0.002*[#  32]+0.002*[#  33]
          +0.002*[#  29]+0.002*[#  30]+0.002*[#  21]+0.002*[#  22]+0.001*[#  24]
          +0.001*[#  25]
    |psi|^2 = 0.910
==== e(  31) =     2.88116 eV ==== 
     psi = 0.211*[#  10]+0.211*[#  13]+0.083*[#  27]+0.083*[#  28]+0.082*[#  35]
          +0.082*[#  36]+0.034*[#  16]+0.034*[#  17]+0.009*[#  11]+0.009*[#  12]
          +0.008*[#  24]+0.008*[#  25]+0.006*[#  32]+0.006*[#  33]+0.006*[#  31]
          +0.006*[#  34]+0.005*[#  23]+0.005*[#  26]+0.004*[#   9]+0.004*[#  14]
          +0.003*[#  21]+0.003*[#  22]+0.003*[#  15]+0.003*[#  18]+0.003*[#  29]
          +0.003*[#  30]+0.002*[#  19]+0.002*[#  20]
    |psi|^2 = 0.918
==== e(  32) =     2.93874 eV ==== 
     psi = 0.294*[#   9]+0.294*[#  14]+0.039*[#  32]+0.039*[#  33]+0.038*[#  24]
          +0.038*[#  25]+0.022*[#  11]+0.022*[#  12]+0.020*[#  35]+0.020*[#  36]
          +0.018*[#  27]+0.018*[#  28]+0.013*[#  15]+0.013*[#  18]+0.011*[#  19]
          +0.011*[#  20]+0.007*[#  29]+0.007*[#  30]+0.007*[#  21]+0.007*[#  22]
          +0.003*[#  23]+0.003*[#  26]+0.003*[#  31]+0.003*[#  34]+0.003*[#  10]
          +0.003*[#  13]+0.002*[#  16]+0.002*[#  17]
    |psi|^2 = 0.960

 k =   0.5555555556 -0.0641500299  0.0000000000
==== e(   1) =   -61.11004 eV ==== 
     psi = 0.476*[#   1]+0.476*[#   2]+0.013*[#  19]+0.013*[#  20]+0.003*[#  27]
          +0.003*[#  28]+0.003*[#  35]+0.003*[#  36]+0.002*[#  24]+0.002*[#  25]
          +0.002*[#  32]+0.002*[#  33]
    |psi|^2 = 1.000
==== e(   2) =   -61.11004 eV ==== 
     psi = 0.476*[#   1]+0.476*[#   2]+0.013*[#  19]+0.013*[#  20]+0.004*[#  23]
          +0.004*[#  26]+0.004*[#  31]+0.004*[#  34]
    |psi|^2 = 1.000
==== e(   3) =   -37.01811 eV ==== 
     psi = 0.489*[#   7]+0.489*[#   8]+0.003*[#  24]+0.003*[#  25]+0.003*[#  32]
          +0.003*[#  33]+0.001*[#   9]+0.001*[#  14]+0.001*[#  21]+0.001*[#  22]
          +0.001*[#  29]+0.001*[#  30]
    |psi|^2 = 1.000
==== e(   4) =   -36.99710 eV ==== 
     psi = 0.492*[#   7]+0.492*[#   8]+0.003*[#  23]+0.003*[#  26]+0.003*[#  31]
          +0.003*[#  34]+0.001*[#   9]+0.001*[#  14]
    |psi|^2 = 1.000
==== e(   5) =   -34.61500 eV ==== 
     psi = 0.427*[#   3]+0.427*[#   6]+0.058*[#   4]+0.058*[#   5]+0.002*[#  24]
          +0.002*[#  25]+0.002*[#  32]+0.002*[#  33]+0.002*[#  21]+0.002*[#  22]
          +0.002*[#  29]+0.002*[#  30]+0.002*[#  15]+0.002*[#  18]+0.001*[#  27]
          +0.001*[#  28]+0.001*[#  35]+0.001*[#  36]
    |psi|^2 = 1.000
==== e(   6) =   -34.58153 eV ==== 
     psi = 0.363*[#   3]+0.363*[#   6]+0.126*[#   4]+0.126*[#   5]+0.003*[#  27]
          +0.003*[#  28]+0.003*[#  35]+0.003*[#  36]+0.001*[#  15]+0.001*[#  18]
          
    |psi|^2 = 1.000
==== e(   7) =   -34.47769 eV ==== 
     psi = 0.364*[#   4]+0.364*[#   5]+0.128*[#   3]+0.128*[#   6]+0.002*[#  27]
          +0.002*[#  28]+0.002*[#  35]+0.002*[#  36]
    |psi|^2 = 1.000
==== e(   8) =   -34.47372 eV ==== 
     psi = 0.433*[#   4]+0.433*[#   5]+0.059*[#   3]+0.059*[#   6]+0.003*[#  23]
          +0.003*[#  26]+0.003*[#  31]+0.003*[#  34]
    |psi|^2 = 1.000
==== e(   9) =   -12.44108 eV ==== 
     psi = 0.242*[#  21]+0.242*[#  22]+0.174*[#  29]+0.174*[#  30]+0.048*[#   9]
          +0.048*[#  14]+0.011*[#  19]+0.011*[#  20]+0.005*[#  24]+0.005*[#  25]
          +0.004*[#   7]+0.004*[#   8]+0.004*[#  32]+0.004*[#  33]+0.002*[#   4]
          +0.002*[#   5]+0.002*[#  27]+0.002*[#  28]+0.002*[#  35]+0.002*[#  36]
          +0.001*[#  10]+0.001*[#  13]
    |psi|^2 = 0.998
==== e(  10) =   -12.38891 eV ==== 
     psi = 0.262*[#  21]+0.262*[#  22]+0.156*[#  29]+0.156*[#  30]+0.037*[#  15]
          +0.037*[#  18]+0.011*[#  19]+0.011*[#  20]+0.011*[#  10]+0.011*[#  13]
          +0.007*[#   3]+0.007*[#   6]+0.004*[#  24]+0.004*[#  25]+0.003*[#  32]
          +0.003*[#  33]+0.003*[#  27]+0.003*[#  28]+0.002*[#  35]+0.002*[#  36]
          +0.001*[#   9]+0.001*[#  14]+0.001*[#  23]+0.001*[#  26]
    |psi|^2 = 0.998
==== e(  11) =   -12.31828 eV ==== 
     psi = 0.223*[#  29]+0.223*[#  30]+0.173*[#  21]+0.173*[#  22]+0.052*[#  16]
          +0.052*[#  17]+0.035*[#  11]+0.035*[#  12]+0.010*[#  10]+0.010*[#  13]
          +0.003*[#  15]+0.003*[#  18]+0.001*[#  32]+0.001*[#  33]
    |psi|^2 = 0.999
==== e(  12) =   -12.31316 eV ==== 
     psi = 0.260*[#  29]+0.260*[#  30]+0.136*[#  21]+0.136*[#  22]+0.068*[#  10]
          +0.068*[#  13]+0.018*[#  15]+0.018*[#  18]+0.007*[#  16]+0.007*[#  17]
          +0.005*[#  11]+0.005*[#  12]+0.001*[#  35]+0.001*[#  36]
    |psi|^2 = 0.999
==== e(  13) =    -5.58904 eV ==== 
     psi = 0.152*[#  10]+0.152*[#  13]+0.104*[#  27]+0.104*[#  28]+0.075*[#  35]
          +0.075*[#  36]+0.046*[#  24]+0.046*[#  25]+0.031*[#  15]+0.031*[#  18]
          +0.031*[#  23]+0.031*[#  26]+0.030*[#  32]+0.030*[#  33]+0.008*[#  16]
          +0.008*[#  17]+0.004*[#  11]+0.004*[#  12]+0.003*[#  29]+0.003*[#  30]
          +0.003*[#  31]+0.003*[#  34]+0.003*[#   9]+0.003*[#  14]+0.002*[#  19]
          +0.002*[#  20]+0.002*[#  21]+0.002*[#  22]
    |psi|^2 = 0.992
==== e(  14) =    -5.57857 eV ==== 
     psi = 0.148*[#  23]+0.148*[#  26]+0.123*[#  16]+0.123*[#  17]+0.103*[#  31]
          +0.103*[#  34]+0.069*[#  11]+0.069*[#  12]+0.013*[#  27]+0.013*[#  28]
          +0.010*[#  10]+0.010*[#  13]+0.007*[#  24]+0.007*[#  25]+0.006*[#  32]
          +0.006*[#  33]+0.006*[#  35]+0.006*[#  36]+0.003*[#  15]+0.003*[#  18]
          +0.003*[#  29]+0.003*[#  30]+0.002*[#  21]+0.002*[#  22]
    |psi|^2 = 0.992
==== e(  15) =    -5.54131 eV ==== 
     psi = 0.101*[#  31]+0.101*[#  34]+0.064*[#  35]+0.064*[#  36]+0.058*[#  27]
          +0.058*[#  28]+0.044*[#  23]+0.044*[#  26]+0.043*[#   9]+0.043*[#  14]
          +0.037*[#  32]+0.037*[#  33]+0.036*[#  24]+0.036*[#  25]+0.035*[#  19]
          +0.035*[#  20]+0.024*[#  11]+0.024*[#  12]+0.021*[#  15]+0.021*[#  18]
          +0.019*[#  16]+0.019*[#  17]+0.004*[#  10]+0.004*[#  13]+0.002*[#   1]
          +0.002*[#   2]+0.002*[#  21]+0.002*[#  22]+0.002*[#  29]+0.002*[#  30]
          +0.001*[#   7]+0.001*[#   8]+0.001*[#   4]+0.001*[#   5]
    |psi|^2 = 0.989
==== e(  16) =    -5.52019 eV ==== 
     psi = 0.099*[#  31]+0.099*[#  34]+0.087*[#  23]+0.087*[#  26]+0.065*[#  35]
          +0.065*[#  36]+0.037*[#  27]+0.037*[#  28]+0.037*[#  15]+0.037*[#  18]
          +0.037*[#  19]+0.037*[#  20]+0.034*[#  32]+0.034*[#  33]+0.033*[#  11]
          +0.033*[#  12]+0.019*[#  24]+0.019*[#  25]+0.018*[#   9]+0.018*[#  14]
          +0.010*[#  10]+0.010*[#  13]+0.009*[#  16]+0.009*[#  17]+0.003*[#   3]
          +0.003*[#   6]+0.002*[#   1]+0.002*[#   2]+0.002*[#  21]+0.002*[#  22]
          +0.001*[#  29]+0.001*[#  30]
    |psi|^2 = 0.989
==== e(  17) =    -4.17850 eV ==== 
     psi = 0.089*[#   9]+0.089*[#  14]+0.084*[#  24]+0.084*[#  25]+0.067*[#  32]
          +0.067*[#  33]+0.047*[#  35]+0.047*[#  36]+0.034*[#  27]+0.034*[#  28]
          +0.033*[#  23]+0.033*[#  26]+0.030*[#  31]+0.030*[#  34]+0.022*[#  11]
          +0.022*[#  12]+0.019*[#  15]+0.019*[#  18]+0.019*[#  21]+0.019*[#  22]
          +0.018*[#  29]+0.018*[#  30]+0.016*[#  16]+0.016*[#  17]+0.007*[#  19]
          +0.007*[#  20]+0.004*[#  10]+0.004*[#  13]+0.002*[#   7]+0.002*[#   8]
          +0.001*[#   4]+0.001*[#   5]
    |psi|^2 = 0.989
==== e(  18) =    -4.17746 eV ==== 
     psi = 0.082*[#  32]+0.082*[#  33]+0.076*[#  15]+0.076*[#  18]+0.069*[#  24]
          +0.069*[#  25]+0.062*[#  27]+0.062*[#  28]+0.046*[#  35]+0.046*[#  36]
          +0.024*[#   9]+0.024*[#  14]+0.023*[#  11]+0.023*[#  12]+0.018*[#  21]
          +0.018*[#  22]+0.017*[#  29]+0.017*[#  30]+0.017*[#  16]+0.017*[#  17]
          +0.017*[#  10]+0.017*[#  13]+0.016*[#  31]+0.016*[#  34]+0.015*[#  23]
          +0.015*[#  26]+0.007*[#  19]+0.007*[#  20]+0.004*[#   3]+0.004*[#   6]
          
    |psi|^2 = 0.988
==== e(  19) =    -3.52718 eV ==== 
     psi = 0.127*[#  35]+0.127*[#  36]+0.124*[#  27]+0.124*[#  28]+0.076*[#  24]
          +0.076*[#  25]+0.069*[#  32]+0.069*[#  33]+0.045*[#  10]+0.045*[#  13]
          +0.015*[#  16]+0.015*[#  17]+0.011*[#  15]+0.011*[#  18]+0.009*[#  11]
          +0.009*[#  12]+0.005*[#  29]+0.005*[#  30]+0.005*[#  21]+0.005*[#  22]
          +0.003*[#   4]+0.003*[#   5]+0.002*[#  23]+0.002*[#  26]+0.001*[#  31]
          +0.001*[#  34]+0.001*[#   7]+0.001*[#   8]
    |psi|^2 = 0.988
==== e(  20) =    -3.50971 eV ==== 
     psi = 0.160*[#  23]+0.160*[#  26]+0.158*[#  31]+0.158*[#  34]+0.044*[#  16]
          +0.044*[#  17]+0.033*[#  32]+0.033*[#  33]+0.024*[#  24]+0.024*[#  25]
          +0.021*[#  10]+0.021*[#  13]+0.014*[#  11]+0.014*[#  12]+0.012*[#  27]
          +0.012*[#  28]+0.006*[#  35]+0.006*[#  36]+0.006*[#  29]+0.006*[#  30]
          +0.006*[#  21]+0.006*[#  22]+0.002*[#  15]+0.002*[#  18]+0.002*[#   4]
          +0.002*[#   5]+0.002*[#   7]+0.002*[#   8]
    |psi|^2 = 0.987
==== e(  21) =    -3.31316 eV ==== 
     psi = 0.102*[#  31]+0.102*[#  34]+0.101*[#  23]+0.101*[#  26]+0.056*[#  35]
          +0.056*[#  36]+0.050*[#  27]+0.050*[#  28]+0.043*[#  24]+0.043*[#  25]
          +0.039*[#  32]+0.039*[#  33]+0.029*[#  11]+0.029*[#  12]+0.022*[#   9]
          +0.022*[#  14]+0.011*[#  15]+0.011*[#  18]+0.008*[#  21]+0.008*[#  22]
          +0.008*[#  29]+0.008*[#  30]+0.007*[#  19]+0.007*[#  20]+0.004*[#  16]
          +0.004*[#  17]+0.002*[#   4]+0.002*[#   5]+0.002*[#   7]+0.002*[#   8]
          
    |psi|^2 = 0.976
==== e(  22) =    -3.27179 eV ==== 
     psi = 0.087*[#  27]+0.087*[#  28]+0.086*[#  35]+0.086*[#  36]+0.066*[#  32]
          +0.066*[#  33]+0.065*[#  24]+0.065*[#  25]+0.047*[#  31]+0.047*[#  34]
          +0.042*[#  23]+0.042*[#  26]+0.021*[#  11]+0.021*[#  12]+0.020*[#  15]
          +0.020*[#  18]+0.012*[#  16]+0.012*[#  17]+0.010*[#   9]+0.010*[#  14]
          +0.008*[#  21]+0.008*[#  22]+0.008*[#  29]+0.008*[#  30]+0.007*[#  19]
          +0.007*[#  20]+0.005*[#   3]+0.005*[#   6]+0.004*[#  10]+0.004*[#  13]
          
    |psi|^2 = 0.976
==== e(  23) =    -2.26554 eV ==== 
     psi = 0.114*[#  24]+0.114*[#  25]+0.105*[#  32]+0.105*[#  33]+0.089*[#  35]
          +0.089*[#  36]+0.078*[#  27]+0.078*[#  28]+0.049*[#  10]+0.049*[#  13]
          +0.018*[#  15]+0.018*[#  18]+0.016*[#  29]+0.016*[#  30]+0.016*[#  21]
          +0.016*[#  22]+0.004*[#  16]+0.004*[#  17]+0.003*[#  11]+0.003*[#  12]
          +0.002*[#  23]+0.002*[#  26]+0.002*[#  31]+0.002*[#  34]+0.002*[#   4]
          +0.002*[#   5]
    |psi|^2 = 0.995
==== e(  24) =    -2.26355 eV ==== 
     psi = 0.097*[#  32]+0.097*[#  33]+0.084*[#  24]+0.084*[#  25]+0.062*[#  31]
          +0.062*[#  34]+0.060*[#  23]+0.060*[#  26]+0.048*[#  27]+0.048*[#  28]
          +0.043*[#  16]+0.043*[#  17]+0.040*[#  35]+0.040*[#  36]+0.022*[#  11]
          +0.022*[#  12]+0.016*[#  29]+0.016*[#  30]+0.015*[#  21]+0.015*[#  22]
          +0.006*[#  10]+0.006*[#  13]+0.002*[#   4]+0.002*[#   5]+0.002*[#  15]
          +0.002*[#  18]
    |psi|^2 = 0.995
==== e(  25) =    -0.68769 eV ==== 
     psi = 0.249*[#  15]+0.249*[#  18]+0.064*[#  10]+0.064*[#  13]+0.033*[#  11]
          +0.033*[#  12]+0.032*[#  27]+0.032*[#  28]+0.032*[#  35]+0.032*[#  36]
          +0.024*[#  16]+0.024*[#  17]+0.023*[#  24]+0.023*[#  25]+0.023*[#  32]
          +0.023*[#  33]+0.005*[#  19]+0.005*[#  20]+0.003*[#  23]+0.003*[#  26]
          +0.003*[#  31]+0.003*[#  34]
    |psi|^2 = 0.988
==== e(  26) =    -0.56843 eV ==== 
     psi = 0.304*[#   9]+0.304*[#  14]+0.049*[#  23]+0.049*[#  26]+0.049*[#  31]
          +0.049*[#  34]+0.038*[#  11]+0.038*[#  12]+0.025*[#  16]+0.025*[#  17]
          +0.006*[#  32]+0.006*[#  33]+0.006*[#  24]+0.006*[#  25]+0.006*[#  19]
          +0.006*[#  20]+0.004*[#  27]+0.004*[#  28]+0.004*[#  35]+0.004*[#  36]
          
    |psi|^2 = 0.987
==== e(  27) =     1.78855 eV ==== 
     psi = 0.165*[#  11]+0.165*[#  12]+0.136*[#  16]+0.136*[#  17]+0.054*[#  15]
          +0.054*[#  18]+0.037*[#  31]+0.037*[#  34]+0.037*[#  23]+0.037*[#  26]
          +0.014*[#  10]+0.014*[#  13]+0.012*[#  19]+0.012*[#  20]+0.009*[#  24]
          +0.009*[#  25]+0.009*[#  32]+0.009*[#  33]+0.007*[#   9]+0.007*[#  14]
          +0.005*[#  27]+0.005*[#  28]+0.005*[#  35]+0.005*[#  36]
    |psi|^2 = 0.983
==== e(  28) =     1.81542 eV ==== 
     psi = 0.168*[#  11]+0.168*[#  12]+0.126*[#  16]+0.126*[#  17]+0.073*[#   9]
          +0.073*[#  14]+0.025*[#  27]+0.025*[#  28]+0.025*[#  35]+0.025*[#  36]
          +0.025*[#  32]+0.025*[#  33]+0.025*[#  24]+0.025*[#  25]+0.010*[#  19]
          +0.010*[#  20]+0.007*[#  15]+0.007*[#  18]+0.003*[#  23]+0.003*[#  26]
          +0.003*[#  31]+0.003*[#  34]+0.001*[#  10]+0.001*[#  13]
    |psi|^2 = 0.982
==== e(  29) =     2.78530 eV ==== 
     psi = 0.274*[#  15]+0.274*[#  18]+0.066*[#  24]+0.066*[#  25]+0.066*[#  32]
          +0.066*[#  33]+0.025*[#  11]+0.025*[#  12]+0.014*[#   9]+0.014*[#  14]
          +0.009*[#  19]+0.009*[#  20]+0.005*[#  21]+0.005*[#  22]+0.005*[#  23]
          +0.005*[#  26]+0.005*[#  29]+0.005*[#  30]+0.003*[#  31]+0.003*[#  34]
          +0.001*[#  10]+0.001*[#  13]+0.001*[#  27]+0.001*[#  28]
    |psi|^2 = 0.955
==== e(  30) =     2.84223 eV ==== 
     psi = 0.106*[#  16]+0.106*[#  17]+0.098*[#  31]+0.098*[#  34]+0.096*[#  23]
          +0.096*[#  26]+0.084*[#  11]+0.084*[#  12]+0.030*[#  10]+0.030*[#  13]
          +0.010*[#  15]+0.010*[#  18]+0.008*[#   9]+0.008*[#  14]+0.008*[#  27]
          +0.008*[#  28]+0.008*[#  35]+0.008*[#  36]+0.002*[#  32]+0.002*[#  33]
          +0.002*[#  29]+0.002*[#  30]+0.002*[#  21]+0.002*[#  22]+0.001*[#  24]
          +0.001*[#  25]
    |psi|^2 = 0.909
==== e(  31) =     2.89598 eV ==== 
     psi = 0.213*[#  10]+0.213*[#  13]+0.084*[#  27]+0.084*[#  28]+0.083*[#  35]
          +0.083*[#  36]+0.032*[#  16]+0.032*[#  17]+0.007*[#  11]+0.007*[#  12]
          +0.007*[#  24]+0.007*[#  25]+0.006*[#  32]+0.006*[#  33]+0.005*[#  31]
          +0.005*[#  34]+0.005*[#  23]+0.005*[#  26]+0.004*[#   9]+0.004*[#  14]
          +0.003*[#  15]+0.003*[#  18]+0.003*[#  21]+0.003*[#  22]+0.003*[#  29]
          +0.003*[#  30]+0.002*[#  19]+0.002*[#  20]
    |psi|^2 = 0.916
==== e(  32) =     2.95325 eV ==== 
     psi = 0.295*[#   9]+0.295*[#  14]+0.039*[#  32]+0.039*[#  33]+0.038*[#  24]
          +0.038*[#  25]+0.021*[#  11]+0.021*[#  12]+0.020*[#  35]+0.020*[#  36]
          +0.018*[#  27]+0.018*[#  28]+0.013*[#  15]+0.013*[#  18]+0.011*[#  19]
          +0.011*[#  20]+0.007*[#  29]+0.007*[#  30]+0.007*[#  21]+0.007*[#  22]
          +0.003*[#  23]+0.003*[#  26]+0.003*[#  31]+0.003*[#  34]+0.003*[#  10]
          +0.003*[#  13]+0.002*[#  16]+0.002*[#  17]
    |psi|^2 = 0.960

Lowdin Charges: 

     Atom #   1: total charge =  13.6891, s =  2.4978, 
     Atom #   1: total charge =  13.6891, p =  5.9949, 
     Atom #   1: total charge =  13.6891, d =  5.1964, 
     Atom #   2: total charge =   6.0589, s =  1.7660, 
     Atom #   2: total charge =   6.0589, p =  4.2929, 
     Atom #   2: total charge =   6.0589, d =  0.0000, 
     Atom #   3: total charge =   6.0513, s =  1.7660, 
     Atom #   3: total charge =   6.0513, p =  4.2853, 
     Atom #   3: total charge =   6.0513, d =  0.0000, 
     Spilling Parameter:   0.0077
 
     PROJWFC      :      2.09s CPU      3.15s WALL

 
   This run was terminated on:  13:58:56  15Apr2024            

=------------------------------------------------------------------------------=
   JOB DONE.
=------------------------------------------------------------------------------=
