
     Program PWSCF v.7.2 starts on  8Apr2024 at 12:17:31 

     This program is part of the open-source Quantum ESPRESSO suite
     for quantum simulation of materials; please cite
         "P. Giannozzi et al., J. Phys.:Condens. Matter 21 395502 (2009);
         "P. Giannozzi et al., J. Phys.:Condens. Matter 29 465901 (2017);
         "P. Giannozzi et al., J. Chem. Phys. 152 154105 (2020);
          URL http://www.quantum-espresso.org", 
     in publications or presentations arising from this work. More details at
     http://www.quantum-espresso.org/quote

     Parallel version (MPI), running on    14 processors

     MPI processes distributed on     1 nodes
     250326 MiB available memory on the printing compute node when the environment starts
 
     Waiting for input...
     Reading input from standard input

     Current dimensions of program PWSCF are:
     Max number of different atomic species (ntypx) = 10
     Max number of k-points (npk) =  40000
     Max angular momentum in pseudopotentials (lmaxx) =  4
 
     K-points division:     npool     =       2
     R & G space division:  proc/nbgrp/npool/nimage =       7
     Subspace diagonalization in iterative solution of the eigenvalue problem:
     a serial algorithm will be used

 
     Parallelization info
     --------------------
     sticks:   dense  smooth     PW     G-vecs:    dense   smooth      PW
     Min          67      67     21                 7139     7139    1195
     Max          68      68     22                 7154     7154    1206
     Sum         475     475    151                50025    50025    8409
 
     Using Slab Decomposition
 


     bravais-lattice index     =            4
     lattice parameter (alat)  =       4.6350  a.u.
     unit-cell volume          =     517.4056 (a.u.)^3
     number of atoms/cell      =            4
     number of atomic types    =            2
     number of electrons       =        16.00
     number of Kohn-Sham states=            8
     kinetic-energy cutoff     =      80.0000  Ry
     charge density cutoff     =     320.0000  Ry
     scf convergence threshold =      1.0E-06
     mixing beta               =       0.7000
     number of iterations used =            8  plain     mixing
     energy convergence thresh.=      1.0E-04
     force convergence thresh. =      1.0E-03
     press convergence thresh. =      5.0E-01
     Exchange-correlation= PBE
                           (   1   4   3   4   0   0   0)
     nstep                     =           50


     celldm(1)=   4.635000  celldm(2)=   0.000000  celldm(3)=   6.000000
     celldm(4)=   0.000000  celldm(5)=   0.000000  celldm(6)=   0.000000

     crystal axes: (cart. coord. in units of alat)
               a(1) = (   1.000000   0.000000   0.000000 )  
               a(2) = (  -0.500000   0.866025   0.000000 )  
               a(3) = (   0.000000   0.000000   6.000000 )  

     reciprocal axes: (cart. coord. in units 2 pi/alat)
               b(1) = (  1.000000  0.577350  0.000000 )  
               b(2) = (  0.000000  1.154701  0.000000 )  
               b(3) = (  0.000000  0.000000  0.166667 )  


     PseudoPot. # 1 for N  read from file:
     ../../../../Pseudo/PBE/N.upf
     MD5 check sum: d34365f73bb0e2ee98afc20ec3e87676
     Pseudo is Norm-conserving + core correction, Zval =  5.0
     Generated using ONCVPSP code by D. R. Hamann
     Using radial grid of 1058 points,  4 beta functions with: 
                l(1) =   0
                l(2) =   0
                l(3) =   1
                l(4) =   1

     PseudoPot. # 2 for B  read from file:
     ../../../../Pseudo/PBE/B.upf
     MD5 check sum: 72f82fc31bc892420d0cab7e25c88ab8
     Pseudo is Norm-conserving + core correction, Zval =  3.0
     Generated using ONCVPSP code by D. R. Hamann
     Using radial grid of 1534 points,  4 beta functions with: 
                l(1) =   0
                l(2) =   0
                l(3) =   1
                l(4) =   1

     atomic species   valence    mass     pseudopotential
        N              5.00    14.00670     N ( 1.00)
        B              3.00    10.80100     B ( 1.00)

      6 Sym. Ops. (no inversion) found


                                    s                        frac. trans.

      isym =  1     identity                                     

 cryst.   s( 1) = (     1          0          0      )
                  (     0          1          0      )
                  (     0          0          1      )

 cart.    s( 1) = (  1.0000000  0.0000000  0.0000000 )
                  (  0.0000000  1.0000000  0.0000000 )
                  (  0.0000000  0.0000000  1.0000000 )


      isym =  2     120 deg rotation - cryst. axis [0,0,1]       

 cryst.   s( 2) = (     0          1          0      )
                  (    -1         -1          0      )
                  (     0          0          1      )

 cart.    s( 2) = ( -0.5000000 -0.8660254  0.0000000 )
                  (  0.8660254 -0.5000000  0.0000000 )
                  (  0.0000000  0.0000000  1.0000000 )


      isym =  3     120 deg rotation - cryst. axis [0,0,-1]      

 cryst.   s( 3) = (    -1         -1          0      )
                  (     1          0          0      )
                  (     0          0          1      )

 cart.    s( 3) = ( -0.5000000  0.8660254  0.0000000 )
                  ( -0.8660254 -0.5000000  0.0000000 )
                  (  0.0000000  0.0000000  1.0000000 )


      isym =  4     inv. 180 deg rotation - cart. axis [1,0,0]   

 cryst.   s( 4) = (    -1          0          0      )
                  (     1          1          0      )
                  (     0          0          1      )

 cart.    s( 4) = ( -1.0000000  0.0000000  0.0000000 )
                  (  0.0000000  1.0000000  0.0000000 )
                  (  0.0000000  0.0000000  1.0000000 )


      isym =  5     inv. 180 deg rotation - cryst. axis [0,1,0]  

 cryst.   s( 5) = (     1          1          0      )
                  (     0         -1          0      )
                  (     0          0          1      )

 cart.    s( 5) = (  0.5000000  0.8660254  0.0000000 )
                  (  0.8660254 -0.5000000  0.0000000 )
                  (  0.0000000  0.0000000  1.0000000 )


      isym =  6     inv. 180 deg rotation - cryst. axis [1,1,0]  

 cryst.   s( 6) = (     0         -1          0      )
                  (    -1          0          0      )
                  (     0          0          1      )

 cart.    s( 6) = (  0.5000000 -0.8660254  0.0000000 )
                  ( -0.8660254 -0.5000000  0.0000000 )
                  (  0.0000000  0.0000000  1.0000000 )


     point group C_3v (3m)  
     there are  3 classes
     the character table:

       E     2C3   3s_v 
A_1    1.00  1.00  1.00
A_2    1.00  1.00 -1.00
E      2.00 -1.00  0.00

     the symmetry operations in each class and the name of the first element:

     E        1
          identity                                               
     2C3      2    3
          120 deg rotation - cryst. axis [0,0,1]                 
     3s_v     4    5    6
          inv. 180 deg rotation - cart. axis [1,0,0]             

   Cartesian axes

     site n.     atom                  positions (alat units)
         1           B   tau(   1) = (   0.0000000   0.0000000   0.0000000  )
         2           N   tau(   2) = (  -0.0000000   0.5773503   0.0000000  )
         3           N   tau(   3) = (   0.0000000   0.0000000   1.5000000  )
         4           B   tau(   4) = (   0.5000000   0.2886751   1.5000000  )

   Crystallographic axes

     site n.     atom                  positions (cryst. coord.)
         1           B   tau(   1) = (  0.0000000  0.0000000  0.0000000  )
         2           N   tau(   2) = (  0.3333333  0.6666667  0.0000000  )
         3           N   tau(   3) = (  0.0000000  0.0000000  0.2500000  )
         4           B   tau(   4) = (  0.6666667  0.3333333  0.2500000  )

     number of k points=    19  Marzari-Vanderbilt smearing, width (Ry)=  0.0100
                       cart. coord. in units 2pi/alat
        k(    1) = (   0.0000000   0.0000000   0.0000000), wk =   0.0138889
        k(    2) = (   0.0000000   0.0962250   0.0000000), wk =   0.0833333
        k(    3) = (   0.0000000   0.1924501   0.0000000), wk =   0.0833333
        k(    4) = (   0.0000000   0.2886751   0.0000000), wk =   0.0833333
        k(    5) = (   0.0000000   0.3849002   0.0000000), wk =   0.0833333
        k(    6) = (   0.0000000   0.4811252   0.0000000), wk =   0.0833333
        k(    7) = (   0.0000000  -0.5773503   0.0000000), wk =   0.0416667
        k(    8) = (   0.0833333   0.1443376   0.0000000), wk =   0.0833333
        k(    9) = (   0.0833333   0.2405626   0.0000000), wk =   0.1666667
        k(   10) = (   0.0833333   0.3367877   0.0000000), wk =   0.1666667
        k(   11) = (   0.0833333   0.4330127   0.0000000), wk =   0.1666667
        k(   12) = (   0.0833333   0.5292377   0.0000000), wk =   0.1666667
        k(   13) = (   0.1666667   0.2886751   0.0000000), wk =   0.0833333
        k(   14) = (   0.1666667   0.3849002   0.0000000), wk =   0.1666667
        k(   15) = (   0.1666667   0.4811252   0.0000000), wk =   0.1666667
        k(   16) = (   0.1666667   0.5773503   0.0000000), wk =   0.0833333
        k(   17) = (   0.2500000   0.4330127   0.0000000), wk =   0.0833333
        k(   18) = (   0.2500000   0.5292377   0.0000000), wk =   0.1666667
        k(   19) = (   0.3333333   0.5773503   0.0000000), wk =   0.0277778

                       cryst. coord.
        k(    1) = (   0.0000000   0.0000000   0.0000000), wk =   0.0138889
        k(    2) = (   0.0000000   0.0833333   0.0000000), wk =   0.0833333
        k(    3) = (   0.0000000   0.1666667   0.0000000), wk =   0.0833333
        k(    4) = (   0.0000000   0.2500000   0.0000000), wk =   0.0833333
        k(    5) = (   0.0000000   0.3333333   0.0000000), wk =   0.0833333
        k(    6) = (   0.0000000   0.4166667   0.0000000), wk =   0.0833333
        k(    7) = (   0.0000000  -0.5000000   0.0000000), wk =   0.0416667
        k(    8) = (   0.0833333   0.0833333   0.0000000), wk =   0.0833333
        k(    9) = (   0.0833333   0.1666667   0.0000000), wk =   0.1666667
        k(   10) = (   0.0833333   0.2500000   0.0000000), wk =   0.1666667
        k(   11) = (   0.0833333   0.3333333   0.0000000), wk =   0.1666667
        k(   12) = (   0.0833333   0.4166667   0.0000000), wk =   0.1666667
        k(   13) = (   0.1666667   0.1666667   0.0000000), wk =   0.0833333
        k(   14) = (   0.1666667   0.2500000   0.0000000), wk =   0.1666667
        k(   15) = (   0.1666667   0.3333333   0.0000000), wk =   0.1666667
        k(   16) = (   0.1666667   0.4166667   0.0000000), wk =   0.0833333
        k(   17) = (   0.2500000   0.2500000   0.0000000), wk =   0.0833333
        k(   18) = (   0.2500000   0.3333333   0.0000000), wk =   0.1666667
        k(   19) = (   0.3333333   0.3333333   0.0000000), wk =   0.0277778

     Dense  grid:    50025 G-vectors     FFT dimensions: (  27,  27, 160)

     Dynamical RAM for                 wfc:       0.11 MB

     Dynamical RAM for     wfc (w. buffer):       1.20 MB

     Dynamical RAM for           str. fact:       0.22 MB

     Dynamical RAM for           local pot:       0.00 MB

     Dynamical RAM for          nlocal pot:       0.44 MB

     Dynamical RAM for                qrad:       1.64 MB

     Dynamical RAM for          rho,v,vnew:       0.71 MB

     Dynamical RAM for               rhoin:       0.24 MB

     Dynamical RAM for            rho*nmix:       1.75 MB

     Dynamical RAM for           G-vectors:       0.46 MB

     Dynamical RAM for          h,s,v(r/c):       0.01 MB

     Dynamical RAM for          <psi|beta>:       0.00 MB

     Dynamical RAM for                 psi:       0.22 MB

     Dynamical RAM for                hpsi:       0.22 MB

     Dynamical RAM for      wfcinit/wfcrot:       0.44 MB

     Estimated static dynamical RAM per process >       5.87 MB

     Estimated max dynamical RAM per process >       8.07 MB

     Estimated total dynamical RAM >     100.78 MB

     Initial potential from superposition of free atoms

     starting charge      15.9995, renormalised to      16.0000

     negative rho (up, down):  4.533E-06 0.000E+00
     Starting wfcs are   16 randomized atomic wfcs

     total cpu time spent up to now is        1.0 secs

     Self-consistent Calculation

     iteration #  1     ecut=    80.00 Ry     beta= 0.70
     Davidson diagonalization with overlap

---- Real-time Memory Report at c_bands before calling an iterative solver
           132 MiB given to the printing process from OS
             0 MiB allocation reported by mallinfo(arena+hblkhd)
        250075 MiB available memory on the node where the printing process lives
------------------
     ethr =  1.00E-02,  avg # of iterations =  2.0

     total cpu time spent up to now is        1.5 secs

     total energy              =     -53.33626692 Ry
     estimated scf accuracy    <       0.85283632 Ry

     iteration #  2     ecut=    80.00 Ry     beta= 0.70
     Davidson diagonalization with overlap

---- Real-time Memory Report at c_bands before calling an iterative solver
           134 MiB given to the printing process from OS
             0 MiB allocation reported by mallinfo(arena+hblkhd)
        249531 MiB available memory on the node where the printing process lives
------------------
     ethr =  5.33E-03,  avg # of iterations =  2.8

     total cpu time spent up to now is        1.8 secs

     total energy              =     -53.59714230 Ry
     estimated scf accuracy    <       0.23818714 Ry

     iteration #  3     ecut=    80.00 Ry     beta= 0.70
     Davidson diagonalization with overlap

---- Real-time Memory Report at c_bands before calling an iterative solver
           135 MiB given to the printing process from OS
             0 MiB allocation reported by mallinfo(arena+hblkhd)
        250042 MiB available memory on the node where the printing process lives
------------------
     ethr =  1.49E-03,  avg # of iterations =  2.0

     total cpu time spent up to now is        2.1 secs

     total energy              =     -53.60688962 Ry
     estimated scf accuracy    <       0.01995705 Ry

     iteration #  4     ecut=    80.00 Ry     beta= 0.70
     Davidson diagonalization with overlap

---- Real-time Memory Report at c_bands before calling an iterative solver
           135 MiB given to the printing process from OS
             0 MiB allocation reported by mallinfo(arena+hblkhd)
        250041 MiB available memory on the node where the printing process lives
------------------
     ethr =  1.25E-04,  avg # of iterations =  4.6

     total cpu time spent up to now is        2.5 secs

     total energy              =     -53.62402961 Ry
     estimated scf accuracy    <       0.04578088 Ry

     iteration #  5     ecut=    80.00 Ry     beta= 0.70
     Davidson diagonalization with overlap

---- Real-time Memory Report at c_bands before calling an iterative solver
           136 MiB given to the printing process from OS
             0 MiB allocation reported by mallinfo(arena+hblkhd)
        250040 MiB available memory on the node where the printing process lives
------------------
     ethr =  1.25E-04,  avg # of iterations =  1.9

     total cpu time spent up to now is        2.8 secs

     total energy              =     -53.62555351 Ry
     estimated scf accuracy    <       0.01384633 Ry

     iteration #  6     ecut=    80.00 Ry     beta= 0.70
     Davidson diagonalization with overlap

---- Real-time Memory Report at c_bands before calling an iterative solver
           136 MiB given to the printing process from OS
             0 MiB allocation reported by mallinfo(arena+hblkhd)
        250037 MiB available memory on the node where the printing process lives
------------------
     ethr =  8.65E-05,  avg # of iterations =  1.0

     negative rho (up, down):  1.189E-06 0.000E+00

     total cpu time spent up to now is        3.0 secs

     total energy              =     -53.62288125 Ry
     estimated scf accuracy    <       0.01163737 Ry

     iteration #  7     ecut=    80.00 Ry     beta= 0.70
     Davidson diagonalization with overlap

---- Real-time Memory Report at c_bands before calling an iterative solver
           136 MiB given to the printing process from OS
             0 MiB allocation reported by mallinfo(arena+hblkhd)
        250039 MiB available memory on the node where the printing process lives
------------------
     ethr =  7.27E-05,  avg # of iterations =  1.3

     negative rho (up, down):  4.116E-06 0.000E+00

     total cpu time spent up to now is        3.3 secs

     total energy              =     -53.62222278 Ry
     estimated scf accuracy    <       0.00360950 Ry

     iteration #  8     ecut=    80.00 Ry     beta= 0.70
     Davidson diagonalization with overlap

---- Real-time Memory Report at c_bands before calling an iterative solver
           136 MiB given to the printing process from OS
             0 MiB allocation reported by mallinfo(arena+hblkhd)
        250037 MiB available memory on the node where the printing process lives
------------------
     ethr =  2.26E-05,  avg # of iterations =  3.3

     negative rho (up, down):  2.913E-06 0.000E+00

     total cpu time spent up to now is        3.6 secs

     total energy              =     -53.62312460 Ry
     estimated scf accuracy    <       0.00018289 Ry

     iteration #  9     ecut=    80.00 Ry     beta= 0.70
     Davidson diagonalization with overlap

---- Real-time Memory Report at c_bands before calling an iterative solver
           136 MiB given to the printing process from OS
             0 MiB allocation reported by mallinfo(arena+hblkhd)
        250035 MiB available memory on the node where the printing process lives
------------------
     ethr =  1.14E-06,  avg # of iterations =  4.6

     negative rho (up, down):  2.569E-06 0.000E+00

     total cpu time spent up to now is        4.0 secs

     total energy              =     -53.62324452 Ry
     estimated scf accuracy    <       0.00003136 Ry

     iteration # 10     ecut=    80.00 Ry     beta= 0.70
     Davidson diagonalization with overlap

---- Real-time Memory Report at c_bands before calling an iterative solver
           137 MiB given to the printing process from OS
             0 MiB allocation reported by mallinfo(arena+hblkhd)
        250040 MiB available memory on the node where the printing process lives
------------------
     ethr =  1.96E-07,  avg # of iterations =  1.8

     negative rho (up, down):  1.759E-06 0.000E+00

     total cpu time spent up to now is        4.2 secs

     total energy              =     -53.62325167 Ry
     estimated scf accuracy    <       0.00003036 Ry

     iteration # 11     ecut=    80.00 Ry     beta= 0.70
     Davidson diagonalization with overlap

---- Real-time Memory Report at c_bands before calling an iterative solver
           137 MiB given to the printing process from OS
             0 MiB allocation reported by mallinfo(arena+hblkhd)
        250039 MiB available memory on the node where the printing process lives
------------------
     ethr =  1.90E-07,  avg # of iterations =  1.0

     negative rho (up, down):  4.134E-08 0.000E+00

     total cpu time spent up to now is        4.4 secs

     total energy              =     -53.62325345 Ry
     estimated scf accuracy    <       0.00003686 Ry

     iteration # 12     ecut=    80.00 Ry     beta= 0.70
     Davidson diagonalization with overlap

---- Real-time Memory Report at c_bands before calling an iterative solver
           137 MiB given to the printing process from OS
             0 MiB allocation reported by mallinfo(arena+hblkhd)
        250039 MiB available memory on the node where the printing process lives
------------------
     ethr =  1.90E-07,  avg # of iterations =  1.0

     total cpu time spent up to now is        4.7 secs

     total energy              =     -53.62324575 Ry
     estimated scf accuracy    <       0.00003474 Ry

     iteration # 13     ecut=    80.00 Ry     beta= 0.70
     Davidson diagonalization with overlap

---- Real-time Memory Report at c_bands before calling an iterative solver
           137 MiB given to the printing process from OS
             0 MiB allocation reported by mallinfo(arena+hblkhd)
        250039 MiB available memory on the node where the printing process lives
------------------
     ethr =  1.90E-07,  avg # of iterations =  1.0

     negative rho (up, down):  1.044E-08 0.000E+00

     total cpu time spent up to now is        4.9 secs

     total energy              =     -53.62324199 Ry
     estimated scf accuracy    <       0.00001622 Ry

     iteration # 14     ecut=    80.00 Ry     beta= 0.70
     Davidson diagonalization with overlap

---- Real-time Memory Report at c_bands before calling an iterative solver
           137 MiB given to the printing process from OS
             0 MiB allocation reported by mallinfo(arena+hblkhd)
        250038 MiB available memory on the node where the printing process lives
------------------
     ethr =  1.01E-07,  avg # of iterations =  1.1

     total cpu time spent up to now is        5.1 secs

     total energy              =     -53.62324132 Ry
     estimated scf accuracy    <       0.00000484 Ry

     iteration # 15     ecut=    80.00 Ry     beta= 0.70
     Davidson diagonalization with overlap

---- Real-time Memory Report at c_bands before calling an iterative solver
           137 MiB given to the printing process from OS
             0 MiB allocation reported by mallinfo(arena+hblkhd)
        250038 MiB available memory on the node where the printing process lives
------------------
     ethr =  3.02E-08,  avg # of iterations =  3.2

     total cpu time spent up to now is        5.4 secs

     End of self-consistent calculation

          k = 0.0000 0.0000 0.0000 (  6307 PWs)   bands (ev):

   -18.8937 -18.8245  -6.7075  -6.1048  -2.1246  -2.1246  -2.0935  -2.0935

     occupation numbers 
     1.0000   1.0000   1.0000   1.0000   1.0000   1.0000   1.0000   1.0000

          k = 0.0000 0.0962 0.0000 (  6319 PWs)   bands (ev):

   -18.7535 -18.6852  -6.5153  -5.9189  -2.6968  -2.6656  -2.4011  -2.3698

     occupation numbers 
     1.0000   1.0000   1.0000   1.0000   1.0000   1.0000   1.0000   1.0000

          k = 0.0000 0.1925 0.0000 (  6291 PWs)   bands (ev):

   -18.3398 -18.2745  -5.9467  -5.3706  -4.1488  -4.1163  -3.0728  -3.0412

     occupation numbers 
     1.0000   1.0000   1.0000   1.0000   1.0000   1.0000   1.0000   1.0000

          k = 0.0000 0.2887 0.0000 (  6279 PWs)   bands (ev):

   -17.6793 -17.6190  -6.0047  -5.9708  -5.0263  -4.4886  -3.8493  -3.8174

     occupation numbers 
     1.0000   1.0000   1.0000   1.0000   1.0000   1.0000   1.0000   1.0000

          k = 0.0000 0.3849 0.0000 (  6254 PWs)   bands (ev):

   -16.8398 -16.7868  -7.8635  -7.8262  -4.5150  -4.4829  -3.8359  -3.3661

     occupation numbers 
     1.0000   1.0000   1.0000   1.0000   1.0000   1.0000   1.0000   1.0000

          k = 0.0000 0.4811 0.0000 (  6236 PWs)   bands (ev):

   -16.0017 -15.9592  -9.3681  -9.3279  -4.9512  -4.9190  -2.5771  -2.2402

     occupation numbers 
     1.0000   1.0000   1.0000   1.0000   1.0000   1.0000   1.0000   1.0000

          k = 0.0000-0.5774 0.0000 (  6230 PWs)   bands (ev):

   -15.5983 -15.5640  -9.9998  -9.9587  -5.1020  -5.0697  -1.8903  -1.7247

     occupation numbers 
     1.0000   1.0000   1.0000   1.0000   1.0000   1.0000   1.0000   1.0000

          k = 0.0833 0.1443 0.0000 (  6309 PWs)   bands (ev):

   -18.4764 -18.4101  -6.1347  -5.5515  -3.6383  -3.6071  -2.9454  -2.9143

     occupation numbers 
     1.0000   1.0000   1.0000   1.0000   1.0000   1.0000   1.0000   1.0000

          k = 0.0833 0.2406 0.0000 (  6260 PWs)   bands (ev):

   -17.9380 -17.8756  -5.3978  -5.1776  -5.1443  -4.8289  -3.7832  -3.7518

     occupation numbers 
     1.0000   1.0000   1.0000   1.0000   1.0000   1.0000   1.0000   1.0000

          k = 0.0833 0.3368 0.0000 (  6252 PWs)   bands (ev):

   -17.1813 -17.1250  -6.9711  -6.9366  -4.5727  -4.5410  -4.3261  -3.8238

     occupation numbers 
     1.0000   1.0000   1.0000   1.0000   1.0000   1.0000   1.0000   1.0000

          k = 0.0833 0.4330 0.0000 (  6232 PWs)   bands (ev):

   -16.3168 -16.2694  -8.6442  -8.6061  -5.1543  -5.1219  -3.0699  -2.6622

     occupation numbers 
     1.0000   1.0000   1.0000   1.0000   1.0000   1.0000   1.0000   1.0000

          k = 0.0833 0.5292 0.0000 (  6221 PWs)   bands (ev):

   -15.6350 -15.5984  -9.7588  -9.7184  -5.4591  -5.4265  -1.9833  -1.7544

     occupation numbers 
     1.0000   1.0000   1.0000   1.0000   1.0000   1.0000   1.0000   1.0000

          k = 0.1667 0.2887 0.0000 (  6261 PWs)   bands (ev):

   -17.2991 -17.2418  -6.4424  -6.4118  -4.8493  -4.8189  -4.4940  -3.9814

     occupation numbers 
     1.0000   1.0000   1.0000   1.0000   1.0000   1.0000   1.0000   1.0000

          k = 0.1667 0.3849 0.0000 (  6247 PWs)   bands (ev):

   -16.4945 -16.4444  -7.8717  -7.8389  -5.7490  -5.7169  -3.3418  -2.9012

     occupation numbers 
     1.0000   1.0000   1.0000   1.0000   1.0000   1.0000   1.0000   1.0000

          k = 0.1667 0.4811 0.0000 (  6231 PWs)   bands (ev):

   -15.7047 -15.6644  -9.1446  -9.1075  -6.2880  -6.2545  -2.1380  -1.8304

     occupation numbers 
     1.0000   1.0000   1.0000   1.0000   1.0000   1.0000   1.0000   1.0000

          k = 0.1667 0.5774 0.0000 (  6230 PWs)   bands (ev):

   -15.3327 -15.2993  -9.6944  -9.6554  -6.4654  -6.4314  -1.4909  -1.3461

     occupation numbers 
     1.0000   1.0000   1.0000   1.0000   1.0000   1.0000   1.0000   1.0000

          k = 0.2500 0.4330 0.0000 (  6237 PWs)   bands (ev):

   -15.7380 -15.6960  -8.6720  -8.6414  -6.8573  -6.8254  -2.2064  -1.8708

     occupation numbers 
     1.0000   1.0000   1.0000   1.0000   1.0000   1.0000   1.0000   1.0000

          k = 0.2500 0.5292 0.0000 (  6245 PWs)   bands (ev):

   -15.1753 -15.1416  -9.2631  -9.2288  -7.4670  -7.4333  -1.2676  -1.1015

     occupation numbers 
     1.0000   1.0000   1.0000   1.0000   1.0000   1.0000   1.0000   1.0000

          k = 0.3333 0.5774 0.0000 (  6234 PWs)   bands (ev):

   -14.9584 -14.9273  -9.1330  -9.1041  -8.0900  -8.0604  -0.8560  -0.8207

     occupation numbers 
     1.0000   1.0000   1.0000   1.0000   1.0000   1.0000   1.0000   1.0000

     the Fermi energy is    -0.1099 ev

!    total energy              =     -53.62324205 Ry
     estimated scf accuracy    <       0.00000041 Ry
     smearing contrib. (-TS)   =       0.00000000 Ry
     internal energy E=F+TS    =     -53.62324205 Ry

     The total energy is F=E-TS. E is the sum of the following terms:
     one-electron contribution =    -269.59956528 Ry
     hartree contribution      =     139.94294539 Ry
     xc contribution           =     -17.50147752 Ry
     ewald contribution        =      93.53485537 Ry

     convergence has been achieved in  15 iterations

     Forces acting on atoms (cartesian axes, Ry/au):

     atom    1 type  2   force =     0.00000000    0.00000000   -0.00022095
     atom    2 type  1   force =     0.00000000    0.00000000   -0.00062413
     atom    3 type  1   force =     0.00000000    0.00000000    0.00042923
     atom    4 type  2   force =     0.00000000    0.00000000    0.00041585
     The non-local contrib.  to forces
     atom    1 type  2   force =     0.00000000   -0.00000000    0.00004042
     atom    2 type  1   force =     0.00000000    0.00000000   -0.00105255
     atom    3 type  1   force =     0.00000000    0.00000000    0.00103965
     atom    4 type  2   force =     0.00000000    0.00000000    0.00017576
     The ionic contribution  to forces
     atom    1 type  2   force =    -0.00000001    0.00000000   -8.10594868
     atom    2 type  1   force =     0.00000001   -0.00000000  -13.50706061
     atom    3 type  1   force =     0.00000001   -0.00000000   13.50877293
     atom    4 type  2   force =    -0.00000001    0.00000000    8.10423637
     The local contribution  to forces
     atom    1 type  2   force =     0.00000000   -0.00000000    8.10562908
     atom    2 type  1   force =     0.00000003   -0.00000002   13.50734139
     atom    3 type  1   force =     0.00000000    0.00000000  -13.50919671
     atom    4 type  2   force =     0.00000000   -0.00000000   -8.10392535
     The core correction contribution to forces
     atom    1 type  2   force =    -0.00000000   -0.00000000   -0.00000456
     atom    2 type  1   force =    -0.00000000    0.00000000    0.00005121
     atom    3 type  1   force =     0.00000000   -0.00000000   -0.00004911
     atom    4 type  2   force =     0.00000000   -0.00000000   -0.00000106
     The Hubbard contrib.    to forces
     atom    1 type  2   force =     0.00000000    0.00000000    0.00000000
     atom    2 type  1   force =     0.00000000    0.00000000    0.00000000
     atom    3 type  1   force =     0.00000000    0.00000000    0.00000000
     atom    4 type  2   force =     0.00000000    0.00000000    0.00000000
     The SCF correction term to forces
     atom    1 type  2   force =     0.00000000   -0.00000000    0.00005563
     atom    2 type  1   force =    -0.00000000    0.00000000    0.00008926
     atom    3 type  1   force =    -0.00000000    0.00000000   -0.00014469
     atom    4 type  2   force =    -0.00000000    0.00000000   -0.00007704

     Total force =     0.000892     Total SCF correction =     0.000195
     SCF correction compared to forces is large: reduce conv_thr to get better values


     Computing stress (Cartesian axis) and pressure

          total   stress  (Ry/bohr**3)                   (kbar)     P=       83.89
   0.00084890   0.00000000   0.00000000          124.88        0.00        0.00
   0.00000000   0.00084890  -0.00000000            0.00      124.88       -0.00
   0.00000000   0.00000000   0.00001303            0.00        0.00        1.92

     kinetic stress (kbar)   7031.96      0.00      0.00
                                0.00   7031.96      0.00
                                0.00      0.00   7594.36

     local   stress (kbar) -81127.90      0.00      0.00
                                0.00 -81127.90     -0.00
                                0.00     -0.00  82385.92

     nonloc. stress (kbar)  -1176.39      0.00      0.00
                                0.00  -1176.39      0.00
                                0.00      0.00  -1122.08

     hartree stress (kbar)  38646.77      0.00     -0.00
                                0.00  38646.77      0.00
                               -0.00      0.00 -37505.95

     exc-cor stress (kbar)   -697.83     -0.00     -0.00
                               -0.00   -697.83      0.00
                               -0.00      0.00   -749.74

     corecor stress (kbar)   -771.08      0.00     -0.00
                                0.00   -771.08      0.00
                               -0.00      0.00   -755.04

     ewald   stress (kbar)  38219.36     -0.00     -0.00
                               -0.00  38219.36      0.00
                               -0.00      0.00 -49845.56

     hubbard stress (kbar)      0.00      0.00      0.00
                                0.00      0.00      0.00
                                0.00      0.00      0.00

     DFT-D   stress (kbar)      0.00      0.00      0.00
                                0.00      0.00      0.00
                                0.00      0.00      0.00

     XDM     stress (kbar)      0.00      0.00      0.00
                                0.00      0.00      0.00
                                0.00      0.00      0.00

     dft-nl  stress (kbar)      0.00      0.00      0.00
                                0.00      0.00      0.00
                                0.00      0.00      0.00

     TS-vdW  stress (kbar)      0.00      0.00      0.00
                                0.00      0.00      0.00
                                0.00      0.00      0.00

     MDB     stress (kbar)      0.00      0.00      0.00
                                0.00      0.00      0.00
                                0.00      0.00      0.00

     3D-RISM stress (kbar)      0.00      0.00      0.00
                                0.00      0.00      0.00
                                0.00      0.00      0.00


     BFGS Geometry Optimization
     Energy error            =      0.0E+00 Ry
     Gradient error          =      6.2E-04 Ry/Bohr
     Cell gradient error     =      1.2E+02 kbar

     number of scf cycles    =   1
     number of bfgs steps    =   0

     enthalpy           new  =     -53.6232420454 Ry

     new trust radius        =       0.0965475797 bohr
     new conv_thr            =       0.0000010000 Ry

     new unit-cell volume =    539.77567 a.u.^3 (    79.98650 Ang^3 )
     density =      1.03003 g/cm^3

CELL_PARAMETERS (alat=  4.63500000)
   1.021222466   0.000000000   0.000000000
  -0.510611233   0.884404598   0.000000000
   0.000000000  -0.000000000   6.001955025

ATOMIC_POSITIONS (crystal)
B            -0.0000000000       -0.0000000000       -0.0000079450
N             0.3333333330        0.6666666670       -0.0000224426
N             0.0000000000        0.0000000000        0.2500154343
B             0.6666666670        0.3333333330        0.2500149533



     Writing config-only to output data dir ./graphene.save/
     NEW-OLD atomic charge density approx. for the potential

     negative rho (up, down):  2.766E-06 0.000E+00
     extrapolated charge   16.66307, renormalised to   16.00000

     total cpu time spent up to now is        7.2 secs

     Self-consistent Calculation

     iteration #  1     ecut=    80.00 Ry     beta= 0.70
     Davidson diagonalization with overlap

---- Real-time Memory Report at c_bands before calling an iterative solver
           216 MiB given to the printing process from OS
             0 MiB allocation reported by mallinfo(arena+hblkhd)
        250040 MiB available memory on the node where the printing process lives
------------------
     c_bands:  5 eigenvalues not converged
     c_bands:  1 eigenvalues not converged
     c_bands:  4 eigenvalues not converged
     c_bands:  3 eigenvalues not converged
     c_bands:  1 eigenvalues not converged
     c_bands:  1 eigenvalues not converged
     c_bands:  2 eigenvalues not converged
     c_bands:  3 eigenvalues not converged
     c_bands:  4 eigenvalues not converged
     c_bands:  5 eigenvalues not converged
     ethr =  1.00E-06,  avg # of iterations = 29.3

     total cpu time spent up to now is        9.0 secs

     total energy              =      -9.07134176 Ry
     estimated scf accuracy    <      46.45121827 Ry

     iteration #  2     ecut=    80.00 Ry     beta= 0.70
     Davidson diagonalization with overlap

---- Real-time Memory Report at c_bands before calling an iterative solver
           216 MiB given to the printing process from OS
             0 MiB allocation reported by mallinfo(arena+hblkhd)
        250039 MiB available memory on the node where the printing process lives
------------------
     c_bands:  2 eigenvalues not converged
     c_bands:  1 eigenvalues not converged
     ethr =  1.00E-02,  avg # of iterations = 14.4

     total cpu time spent up to now is        9.7 secs

     total energy              =     -57.26384371 Ry
     estimated scf accuracy    <      45.87148214 Ry

     iteration #  3     ecut=    80.00 Ry     beta= 0.70
     Davidson diagonalization with overlap

---- Real-time Memory Report at c_bands before calling an iterative solver
           216 MiB given to the printing process from OS
             0 MiB allocation reported by mallinfo(arena+hblkhd)
        250039 MiB available memory on the node where the printing process lives
------------------
     ethr =  1.00E-02,  avg # of iterations =  6.2

     total cpu time spent up to now is       10.1 secs

     total energy              =     -57.95364075 Ry
     estimated scf accuracy    <      11.16019584 Ry

     iteration #  4     ecut=    80.00 Ry     beta= 0.70
     Davidson diagonalization with overlap

---- Real-time Memory Report at c_bands before calling an iterative solver
           216 MiB given to the printing process from OS
             0 MiB allocation reported by mallinfo(arena+hblkhd)
        250038 MiB available memory on the node where the printing process lives
------------------
     ethr =  1.00E-02,  avg # of iterations =  2.0

     total cpu time spent up to now is       10.3 secs

     total energy              =     -55.00453780 Ry
     estimated scf accuracy    <       6.27939577 Ry

     iteration #  5     ecut=    80.00 Ry     beta= 0.70
     Davidson diagonalization with overlap

---- Real-time Memory Report at c_bands before calling an iterative solver
           216 MiB given to the printing process from OS
             0 MiB allocation reported by mallinfo(arena+hblkhd)
        250037 MiB available memory on the node where the printing process lives
------------------
     ethr =  1.00E-02,  avg # of iterations =  2.4

     total cpu time spent up to now is       10.5 secs

     total energy              =     -54.45106860 Ry
     estimated scf accuracy    <       2.66800352 Ry

     iteration #  6     ecut=    80.00 Ry     beta= 0.70
     Davidson diagonalization with overlap

---- Real-time Memory Report at c_bands before calling an iterative solver
           216 MiB given to the printing process from OS
             0 MiB allocation reported by mallinfo(arena+hblkhd)
        250035 MiB available memory on the node where the printing process lives
------------------
     ethr =  1.00E-02,  avg # of iterations =  1.9

     total cpu time spent up to now is       10.8 secs

     total energy              =     -54.62913839 Ry
     estimated scf accuracy    <       1.69363050 Ry

     iteration #  7     ecut=    80.00 Ry     beta= 0.70
     Davidson diagonalization with overlap

---- Real-time Memory Report at c_bands before calling an iterative solver
           216 MiB given to the printing process from OS
             0 MiB allocation reported by mallinfo(arena+hblkhd)
        250034 MiB available memory on the node where the printing process lives
------------------
     ethr =  1.00E-02,  avg # of iterations =  1.0

     total cpu time spent up to now is       11.0 secs

     total energy              =     -54.55073259 Ry
     estimated scf accuracy    <       1.64221289 Ry

     iteration #  8     ecut=    80.00 Ry     beta= 0.70
     Davidson diagonalization with overlap

---- Real-time Memory Report at c_bands before calling an iterative solver
           216 MiB given to the printing process from OS
             0 MiB allocation reported by mallinfo(arena+hblkhd)
        250032 MiB available memory on the node where the printing process lives
------------------
     ethr =  1.00E-02,  avg # of iterations =  1.3

     total cpu time spent up to now is       11.2 secs

     total energy              =     -54.49237307 Ry
     estimated scf accuracy    <       1.49046280 Ry

     iteration #  9     ecut=    80.00 Ry     beta= 0.70
     Davidson diagonalization with overlap

---- Real-time Memory Report at c_bands before calling an iterative solver
           216 MiB given to the printing process from OS
             0 MiB allocation reported by mallinfo(arena+hblkhd)
        250030 MiB available memory on the node where the printing process lives
------------------
     ethr =  9.32E-03,  avg # of iterations =  1.0

     total cpu time spent up to now is       11.4 secs

     total energy              =     -53.91789244 Ry
     estimated scf accuracy    <       1.30660418 Ry

     iteration # 10     ecut=    80.00 Ry     beta= 0.70
     Davidson diagonalization with overlap

---- Real-time Memory Report at c_bands before calling an iterative solver
           216 MiB given to the printing process from OS
             0 MiB allocation reported by mallinfo(arena+hblkhd)
        250028 MiB available memory on the node where the printing process lives
------------------
     ethr =  8.17E-03,  avg # of iterations =  1.0

     negative rho (up, down):  4.173E-04 0.000E+00

     total cpu time spent up to now is       11.6 secs

     total energy              =     -53.42508769 Ry
     estimated scf accuracy    <       0.57121936 Ry

     iteration # 11     ecut=    80.00 Ry     beta= 0.70
     Davidson diagonalization with overlap

---- Real-time Memory Report at c_bands before calling an iterative solver
           216 MiB given to the printing process from OS
             0 MiB allocation reported by mallinfo(arena+hblkhd)
        250028 MiB available memory on the node where the printing process lives
------------------
     ethr =  3.57E-03,  avg # of iterations =  2.6

     negative rho (up, down):  2.146E-02 0.000E+00

     total cpu time spent up to now is       11.8 secs

     total energy              =     -53.73565762 Ry
     estimated scf accuracy    <       0.58036010 Ry

     iteration # 12     ecut=    80.00 Ry     beta= 0.70
     Davidson diagonalization with overlap

---- Real-time Memory Report at c_bands before calling an iterative solver
           216 MiB given to the printing process from OS
             0 MiB allocation reported by mallinfo(arena+hblkhd)
        250027 MiB available memory on the node where the printing process lives
------------------
     ethr =  3.57E-03,  avg # of iterations =  1.3

     negative rho (up, down):  4.085E-03 0.000E+00

     total cpu time spent up to now is       12.1 secs

     total energy              =     -53.73777951 Ry
     estimated scf accuracy    <       0.44145581 Ry

     iteration # 13     ecut=    80.00 Ry     beta= 0.70
     Davidson diagonalization with overlap

---- Real-time Memory Report at c_bands before calling an iterative solver
           216 MiB given to the printing process from OS
             0 MiB allocation reported by mallinfo(arena+hblkhd)
        250026 MiB available memory on the node where the printing process lives
------------------
     ethr =  2.76E-03,  avg # of iterations =  1.1

     negative rho (up, down):  1.571E-02 0.000E+00

     total cpu time spent up to now is       12.3 secs

     total energy              =     -53.85688771 Ry
     estimated scf accuracy    <       0.38732670 Ry

     iteration # 14     ecut=    80.00 Ry     beta= 0.70
     Davidson diagonalization with overlap

---- Real-time Memory Report at c_bands before calling an iterative solver
           216 MiB given to the printing process from OS
             0 MiB allocation reported by mallinfo(arena+hblkhd)
        250026 MiB available memory on the node where the printing process lives
------------------
     ethr =  2.42E-03,  avg # of iterations =  2.0

     negative rho (up, down):  1.351E-02 0.000E+00

     total cpu time spent up to now is       12.5 secs

     total energy              =     -53.53960585 Ry
     estimated scf accuracy    <       0.80253744 Ry

     iteration # 15     ecut=    80.00 Ry     beta= 0.70
     Davidson diagonalization with overlap

---- Real-time Memory Report at c_bands before calling an iterative solver
           216 MiB given to the printing process from OS
             0 MiB allocation reported by mallinfo(arena+hblkhd)
        250026 MiB available memory on the node where the printing process lives
------------------
     ethr =  2.42E-03,  avg # of iterations =  2.0

     negative rho (up, down):  1.440E-02 0.000E+00

     total cpu time spent up to now is       12.7 secs

     total energy              =     -53.65932033 Ry
     estimated scf accuracy    <       0.18104005 Ry

     iteration # 16     ecut=    80.00 Ry     beta= 0.70
     Davidson diagonalization with overlap

---- Real-time Memory Report at c_bands before calling an iterative solver
           216 MiB given to the printing process from OS
             0 MiB allocation reported by mallinfo(arena+hblkhd)
        250025 MiB available memory on the node where the printing process lives
------------------
     ethr =  1.13E-03,  avg # of iterations =  1.6

     negative rho (up, down):  1.329E-02 0.000E+00

     total cpu time spent up to now is       12.9 secs

     total energy              =     -53.63475304 Ry
     estimated scf accuracy    <       0.18901535 Ry

     iteration # 17     ecut=    80.00 Ry     beta= 0.70
     Davidson diagonalization with overlap

---- Real-time Memory Report at c_bands before calling an iterative solver
           216 MiB given to the printing process from OS
             0 MiB allocation reported by mallinfo(arena+hblkhd)
        250025 MiB available memory on the node where the printing process lives
------------------
     ethr =  1.13E-03,  avg # of iterations =  2.2

     negative rho (up, down):  6.995E-03 0.000E+00

     total cpu time spent up to now is       13.2 secs

     total energy              =     -53.64927260 Ry
     estimated scf accuracy    <       0.27691162 Ry

     iteration # 18     ecut=    80.00 Ry     beta= 0.70
     Davidson diagonalization with overlap

---- Real-time Memory Report at c_bands before calling an iterative solver
           216 MiB given to the printing process from OS
             0 MiB allocation reported by mallinfo(arena+hblkhd)
        250025 MiB available memory on the node where the printing process lives
------------------
     ethr =  1.13E-03,  avg # of iterations =  1.1

     negative rho (up, down):  2.286E-03 0.000E+00

     total cpu time spent up to now is       13.4 secs

     total energy              =     -53.53757032 Ry
     estimated scf accuracy    <       0.17890110 Ry

     iteration # 19     ecut=    80.00 Ry     beta= 0.70
     Davidson diagonalization with overlap

---- Real-time Memory Report at c_bands before calling an iterative solver
           216 MiB given to the printing process from OS
             0 MiB allocation reported by mallinfo(arena+hblkhd)
        250025 MiB available memory on the node where the printing process lives
------------------
     ethr =  1.12E-03,  avg # of iterations =  2.7

     negative rho (up, down):  1.401E-03 0.000E+00

     total cpu time spent up to now is       13.6 secs

     total energy              =     -53.63170807 Ry
     estimated scf accuracy    <       0.03178762 Ry

     iteration # 20     ecut=    80.00 Ry     beta= 0.70
     Davidson diagonalization with overlap

---- Real-time Memory Report at c_bands before calling an iterative solver
           216 MiB given to the printing process from OS
             0 MiB allocation reported by mallinfo(arena+hblkhd)
        250025 MiB available memory on the node where the printing process lives
------------------
     ethr =  1.99E-04,  avg # of iterations =  2.0

     negative rho (up, down):  7.663E-04 0.000E+00

     total cpu time spent up to now is       13.8 secs

     total energy              =     -53.63128145 Ry
     estimated scf accuracy    <       0.00746775 Ry

     iteration # 21     ecut=    80.00 Ry     beta= 0.70
     Davidson diagonalization with overlap

---- Real-time Memory Report at c_bands before calling an iterative solver
           216 MiB given to the printing process from OS
             0 MiB allocation reported by mallinfo(arena+hblkhd)
        250025 MiB available memory on the node where the printing process lives
------------------
     ethr =  4.67E-05,  avg # of iterations =  2.1

     negative rho (up, down):  3.453E-04 0.000E+00

     total cpu time spent up to now is       14.0 secs

     total energy              =     -53.63290897 Ry
     estimated scf accuracy    <       0.00050318 Ry

     iteration # 22     ecut=    80.00 Ry     beta= 0.70
     Davidson diagonalization with overlap

---- Real-time Memory Report at c_bands before calling an iterative solver
           216 MiB given to the printing process from OS
             0 MiB allocation reported by mallinfo(arena+hblkhd)
        250036 MiB available memory on the node where the printing process lives
------------------
     ethr =  3.14E-06,  avg # of iterations =  2.6

     negative rho (up, down):  8.640E-05 0.000E+00

     total cpu time spent up to now is       14.2 secs

     total energy              =     -53.63315522 Ry
     estimated scf accuracy    <       0.00014879 Ry

     iteration # 23     ecut=    80.00 Ry     beta= 0.70
     Davidson diagonalization with overlap

---- Real-time Memory Report at c_bands before calling an iterative solver
           216 MiB given to the printing process from OS
             0 MiB allocation reported by mallinfo(arena+hblkhd)
        249311 MiB available memory on the node where the printing process lives
------------------
     ethr =  9.30E-07,  avg # of iterations =  2.2

     negative rho (up, down):  6.190E-05 0.000E+00

     total cpu time spent up to now is       14.5 secs

     total energy              =     -53.63318272 Ry
     estimated scf accuracy    <       0.00004142 Ry

     iteration # 24     ecut=    80.00 Ry     beta= 0.70
     Davidson diagonalization with overlap

---- Real-time Memory Report at c_bands before calling an iterative solver
           216 MiB given to the printing process from OS
             0 MiB allocation reported by mallinfo(arena+hblkhd)
        250029 MiB available memory on the node where the printing process lives
------------------
     ethr =  2.59E-07,  avg # of iterations =  1.9

     total cpu time spent up to now is       14.7 secs

     total energy              =     -53.63318123 Ry
     estimated scf accuracy    <       0.00001507 Ry

     iteration # 25     ecut=    80.00 Ry     beta= 0.70
     Davidson diagonalization with overlap

---- Real-time Memory Report at c_bands before calling an iterative solver
           216 MiB given to the printing process from OS
             0 MiB allocation reported by mallinfo(arena+hblkhd)
        250029 MiB available memory on the node where the printing process lives
------------------
     ethr =  9.42E-08,  avg # of iterations =  2.7

     total cpu time spent up to now is       14.9 secs

     total energy              =     -53.63318667 Ry
     estimated scf accuracy    <       0.00000187 Ry

     iteration # 26     ecut=    80.00 Ry     beta= 0.70
     Davidson diagonalization with overlap

---- Real-time Memory Report at c_bands before calling an iterative solver
           216 MiB given to the printing process from OS
             0 MiB allocation reported by mallinfo(arena+hblkhd)
        250029 MiB available memory on the node where the printing process lives
------------------
     ethr =  1.17E-08,  avg # of iterations =  2.6

     total cpu time spent up to now is       15.1 secs

     End of self-consistent calculation

          k = 0.0000 0.0000 0.0000 (  6307 PWs)   bands (ev):

   -18.7372 -18.6648  -6.6014  -5.9833  -2.4228  -2.4228  -2.3872  -2.3872

     occupation numbers 
     1.0000   1.0000   1.0000   1.0000   1.0000   1.0000   1.0000   1.0000

          k = 0.0000 0.0942 0.0000 (  6319 PWs)   bands (ev):

   -18.6032 -18.5318  -6.4188  -5.8073  -2.9800  -2.9444  -2.6815  -2.6458

     occupation numbers 
     1.0000   1.0000   1.0000   1.0000   1.0000   1.0000   1.0000   1.0000

          k = 0.0000 0.1885 0.0000 (  6291 PWs)   bands (ev):

   -18.2085 -18.1400  -5.8793  -5.2893  -4.3862  -4.3492  -3.3118  -3.2758

     occupation numbers 
     1.0000   1.0000   1.0000   1.0000   1.0000   1.0000   1.0000   1.0000

          k = 0.0000 0.2827 0.0000 (  6279 PWs)   bands (ev):

   -17.5802 -17.5166  -6.1737  -6.1355  -5.0061  -4.4558  -4.0430  -4.0068

     occupation numbers 
     1.0000   1.0000   1.0000   1.0000   1.0000   1.0000   1.0000   1.0000

          k = 0.0000 0.3769 0.0000 (  6254 PWs)   bands (ev):

   -16.7866 -16.7303  -7.9521  -7.9107  -4.6715  -4.6351  -3.8797  -3.4004

     occupation numbers 
     1.0000   1.0000   1.0000   1.0000   1.0000   1.0000   1.0000   1.0000

          k = 0.0000 0.4711 0.0000 (  6236 PWs)   bands (ev):

   -16.0041 -15.9580  -9.3775  -9.3333  -5.0840  -5.0474  -2.6940  -2.3513

     occupation numbers 
     1.0000   1.0000   1.0000   1.0000   1.0000   1.0000   1.0000   1.0000

          k = 0.0000-0.5654-0.0000 (  6230 PWs)   bands (ev):

   -15.6337 -15.5950  -9.9682  -9.9231  -5.2267  -5.1901  -2.0505  -1.8789

     occupation numbers 
     1.0000   1.0000   1.0000   1.0000   1.0000   1.0000   1.0000   1.0000

          k = 0.0816 0.1413 0.0000 (  6309 PWs)   bands (ev):

   -18.3387 -18.2692  -6.0576  -5.4599  -3.8942  -3.8586  -3.1931  -3.1577

     occupation numbers 
     1.0000   1.0000   1.0000   1.0000   1.0000   1.0000   1.0000   1.0000

          k = 0.0816 0.2356 0.0000 (  6260 PWs)   bands (ev):

   -17.8259 -17.7603  -5.4077  -5.3643  -5.3064  -4.7786  -3.9854  -3.9496

     occupation numbers 
     1.0000   1.0000   1.0000   1.0000   1.0000   1.0000   1.0000   1.0000

          k = 0.0816 0.3298 0.0000 (  6252 PWs)   bands (ev):

   -17.1085 -17.0490  -7.0986  -7.0599  -4.7351  -4.6989  -4.3432  -3.8297

     occupation numbers 
     1.0000   1.0000   1.0000   1.0000   1.0000   1.0000   1.0000   1.0000

          k = 0.0816 0.4240 0.0000 (  6232 PWs)   bands (ev):

   -16.2966 -16.2456  -8.6895  -8.6474  -5.2885  -5.2517  -3.1571  -2.7418

     occupation numbers 
     1.0000   1.0000   1.0000   1.0000   1.0000   1.0000   1.0000   1.0000

          k = 0.0816 0.5182 0.0000 (  6221 PWs)   bands (ev):

   -15.6665 -15.6258  -9.7363  -9.6919  -5.5787  -5.5417  -2.1367  -1.9030

     occupation numbers 
     1.0000   1.0000   1.0000   1.0000   1.0000   1.0000   1.0000   1.0000

          k = 0.1632 0.2827 0.0000 (  6261 PWs)   bands (ev):

   -17.2199 -17.1593  -6.5930  -6.5582  -5.0043  -4.9693  -4.5020  -3.9778

     occupation numbers 
     1.0000   1.0000   1.0000   1.0000   1.0000   1.0000   1.0000   1.0000

          k = 0.1632 0.3769 0.0000 (  6247 PWs)   bands (ev):

   -16.4624 -16.4088  -7.9481  -7.9111  -5.8723  -5.8359  -3.4129  -2.9637

     occupation numbers 
     1.0000   1.0000   1.0000   1.0000   1.0000   1.0000   1.0000   1.0000

          k = 0.1632 0.4711 0.0000 (  6231 PWs)   bands (ev):

   -15.7291 -15.6850  -9.1417  -9.1004  -6.3947  -6.3568  -2.2802  -1.9677

     occupation numbers 
     1.0000   1.0000   1.0000   1.0000   1.0000   1.0000   1.0000   1.0000

          k = 0.1632 0.5654 0.0000 (  6230 PWs)   bands (ev):

   -15.3898 -15.3520  -9.6506  -9.6074  -6.5666  -6.5282  -1.6744  -1.5246

     occupation numbers 
     1.0000   1.0000   1.0000   1.0000   1.0000   1.0000   1.0000   1.0000

          k = 0.2448 0.4240 0.0000 (  6237 PWs)   bands (ev):

   -15.7591 -15.7135  -8.6784  -8.6434  -6.9575  -6.9211  -2.3437  -2.0029

     occupation numbers 
     1.0000   1.0000   1.0000   1.0000   1.0000   1.0000   1.0000   1.0000

          k = 0.2448 0.5182 0.0000 (  6245 PWs)   bands (ev):

   -15.2457 -15.2077  -9.2000  -9.1609  -7.5659  -7.5275  -1.4639  -1.2947

     occupation numbers 
     1.0000   1.0000   1.0000   1.0000   1.0000   1.0000   1.0000   1.0000

          k = 0.3264 0.5654 0.0000 (  6234 PWs)   bands (ev):

   -15.0503 -15.0145  -8.9894  -8.9569  -8.2388  -8.2055  -1.0789  -1.0381

     occupation numbers 
     1.0000   1.0000   1.0000   1.0000   1.0000   1.0000   1.0000   1.0000

     the Fermi energy is    -0.3157 ev

!    total energy              =     -53.63318699 Ry
     estimated scf accuracy    <       0.00000028 Ry
     smearing contrib. (-TS)   =       0.00000000 Ry
     internal energy E=F+TS    =     -53.63318699 Ry

     The total energy is F=E-TS. E is the sum of the following terms:
     one-electron contribution =    -258.70927326 Ry
     hartree contribution      =     134.34747084 Ry
     xc contribution           =     -17.33094519 Ry
     ewald contribution        =      88.05956062 Ry

     convergence has been achieved in  26 iterations

     Forces acting on atoms (cartesian axes, Ry/au):

     atom    1 type  2   force =     0.00000000    0.00000000   -0.00027059
     atom    2 type  1   force =     0.00000000    0.00000000   -0.00068497
     atom    3 type  1   force =     0.00000000    0.00000000    0.00051866
     atom    4 type  2   force =     0.00000000    0.00000000    0.00043689
     The non-local contrib.  to forces
     atom    1 type  2   force =     0.00000000   -0.00000000    0.00013937
     atom    2 type  1   force =     0.00000000    0.00000000   -0.00074131
     atom    3 type  1   force =     0.00000000    0.00000000    0.00120799
     atom    4 type  2   force =     0.00000000   -0.00000000    0.00014514
     The ionic contribution  to forces
     atom    1 type  2   force =    -0.00000001    0.00000000   -7.76965261
     atom    2 type  1   force =     0.00000001   -0.00000000  -12.95154754
     atom    3 type  1   force =     0.00000001   -0.00000000   12.95158758
     atom    4 type  2   force =    -0.00000001    0.00000000    7.76961258
     The local contribution  to forces
     atom    1 type  2   force =     0.00000000   -0.00000000    7.76897841
     atom    2 type  1   force =     0.00000003   -0.00000002   12.95104537
     atom    3 type  1   force =     0.00000000    0.00000000  -12.95206379
     atom    4 type  2   force =     0.00000000   -0.00000000   -7.76927054
     The core correction contribution to forces
     atom    1 type  2   force =    -0.00000000   -0.00000000   -0.00001417
     atom    2 type  1   force =    -0.00000000    0.00000000    0.00004312
     atom    3 type  1   force =     0.00000000   -0.00000000   -0.00005525
     atom    4 type  2   force =     0.00000000   -0.00000000    0.00000083
     The Hubbard contrib.    to forces
     atom    1 type  2   force =     0.00000000    0.00000000    0.00000000
     atom    2 type  1   force =     0.00000000    0.00000000    0.00000000
     atom    3 type  1   force =     0.00000000    0.00000000    0.00000000
     atom    4 type  2   force =     0.00000000    0.00000000    0.00000000
     The SCF correction term to forces
     atom    1 type  2   force =     0.00000000   -0.00000000    0.00023540
     atom    2 type  1   force =     0.00000000   -0.00000000    0.00047239
     atom    3 type  1   force =     0.00000000   -0.00000000   -0.00020087
     atom    4 type  2   force =     0.00000000   -0.00000000   -0.00009413

     Total force =     0.001001     Total SCF correction =     0.000573
     SCF correction compared to forces is large: reduce conv_thr to get better values


     Computing stress (Cartesian axis) and pressure

          total   stress  (Ry/bohr**3)                   (kbar)     P=        7.79
   0.00007565   0.00000000   0.00000000           11.13        0.00        0.00
   0.00000000   0.00007565  -0.00000000            0.00       11.13       -0.00
   0.00000000   0.00000000   0.00000748            0.00        0.00        1.10

     kinetic stress (kbar)   6598.84      0.00      0.00
                                0.00   6598.84     -0.00
                                0.00     -0.00   7202.15

     local   stress (kbar) -74500.32      0.00      0.00
                                0.00 -74500.32     -0.00
                                0.00     -0.00  75453.12

     nonloc. stress (kbar)  -1087.77      0.00      0.00
                               -0.00  -1087.77     -0.00
                               -0.00     -0.00  -1054.89

     hartree stress (kbar)  35480.63     -0.00     -0.00
                               -0.00  35480.63      0.00
                               -0.00      0.00 -34347.53

     exc-cor stress (kbar)   -656.49     -0.00     -0.00
                               -0.00   -656.49      0.00
                               -0.00      0.00   -705.02

     corecor stress (kbar)   -735.57      0.00     -0.00
                                0.00   -735.57      0.00
                               -0.00      0.00   -721.98

     ewald   stress (kbar)  34911.81     -0.00     -0.00
                               -0.00  34911.81      0.00
                               -0.00      0.00 -45824.74

     hubbard stress (kbar)      0.00      0.00      0.00
                                0.00      0.00      0.00
                                0.00      0.00      0.00

     DFT-D   stress (kbar)      0.00      0.00      0.00
                                0.00      0.00      0.00
                                0.00      0.00      0.00

     XDM     stress (kbar)      0.00      0.00      0.00
                                0.00      0.00      0.00
                                0.00      0.00      0.00

     dft-nl  stress (kbar)      0.00      0.00      0.00
                                0.00      0.00      0.00
                                0.00      0.00      0.00

     TS-vdW  stress (kbar)      0.00      0.00      0.00
                                0.00      0.00      0.00
                                0.00      0.00      0.00

     MDB     stress (kbar)      0.00      0.00      0.00
                                0.00      0.00      0.00
                                0.00      0.00      0.00

     3D-RISM stress (kbar)      0.00      0.00      0.00
                                0.00      0.00      0.00
                                0.00      0.00      0.00

     Energy error            =      9.9E-03 Ry
     Gradient error          =      6.8E-04 Ry/Bohr
     Cell gradient error     =      1.1E+01 kbar

     number of scf cycles    =   2
     number of bfgs steps    =   1

     enthalpy           old  =     -53.6232420454 Ry
     enthalpy           new  =     -53.6331869856 Ry

     CASE: enthalpy          _new < enthalpy          _old

     new trust radius        =       0.0096817837 bohr
     new conv_thr            =       0.0000000100 Ry

     new unit-cell volume =    542.14362 a.u.^3 (    80.33740 Ang^3 )
     density =      1.02553 g/cm^3

CELL_PARAMETERS (alat=  4.63500000)
   1.023350307   0.000000000  -0.000000000
  -0.511675153   0.886247362   0.000000000
   0.000000000  -0.000000000   6.003242047

ATOMIC_POSITIONS (crystal)
B            -0.0000000000       -0.0000000000       -0.0000186548
N             0.3333333330        0.6666666670       -0.0000495537
N             0.0000000000        0.0000000000        0.2500359630
B             0.6666666670        0.3333333330        0.2500322456



     Writing config-only to output data dir ./graphene.save/
     NEW-OLD atomic charge density approx. for the potential

     negative rho (up, down):  1.221E-07 0.000E+00
     extrapolated charge   16.06988, renormalised to   16.00000

     total cpu time spent up to now is       16.8 secs

     Self-consistent Calculation

     iteration #  1     ecut=    80.00 Ry     beta= 0.70
     Davidson diagonalization with overlap

---- Real-time Memory Report at c_bands before calling an iterative solver
           218 MiB given to the printing process from OS
             0 MiB allocation reported by mallinfo(arena+hblkhd)
        250030 MiB available memory on the node where the printing process lives
------------------
     ethr =  1.00E-06,  avg # of iterations =  6.0

     total cpu time spent up to now is       17.2 secs

     total energy              =     -53.62862726 Ry
     estimated scf accuracy    <       0.00349957 Ry

     iteration #  2     ecut=    80.00 Ry     beta= 0.70
     Davidson diagonalization with overlap

---- Real-time Memory Report at c_bands before calling an iterative solver
           218 MiB given to the printing process from OS
             0 MiB allocation reported by mallinfo(arena+hblkhd)
        250028 MiB available memory on the node where the printing process lives
------------------
     ethr =  2.19E-05,  avg # of iterations =  3.1

     total cpu time spent up to now is       17.5 secs

     total energy              =     -53.63283230 Ry
     estimated scf accuracy    <       0.01199308 Ry

     iteration #  3     ecut=    80.00 Ry     beta= 0.70
     Davidson diagonalization with overlap

---- Real-time Memory Report at c_bands before calling an iterative solver
           218 MiB given to the printing process from OS
             0 MiB allocation reported by mallinfo(arena+hblkhd)
        250037 MiB available memory on the node where the printing process lives
------------------
     ethr =  2.19E-05,  avg # of iterations =  2.0

     total cpu time spent up to now is       17.8 secs

     total energy              =     -53.63344018 Ry
     estimated scf accuracy    <       0.00202954 Ry

     iteration #  4     ecut=    80.00 Ry     beta= 0.70
     Davidson diagonalization with overlap

---- Real-time Memory Report at c_bands before calling an iterative solver
           218 MiB given to the printing process from OS
             0 MiB allocation reported by mallinfo(arena+hblkhd)
        249549 MiB available memory on the node where the printing process lives
------------------
     ethr =  1.27E-05,  avg # of iterations =  1.0

     total cpu time spent up to now is       18.0 secs

     total energy              =     -53.63320648 Ry
     estimated scf accuracy    <       0.00097119 Ry

     iteration #  5     ecut=    80.00 Ry     beta= 0.70
     Davidson diagonalization with overlap

---- Real-time Memory Report at c_bands before calling an iterative solver
           218 MiB given to the printing process from OS
             0 MiB allocation reported by mallinfo(arena+hblkhd)
        250029 MiB available memory on the node where the printing process lives
------------------
     ethr =  6.07E-06,  avg # of iterations =  2.0

     total cpu time spent up to now is       18.2 secs

     total energy              =     -53.63325079 Ry
     estimated scf accuracy    <       0.00020804 Ry

     iteration #  6     ecut=    80.00 Ry     beta= 0.70
     Davidson diagonalization with overlap

---- Real-time Memory Report at c_bands before calling an iterative solver
           218 MiB given to the printing process from OS
             0 MiB allocation reported by mallinfo(arena+hblkhd)
        250029 MiB available memory on the node where the printing process lives
------------------
     ethr =  1.30E-06,  avg # of iterations =  2.1

     total cpu time spent up to now is       18.5 secs

     total energy              =     -53.63329140 Ry
     estimated scf accuracy    <       0.00004747 Ry

     iteration #  7     ecut=    80.00 Ry     beta= 0.70
     Davidson diagonalization with overlap

---- Real-time Memory Report at c_bands before calling an iterative solver
           218 MiB given to the printing process from OS
             0 MiB allocation reported by mallinfo(arena+hblkhd)
        250028 MiB available memory on the node where the printing process lives
------------------
     ethr =  2.97E-07,  avg # of iterations =  1.5

     total cpu time spent up to now is       18.7 secs

     total energy              =     -53.63329598 Ry
     estimated scf accuracy    <       0.00004981 Ry

     iteration #  8     ecut=    80.00 Ry     beta= 0.70
     Davidson diagonalization with overlap

---- Real-time Memory Report at c_bands before calling an iterative solver
           218 MiB given to the printing process from OS
             0 MiB allocation reported by mallinfo(arena+hblkhd)
        250027 MiB available memory on the node where the printing process lives
------------------
     ethr =  2.97E-07,  avg # of iterations =  1.0

     total cpu time spent up to now is       18.9 secs

     total energy              =     -53.63326879 Ry
     estimated scf accuracy    <       0.00005113 Ry

     iteration #  9     ecut=    80.00 Ry     beta= 0.70
     Davidson diagonalization with overlap

---- Real-time Memory Report at c_bands before calling an iterative solver
           218 MiB given to the printing process from OS
             0 MiB allocation reported by mallinfo(arena+hblkhd)
        250026 MiB available memory on the node where the printing process lives
------------------
     ethr =  2.97E-07,  avg # of iterations =  2.0

     total cpu time spent up to now is       19.1 secs

     total energy              =     -53.63328319 Ry
     estimated scf accuracy    <       0.00000056 Ry

     iteration # 10     ecut=    80.00 Ry     beta= 0.70
     Davidson diagonalization with overlap

---- Real-time Memory Report at c_bands before calling an iterative solver
           218 MiB given to the printing process from OS
             0 MiB allocation reported by mallinfo(arena+hblkhd)
        250025 MiB available memory on the node where the printing process lives
------------------
     ethr =  3.50E-09,  avg # of iterations =  6.5

     total cpu time spent up to now is       19.5 secs

     total energy              =     -53.63328512 Ry
     estimated scf accuracy    <       0.00000117 Ry

     iteration # 11     ecut=    80.00 Ry     beta= 0.70
     Davidson diagonalization with overlap

---- Real-time Memory Report at c_bands before calling an iterative solver
           218 MiB given to the printing process from OS
             0 MiB allocation reported by mallinfo(arena+hblkhd)
        250025 MiB available memory on the node where the printing process lives
------------------
     ethr =  3.50E-09,  avg # of iterations =  2.0

     total cpu time spent up to now is       19.8 secs

     total energy              =     -53.63328428 Ry
     estimated scf accuracy    <       0.00000260 Ry

     iteration # 12     ecut=    80.00 Ry     beta= 0.70
     Davidson diagonalization with overlap

---- Real-time Memory Report at c_bands before calling an iterative solver
           218 MiB given to the printing process from OS
             0 MiB allocation reported by mallinfo(arena+hblkhd)
        250026 MiB available memory on the node where the printing process lives
------------------
     ethr =  3.50E-09,  avg # of iterations =  2.0

     total cpu time spent up to now is       20.0 secs

     total energy              =     -53.63328423 Ry
     estimated scf accuracy    <       0.00000041 Ry

     iteration # 13     ecut=    80.00 Ry     beta= 0.70
     Davidson diagonalization with overlap

---- Real-time Memory Report at c_bands before calling an iterative solver
           218 MiB given to the printing process from OS
             0 MiB allocation reported by mallinfo(arena+hblkhd)
        250025 MiB available memory on the node where the printing process lives
------------------
     ethr =  2.57E-09,  avg # of iterations =  3.0

     total cpu time spent up to now is       20.3 secs

     total energy              =     -53.63328449 Ry
     estimated scf accuracy    <       0.00000006 Ry

     iteration # 14     ecut=    80.00 Ry     beta= 0.70
     Davidson diagonalization with overlap

---- Real-time Memory Report at c_bands before calling an iterative solver
           218 MiB given to the printing process from OS
             0 MiB allocation reported by mallinfo(arena+hblkhd)
        250025 MiB available memory on the node where the printing process lives
------------------
     ethr =  3.81E-10,  avg # of iterations =  4.7

     total cpu time spent up to now is       20.6 secs

     total energy              =     -53.63328432 Ry
     estimated scf accuracy    <       0.00000040 Ry

     iteration # 15     ecut=    80.00 Ry     beta= 0.70
     Davidson diagonalization with overlap

---- Real-time Memory Report at c_bands before calling an iterative solver
           218 MiB given to the printing process from OS
             0 MiB allocation reported by mallinfo(arena+hblkhd)
        250023 MiB available memory on the node where the printing process lives
------------------
     ethr =  3.81E-10,  avg # of iterations =  4.1

     total cpu time spent up to now is       20.9 secs

     End of self-consistent calculation

          k = 0.0000 0.0000 0.0000 (  6307 PWs)   bands (ev):

   -18.7237 -18.6507  -6.5925  -5.9739  -2.4535  -2.4535  -2.4168  -2.4168

     occupation numbers 
     1.0000   1.0000   1.0000   1.0000   1.0000   1.0000   1.0000   1.0000

          k =-0.0000 0.0940 0.0000 (  6319 PWs)   bands (ev):

   -18.5903 -18.5183  -6.4109  -5.7988  -3.0093  -2.9725  -2.7105  -2.6736

     occupation numbers 
     1.0000   1.0000   1.0000   1.0000   1.0000   1.0000   1.0000   1.0000

          k =-0.0000 0.1881 0.0000 (  6291 PWs)   bands (ev):

   -18.1975 -18.1284  -5.8742  -5.2838  -4.4111  -4.3729  -3.3368  -3.2996

     occupation numbers 
     1.0000   1.0000   1.0000   1.0000   1.0000   1.0000   1.0000   1.0000

          k =-0.0000 0.2821 0.0000 (  6279 PWs)   bands (ev):

   -17.5724 -17.5082  -6.1919  -6.1525  -5.0056  -4.4549  -4.0637  -4.0262

     occupation numbers 
     1.0000   1.0000   1.0000   1.0000   1.0000   1.0000   1.0000   1.0000

          k =-0.0000 0.3761 0.0000 (  6254 PWs)   bands (ev):

   -16.7834 -16.7264  -7.9624  -7.9198  -4.6886  -4.6508  -3.8855  -3.4061

     occupation numbers 
     1.0000   1.0000   1.0000   1.0000   1.0000   1.0000   1.0000   1.0000

          k =-0.0000 0.4701 0.0000 (  6236 PWs)   bands (ev):

   -16.0064 -15.9595  -9.3800  -9.3346  -5.0987  -5.0609  -2.7071  -2.3645

     occupation numbers 
     1.0000   1.0000   1.0000   1.0000   1.0000   1.0000   1.0000   1.0000

          k = 0.0000-0.5642-0.0000 (  6230 PWs)   bands (ev):

   -15.6393 -15.5996  -9.9667  -9.9204  -5.2406  -5.2027  -2.0679  -1.8961

     occupation numbers 
     1.0000   1.0000   1.0000   1.0000   1.0000   1.0000   1.0000   1.0000

          k = 0.0814 0.1410 0.0000 (  6309 PWs)   bands (ev):

   -18.3271 -18.2570  -6.0515  -5.4534  -3.9209  -3.8842  -3.2190  -3.1824

     occupation numbers 
     1.0000   1.0000   1.0000   1.0000   1.0000   1.0000   1.0000   1.0000

          k = 0.0814 0.2351 0.0000 (  6260 PWs)   bands (ev):

   -17.8168 -17.7506  -5.4221  -5.3821  -5.3136  -4.7759  -4.0068  -3.9697

     occupation numbers 
     1.0000   1.0000   1.0000   1.0000   1.0000   1.0000   1.0000   1.0000

          k = 0.0814 0.3291 0.0000 (  6252 PWs)   bands (ev):

   -17.1034 -17.0431  -7.1128  -7.0728  -4.7526  -4.7151  -4.3464  -3.8327

     occupation numbers 
     1.0000   1.0000   1.0000   1.0000   1.0000   1.0000   1.0000   1.0000

          k = 0.0814 0.4231 0.0000 (  6232 PWs)   bands (ev):

   -16.2966 -16.2449  -8.6956  -8.6522  -5.3033  -5.2652  -3.1672  -2.7519

     occupation numbers 
     1.0000   1.0000   1.0000   1.0000   1.0000   1.0000   1.0000   1.0000

          k = 0.0814 0.5172 0.0000 (  6221 PWs)   bands (ev):

   -15.6717 -15.6300  -9.7358  -9.6902  -5.5921  -5.5538  -2.1535  -1.9197

     occupation numbers 
     1.0000   1.0000   1.0000   1.0000   1.0000   1.0000   1.0000   1.0000

          k = 0.1629 0.2821 0.0000 (  6261 PWs)   bands (ev):

   -17.2141 -17.1528  -6.6096  -6.5735  -5.0210  -4.9847  -4.5043  -3.9798

     occupation numbers 
     1.0000   1.0000   1.0000   1.0000   1.0000   1.0000   1.0000   1.0000

          k = 0.1629 0.3761 0.0000 (  6247 PWs)   bands (ev):

   -16.4612 -16.4070  -7.9575  -7.9192  -5.8858  -5.8480  -3.4214  -2.9722

     occupation numbers 
     1.0000   1.0000   1.0000   1.0000   1.0000   1.0000   1.0000   1.0000

          k = 0.1629 0.4701 0.0000 (  6231 PWs)   bands (ev):

   -15.7336 -15.6886  -9.1434  -9.1007  -6.4065  -6.3673  -2.2958  -1.9834

     occupation numbers 
     1.0000   1.0000   1.0000   1.0000   1.0000   1.0000   1.0000   1.0000

          k = 0.1629 0.5642 0.0000 (  6230 PWs)   bands (ev):

   -15.3974 -15.3586  -9.6484  -9.6038  -6.5779  -6.5382  -1.6942  -1.5441

     occupation numbers 
     1.0000   1.0000   1.0000   1.0000   1.0000   1.0000   1.0000   1.0000

          k = 0.2443 0.4231 0.0000 (  6237 PWs)   bands (ev):

   -15.7632 -15.7168  -8.6814  -8.6449  -6.9684  -6.9305  -2.3588  -2.0180

     occupation numbers 
     1.0000   1.0000   1.0000   1.0000   1.0000   1.0000   1.0000   1.0000

          k = 0.2443 0.5172 0.0000 (  6245 PWs)   bands (ev):

   -15.2546 -15.2156  -9.1964  -9.1558  -7.5765  -7.5366  -1.4850  -1.3157

     occupation numbers 
     1.0000   1.0000   1.0000   1.0000   1.0000   1.0000   1.0000   1.0000

          k = 0.3257 0.5642 0.0000 (  6234 PWs)   bands (ev):

   -15.0611 -15.0245  -8.9777  -8.9437  -8.2548  -8.2200  -1.1029  -1.0613

     occupation numbers 
     1.0000   1.0000   1.0000   1.0000   1.0000   1.0000   1.0000   1.0000

     the Fermi energy is    -0.3377 ev

!    total energy              =     -53.63328441 Ry
     estimated scf accuracy    <          8.0E-09 Ry
     smearing contrib. (-TS)   =       0.00000000 Ry
     internal energy E=F+TS    =     -53.63328441 Ry

     The total energy is F=E-TS. E is the sum of the following terms:
     one-electron contribution =    -257.67599242 Ry
     hartree contribution      =     133.81716744 Ry
     xc contribution           =     -17.31480432 Ry
     ewald contribution        =      87.54034490 Ry

     convergence has been achieved in  15 iterations

     Forces acting on atoms (cartesian axes, Ry/au):

     atom    1 type  2   force =    -0.00000000    0.00000000   -0.00044927
     atom    2 type  1   force =    -0.00000000    0.00000000   -0.00050224
     atom    3 type  1   force =     0.00000000   -0.00000000    0.00050856
     atom    4 type  2   force =     0.00000000   -0.00000000    0.00044294
     The non-local contrib.  to forces
     atom    1 type  2   force =     0.00000000   -0.00000000    0.00014094
     atom    2 type  1   force =     0.00000000   -0.00000000    0.00003070
     atom    3 type  1   force =     0.00000000   -0.00000000    0.00112155
     atom    4 type  2   force =    -0.00000000    0.00000000    0.00014061
     The ionic contribution  to forces
     atom    1 type  2   force =    -0.00000001    0.00000000   -7.73381592
     atom    2 type  1   force =     0.00000001   -0.00000000  -12.89796326
     atom    3 type  1   force =     0.00000001   -0.00000000   12.89617109
     atom    4 type  2   force =    -0.00000001    0.00000000    7.73560809
     The local contribution  to forces
     atom    1 type  2   force =    -0.00000000   -0.00000000    7.73312652
     atom    2 type  1   force =     0.00000003   -0.00000002   12.89716390
     atom    3 type  1   force =     0.00000000    0.00000000  -12.89647412
     atom    4 type  2   force =     0.00000000   -0.00000000   -7.73518150
     The core correction contribution to forces
     atom    1 type  2   force =    -0.00000000   -0.00000000   -0.00001905
     atom    2 type  1   force =    -0.00000000    0.00000000    0.00002528
     atom    3 type  1   force =     0.00000000   -0.00000000   -0.00005314
     atom    4 type  2   force =     0.00000000   -0.00000000    0.00000196
     The Hubbard contrib.    to forces
     atom    1 type  2   force =     0.00000000    0.00000000    0.00000000
     atom    2 type  1   force =     0.00000000    0.00000000    0.00000000
     atom    3 type  1   force =     0.00000000    0.00000000    0.00000000
     atom    4 type  2   force =     0.00000000    0.00000000    0.00000000
     The SCF correction term to forces
     atom    1 type  2   force =     0.00000000   -0.00000000    0.00011918
     atom    2 type  1   force =     0.00000000   -0.00000000    0.00024208
     atom    3 type  1   force =    -0.00000000    0.00000000   -0.00025588
     atom    4 type  2   force =     0.00000000   -0.00000000   -0.00012529

     Total force =     0.000953     Total SCF correction =     0.000392
     SCF correction compared to forces is large: reduce conv_thr to get better values


     Computing stress (Cartesian axis) and pressure

          total   stress  (Ry/bohr**3)                   (kbar)     P=        1.21
   0.00000787  -0.00000000   0.00000000            1.16       -0.00        0.00
   0.00000000   0.00000787  -0.00000000            0.00        1.16       -0.00
[...]
           219 MiB given to the printing process from OS
             0 MiB allocation reported by mallinfo(arena+hblkhd)
        249990 MiB available memory on the node where the printing process lives
------------------
     ethr =  6.98E-05,  avg # of iterations =  1.0

     total cpu time spent up to now is       94.2 secs

     total energy              =     -53.63116240 Ry
     estimated scf accuracy    <       0.00585915 Ry

     iteration #  7     ecut=    80.00 Ry     beta= 0.70
     Davidson diagonalization with overlap

---- Real-time Memory Report at c_bands before calling an iterative solver
           219 MiB given to the printing process from OS
             0 MiB allocation reported by mallinfo(arena+hblkhd)
        249988 MiB available memory on the node where the printing process lives
------------------
     ethr =  3.66E-05,  avg # of iterations =  3.3

     total cpu time spent up to now is       94.6 secs

     total energy              =     -53.63364775 Ry
     estimated scf accuracy    <       0.00045849 Ry

     iteration #  8     ecut=    80.00 Ry     beta= 0.70
     Davidson diagonalization with overlap

---- Real-time Memory Report at c_bands before calling an iterative solver
           219 MiB given to the printing process from OS
             0 MiB allocation reported by mallinfo(arena+hblkhd)
        249986 MiB available memory on the node where the printing process lives
------------------
     ethr =  2.87E-06,  avg # of iterations =  2.9

     total cpu time spent up to now is       94.9 secs

     total energy              =     -53.63364630 Ry
     estimated scf accuracy    <       0.00036392 Ry

     iteration #  9     ecut=    80.00 Ry     beta= 0.70
     Davidson diagonalization with overlap

---- Real-time Memory Report at c_bands before calling an iterative solver
           219 MiB given to the printing process from OS
             0 MiB allocation reported by mallinfo(arena+hblkhd)
        249985 MiB available memory on the node where the printing process lives
------------------
     ethr =  2.27E-06,  avg # of iterations =  1.2

     total cpu time spent up to now is       95.1 secs

     total energy              =     -53.63357903 Ry
     estimated scf accuracy    <       0.00016933 Ry

     iteration # 10     ecut=    80.00 Ry     beta= 0.70
     Davidson diagonalization with overlap

---- Real-time Memory Report at c_bands before calling an iterative solver
           219 MiB given to the printing process from OS
             0 MiB allocation reported by mallinfo(arena+hblkhd)
        249973 MiB available memory on the node where the printing process lives
------------------
     ethr =  1.06E-06,  avg # of iterations =  2.3

     total cpu time spent up to now is       95.4 secs

     total energy              =     -53.63361539 Ry
     estimated scf accuracy    <       0.00000209 Ry

     iteration # 11     ecut=    80.00 Ry     beta= 0.70
     Davidson diagonalization with overlap

---- Real-time Memory Report at c_bands before calling an iterative solver
           219 MiB given to the printing process from OS
             0 MiB allocation reported by mallinfo(arena+hblkhd)
        249988 MiB available memory on the node where the printing process lives
------------------
     ethr =  1.31E-08,  avg # of iterations =  7.1

     total cpu time spent up to now is       95.9 secs

     total energy              =     -53.63361713 Ry
     estimated scf accuracy    <       0.00005652 Ry

     iteration # 12     ecut=    80.00 Ry     beta= 0.70
     Davidson diagonalization with overlap

---- Real-time Memory Report at c_bands before calling an iterative solver
           219 MiB given to the printing process from OS
             0 MiB allocation reported by mallinfo(arena+hblkhd)
        249512 MiB available memory on the node where the printing process lives
------------------
     ethr =  1.31E-08,  avg # of iterations =  4.2

     total cpu time spent up to now is       96.3 secs

     total energy              =     -53.63361681 Ry
     estimated scf accuracy    <       0.00000985 Ry

     iteration # 13     ecut=    80.00 Ry     beta= 0.70
     Davidson diagonalization with overlap

---- Real-time Memory Report at c_bands before calling an iterative solver
           219 MiB given to the printing process from OS
             0 MiB allocation reported by mallinfo(arena+hblkhd)
        249986 MiB available memory on the node where the printing process lives
------------------
     ethr =  1.31E-08,  avg # of iterations =  3.7

     total cpu time spent up to now is       96.6 secs

     total energy              =     -53.63361842 Ry
     estimated scf accuracy    <       0.00000029 Ry

     iteration # 14     ecut=    80.00 Ry     beta= 0.70
     Davidson diagonalization with overlap

---- Real-time Memory Report at c_bands before calling an iterative solver
           219 MiB given to the printing process from OS
             0 MiB allocation reported by mallinfo(arena+hblkhd)
        249986 MiB available memory on the node where the printing process lives
------------------
     ethr =  1.81E-09,  avg # of iterations =  2.2

     total cpu time spent up to now is       96.8 secs

     total energy              =     -53.63361833 Ry
     estimated scf accuracy    <       0.00000021 Ry

     iteration # 15     ecut=    80.00 Ry     beta= 0.70
     Davidson diagonalization with overlap

---- Real-time Memory Report at c_bands before calling an iterative solver
           219 MiB given to the printing process from OS
             0 MiB allocation reported by mallinfo(arena+hblkhd)
        249979 MiB available memory on the node where the printing process lives
------------------
     ethr =  1.31E-09,  avg # of iterations =  2.9

     total cpu time spent up to now is       97.1 secs

     total energy              =     -53.63361841 Ry
     estimated scf accuracy    <       0.00000001 Ry

     iteration # 16     ecut=    80.00 Ry     beta= 0.70
     Davidson diagonalization with overlap

---- Real-time Memory Report at c_bands before calling an iterative solver
           219 MiB given to the printing process from OS
             0 MiB allocation reported by mallinfo(arena+hblkhd)
        249980 MiB available memory on the node where the printing process lives
------------------
     ethr =  8.88E-11,  avg # of iterations =  2.8

     total cpu time spent up to now is       97.4 secs

     End of self-consistent calculation

          k = 0.0000 0.0000 0.0000 (  6815 PWs)   bands (ev):

   -18.8735 -18.8310  -6.6733  -6.2268  -2.6151  -2.6151  -2.5956  -2.5956

     occupation numbers 
     1.0000   1.0000   1.0000   1.0000   1.0000   1.0000   1.0000   1.0000

          k = 0.0000 0.0940 0.0000 (  6799 PWs)   bands (ev):

   -18.7404 -18.6985  -6.4923  -6.0509  -3.1708  -3.1512  -2.8719  -2.8523

     occupation numbers 
     1.0000   1.0000   1.0000   1.0000   1.0000   1.0000   1.0000   1.0000

          k = 0.0000 0.1880 0.0000 (  6796 PWs)   bands (ev):

   -18.3484 -18.3083  -5.9576  -5.5325  -4.5728  -4.5520  -3.4977  -3.4779

     occupation numbers 
     1.0000   1.0000   1.0000   1.0000   1.0000   1.0000   1.0000   1.0000

          k = 0.0000 0.2820 0.0000 (  6782 PWs)   bands (ev):

   -17.7245 -17.6876  -6.3509  -6.3293  -5.0952  -4.7006  -4.2240  -4.2041

     occupation numbers 
     1.0000   1.0000   1.0000   1.0000   1.0000   1.0000   1.0000   1.0000

          k = 0.0000 0.3760 0.0000 (  6800 PWs)   bands (ev):

   -16.9373 -16.9051  -8.1203  -8.0969  -4.8485  -4.8284  -3.9829  -3.6420

     occupation numbers 
     1.0000   1.0000   1.0000   1.0000   1.0000   1.0000   1.0000   1.0000

          k = 0.0000 0.4701 0.0000 (  6808 PWs)   bands (ev):

   -16.1628 -16.1369  -9.5367  -9.5113  -5.2583  -5.2382  -2.8215  -2.5812

     occupation numbers 
     1.0000   1.0000   1.0000   1.0000   1.0000   1.0000   1.0000   1.0000

          k =-0.0000-0.5641-0.0000 (  6822 PWs)   bands (ev):

   -15.7974 -15.7761 -10.1229 -10.0968  -5.4002  -5.3800  -2.2042  -2.0883

     occupation numbers 
     1.0000   1.0000   1.0000   1.0000   1.0000   1.0000   1.0000   1.0000

          k = 0.0814 0.1410 0.0000 (  6795 PWs)   bands (ev):

   -18.4777 -18.4370  -6.1343  -5.7035  -4.0827  -4.0627  -3.3800  -3.3606

     occupation numbers 
     1.0000   1.0000   1.0000   1.0000   1.0000   1.0000   1.0000   1.0000

          k = 0.0814 0.2350 0.0000 (  6797 PWs)   bands (ev):

   -17.9684 -17.9303  -5.5684  -5.5469  -5.4257  -5.0245  -4.1673  -4.1476

     occupation numbers 
     1.0000   1.0000   1.0000   1.0000   1.0000   1.0000   1.0000   1.0000

          k = 0.0814 0.3290 0.0000 (  6786 PWs)   bands (ev):

   -17.2565 -17.2222  -7.2716  -7.2497  -4.9124  -4.8925  -4.4400  -4.0734

     occupation numbers 
     1.0000   1.0000   1.0000   1.0000   1.0000   1.0000   1.0000   1.0000

          k = 0.0814 0.4230 0.0000 (  6804 PWs)   bands (ev):

   -16.4519 -16.4230  -8.8531  -8.8291  -5.4628  -5.4426  -3.2725  -2.9792

     occupation numbers 
     1.0000   1.0000   1.0000   1.0000   1.0000   1.0000   1.0000   1.0000

          k = 0.0814 0.5171 0.0000 (  6814 PWs)   bands (ev):

   -15.8293 -15.8068  -9.8922  -9.8666  -5.7514  -5.7310  -2.2821  -2.1208

     occupation numbers 
     1.0000   1.0000   1.0000   1.0000   1.0000   1.0000   1.0000   1.0000

          k = 0.1628 0.2820 0.0000 (  6791 PWs)   bands (ev):

   -17.3670 -17.3320  -6.7695  -6.7497  -5.1810  -5.1616  -4.5968  -4.2220

     occupation numbers 
     1.0000   1.0000   1.0000   1.0000   1.0000   1.0000   1.0000   1.0000

          k = 0.1628 0.3760 0.0000 (  6768 PWs)   bands (ev):

   -16.6159 -16.5854  -8.1163  -8.0953  -6.0452  -6.0250  -3.5226  -3.2043

     occupation numbers 
     1.0000   1.0000   1.0000   1.0000   1.0000   1.0000   1.0000   1.0000

          k = 0.1628 0.4701 0.0000 (  6793 PWs)   bands (ev):

   -15.8906 -15.8659  -9.3005  -9.2769  -6.5654  -6.5444  -2.4145  -2.1963

     occupation numbers 
     1.0000   1.0000   1.0000   1.0000   1.0000   1.0000   1.0000   1.0000

          k = 0.1628 0.5641 0.0000 (  6804 PWs)   bands (ev):

   -15.5559 -15.5352  -9.8048  -9.7799  -6.7366  -6.7153  -1.8343  -1.7336

     occupation numbers 
     1.0000   1.0000   1.0000   1.0000   1.0000   1.0000   1.0000   1.0000

          k = 0.2442 0.4230 0.0000 (  6791 PWs)   bands (ev):

   -15.9199 -15.8944  -8.8400  -8.8200  -7.1274  -7.1071  -2.4739  -2.2352

     occupation numbers 
     1.0000   1.0000   1.0000   1.0000   1.0000   1.0000   1.0000   1.0000

          k = 0.2442 0.5171 0.0000 (  6798 PWs)   bands (ev):

   -15.4132 -15.3923  -9.3535  -9.3311  -7.7351  -7.7135  -1.6235  -1.5079

     occupation numbers 
     1.0000   1.0000   1.0000   1.0000   1.0000   1.0000   1.0000   1.0000

          k = 0.3257 0.5641 0.0000 (  6783 PWs)   bands (ev):

   -15.2204 -15.2009  -9.1351  -9.1169  -8.4150  -8.3963  -1.2584  -1.2365

     occupation numbers 
     1.0000   1.0000   1.0000   1.0000   1.0000   1.0000   1.0000   1.0000

     the Fermi energy is    -0.5121 ev

!    total energy              =     -53.63361841 Ry
     estimated scf accuracy    <          4.1E-09 Ry
     smearing contrib. (-TS)   =       0.00000000 Ry
     internal energy E=F+TS    =     -53.63361841 Ry

     The total energy is F=E-TS. E is the sum of the following terms:
     one-electron contribution =    -263.11251702 Ry
     hartree contribution      =     136.43574234 Ry
     xc contribution           =     -17.31204058 Ry
     ewald contribution        =      90.35519685 Ry

     convergence has been achieved in  16 iterations

     Forces acting on atoms (cartesian axes, Ry/au):

     atom    1 type  2   force =    -0.00000000    0.00000000   -0.00018018
     atom    2 type  1   force =    -0.00000000    0.00000000   -0.00016799
     atom    3 type  1   force =     0.00000000   -0.00000000    0.00017223
     atom    4 type  2   force =     0.00000000   -0.00000000    0.00017594
     The non-local contrib.  to forces
     atom    1 type  2   force =     0.00000000    0.00000000    0.00007375
     atom    2 type  1   force =     0.00000000   -0.00000000    0.00006122
     atom    3 type  1   force =     0.00000000   -0.00000000    0.00052036
     atom    4 type  2   force =     0.00000000    0.00000000    0.00006122
     The ionic contribution  to forces
     atom    1 type  2   force =    -0.00000001    0.00000000   -7.55882106
     atom    2 type  1   force =     0.00000001   -0.00000000  -12.60294920
     atom    3 type  1   force =     0.00000001   -0.00000000   12.60200104
     atom    4 type  2   force =    -0.00000001    0.00000000    7.55976922
     The local contribution  to forces
     atom    1 type  2   force =    -0.00000000   -0.00000000    7.55857608
     atom    2 type  1   force =     0.00000003   -0.00000002   12.60270140
     atom    3 type  1   force =     0.00000000    0.00000000  -12.60231176
     atom    4 type  2   force =     0.00000000   -0.00000000   -7.55965059
     The core correction contribution to forces
     atom    1 type  2   force =    -0.00000000   -0.00000000   -0.00001111
     atom    2 type  1   force =    -0.00000000    0.00000000    0.00001223
     atom    3 type  1   force =     0.00000000   -0.00000000   -0.00002442
     atom    4 type  2   force =     0.00000000   -0.00000000    0.00000227
     The Hubbard contrib.    to forces
     atom    1 type  2   force =     0.00000000    0.00000000    0.00000000
     atom    2 type  1   force =     0.00000000    0.00000000    0.00000000
     atom    3 type  1   force =     0.00000000    0.00000000    0.00000000
     atom    4 type  2   force =     0.00000000    0.00000000    0.00000000
     The SCF correction term to forces
     atom    1 type  2   force =     0.00000000   -0.00000000    0.00000343
     atom    2 type  1   force =    -0.00000000    0.00000000    0.00000763
     atom    3 type  1   force =    -0.00000000    0.00000000   -0.00001174
     atom    4 type  2   force =    -0.00000000    0.00000000   -0.00000492

     Total force =     0.000348     Total SCF correction =     0.000015


     Computing stress (Cartesian axis) and pressure

          total   stress  (Ry/bohr**3)                   (kbar)     P=        0.60
   0.00000457   0.00000000   0.00000000            0.67        0.00        0.00
   0.00000000   0.00000457  -0.00000000            0.00        0.67       -0.00
   0.00000000   0.00000000   0.00000311            0.00        0.00        0.46

     kinetic stress (kbar)   6320.22      0.00      0.00
                                0.00   6320.22      0.00
                                0.00      0.00   6905.32

     local   stress (kbar) -72632.76      0.00      0.00
                                0.00 -72632.76     -0.00
                                0.00     -0.00  73520.52

     nonloc. stress (kbar)  -1040.03     -0.00      0.00
                               -0.00  -1040.03      0.00
                               -0.00      0.00  -1010.56

     hartree stress (kbar)  34599.46     -0.00      0.00
                               -0.00  34599.46      0.00
                                0.00      0.00 -33507.00

     exc-cor stress (kbar)   -628.73     -0.00     -0.00
                               -0.00   -628.73      0.00
                               -0.00      0.00   -675.59

     corecor stress (kbar)   -705.73      0.00      0.00
                                0.00   -705.73     -0.00
                                0.00     -0.00   -692.88

     ewald   stress (kbar)  34088.24     -0.00     -0.00
                               -0.00  34088.24      0.00
                               -0.00      0.00 -44539.35

     hubbard stress (kbar)      0.00      0.00      0.00
                                0.00      0.00      0.00
                                0.00      0.00      0.00

     DFT-D   stress (kbar)      0.00      0.00      0.00
                                0.00      0.00      0.00
                                0.00      0.00      0.00

     XDM     stress (kbar)      0.00      0.00      0.00
                                0.00      0.00      0.00
                                0.00      0.00      0.00

     dft-nl  stress (kbar)      0.00      0.00      0.00
                                0.00      0.00      0.00
                                0.00      0.00      0.00

     TS-vdW  stress (kbar)      0.00      0.00      0.00
                                0.00      0.00      0.00
                                0.00      0.00      0.00

     MDB     stress (kbar)      0.00      0.00      0.00
                                0.00      0.00      0.00
                                0.00      0.00      0.00

     3D-RISM stress (kbar)      0.00      0.00      0.00
                                0.00      0.00      0.00
                                0.00      0.00      0.00


     Writing all to output data dir ./graphene.save/
 
     init_run     :      1.23s CPU      1.74s WALL (       2 calls)
     electrons    :     66.73s CPU     72.80s WALL (      16 calls)
     update_pot   :      6.77s CPU      7.41s WALL (      14 calls)
     forces       :      4.30s CPU      5.63s WALL (      16 calls)
     stress       :      9.32s CPU     10.41s WALL (      16 calls)

     Called by init_run:
     wfcinit      :      0.29s CPU      0.46s WALL (       2 calls)
     wfcinit:atom :      0.00s CPU      0.00s WALL (      20 calls)
     wfcinit:wfcr :      0.27s CPU      0.44s WALL (      20 calls)
     potinit      :      0.29s CPU      0.47s WALL (       2 calls)
     hinit0       :      0.51s CPU      0.60s WALL (       2 calls)

     Called by electrons:
     c_bands      :     55.03s CPU     56.56s WALL (     265 calls)
     sum_band     :      7.65s CPU      8.07s WALL (     265 calls)
     v_of_rho     :      2.92s CPU      7.35s WALL (     281 calls)
     v_h          :      0.26s CPU      0.61s WALL (     281 calls)
     v_xc         :      2.91s CPU      7.62s WALL (     313 calls)
     mix_rho      :      0.61s CPU      0.68s WALL (     265 calls)

     Called by c_bands:
     init_us_2    :      1.49s CPU      1.54s WALL (    5640 calls)
     init_us_2:cp :      1.47s CPU      1.52s WALL (    5640 calls)
     cegterg      :     49.52s CPU     50.45s WALL (    2656 calls)

     Called by sum_band:
     sum_band:wei :      0.02s CPU      0.02s WALL (     265 calls)
     sum_band:loo :      7.09s CPU      7.17s WALL (     265 calls)
     sum_band:buf :      0.10s CPU      0.10s WALL (    2650 calls)
     sum_band:ini :      0.75s CPU      0.76s WALL (    2650 calls)

     Called by *egterg:
     cdiaghg      :      1.05s CPU      1.07s WALL (    9765 calls)
     cegterg:over :      2.71s CPU      2.76s WALL (    7255 calls)
     cegterg:upda :      0.61s CPU      0.62s WALL (    7255 calls)
     cegterg:last :      1.10s CPU      1.12s WALL (    6458 calls)
     h_psi        :     42.93s CPU     43.93s WALL (    9931 calls)
     g_psi        :      0.23s CPU      0.23s WALL (    7255 calls)

     Called by h_psi:
     h_psi:calbec :      3.04s CPU      3.09s WALL (    9931 calls)
     vloc_psi     :     36.37s CPU     37.27s WALL (    9931 calls)
     add_vuspsi   :      3.23s CPU      3.29s WALL (    9931 calls)

     General routines
     calbec       :      3.14s CPU      3.20s WALL (   10731 calls)
     fft          :      2.15s CPU      8.20s WALL (    3208 calls)
     ffts         :      0.12s CPU      0.21s WALL (     265 calls)
     fftw         :     38.17s CPU     39.02s WALL (  151710 calls)
 
     Parallel routines
 
     PWSCF        :   1m28.82s CPU   1m38.81s WALL

 
   This run was terminated on:  12:19:10   8Apr2024            

=------------------------------------------------------------------------------=
   JOB DONE.
=------------------------------------------------------------------------------=
