
     Program PWSCF v.7.2 starts on 16Apr2024 at 11:24:55 

     This program is part of the open-source Quantum ESPRESSO suite
     for quantum simulation of materials; please cite
         "P. Giannozzi et al., J. Phys.:Condens. Matter 21 395502 (2009);
         "P. Giannozzi et al., J. Phys.:Condens. Matter 29 465901 (2017);
         "P. Giannozzi et al., J. Chem. Phys. 152 154105 (2020);
          URL http://www.quantum-espresso.org", 
     in publications or presentations arising from this work. More details at
     http://www.quantum-espresso.org/quote

     Parallel version (MPI & OpenMP), running on       1 processor cores
     Number of MPI processes:                 1
     Threads/MPI process:                     1

     MPI processes distributed on     1 nodes
     0 MiB available memory on the printing compute node when the environment starts

     Waiting for input...
     Reading input from standard input

     Current dimensions of program PWSCF are:
     Max number of different atomic species (ntypx) = 10
     Max number of k-points (npk) =  40000
     Max angular momentum in pseudopotentials (lmaxx) =  4

     Subspace diagonalization in iterative solution of the eigenvalue problem:
     a serial algorithm will be used


     G-vector sticks info
     --------------------
     sticks:   dense  smooth     PW     G-vecs:    dense   smooth      PW
     Sum         121     121     37                 6307     6307    1283

     Using Slab Decomposition



     bravais-lattice index     =            4
     lattice parameter (alat)  =       4.6350  a.u.
     unit-cell volume          =     517.4056 (a.u.)^3
     number of atoms/cell      =            2
     number of atomic types    =            2
     number of electrons       =         8.00
     number of Kohn-Sham states=            8
     kinetic-energy cutoff     =      20.0000  Ry
     charge density cutoff     =      80.0000  Ry
     scf convergence threshold =      1.0E-06
     mixing beta               =       0.7000
     number of iterations used =            8  plain     mixing
     Exchange-correlation= PBE
                           (   1   4   3   4   0   0   0)

     celldm(1)=   4.635000  celldm(2)=   0.000000  celldm(3)=   6.000000
     celldm(4)=   0.000000  celldm(5)=   0.000000  celldm(6)=   0.000000

     crystal axes: (cart. coord. in units of alat)
               a(1) = (   1.000000   0.000000   0.000000 )  
               a(2) = (  -0.500000   0.866025   0.000000 )  
               a(3) = (   0.000000   0.000000   6.000000 )  

     reciprocal axes: (cart. coord. in units 2 pi/alat)
               b(1) = (  1.000000  0.577350 -0.000000 )  
               b(2) = (  0.000000  1.154701  0.000000 )  
               b(3) = (  0.000000 -0.000000  0.166667 )  


     PseudoPot. # 1 for N  read from file:
     ../../../../Pseudo/PBE/N.upf
     MD5 check sum: d34365f73bb0e2ee98afc20ec3e87676
     Pseudo is Norm-conserving + core correction, Zval =  5.0
     Generated using ONCVPSP code by D. R. Hamann
     Using radial grid of 1058 points,  4 beta functions with: 
                l(1) =   0
                l(2) =   0
                l(3) =   1
                l(4) =   1

     PseudoPot. # 2 for B  read from file:
     ../../../../Pseudo/PBE/B.upf
     MD5 check sum: 72f82fc31bc892420d0cab7e25c88ab8
     Pseudo is Norm-conserving + core correction, Zval =  3.0
     Generated using ONCVPSP code by D. R. Hamann
     Using radial grid of 1534 points,  4 beta functions with: 
                l(1) =   0
                l(2) =   0
                l(3) =   1
                l(4) =   1

     atomic species   valence    mass     pseudopotential
        N              5.00    14.00670     N ( 1.00)
        B              3.00    10.80100     B ( 1.00)

     12 Sym. Ops. (no inversion) found


                                    s                        frac. trans.

      isym =  1     identity                                     

 cryst.   s( 1) = (     1          0          0      )
                  (     0          1          0      )
                  (     0          0          1      )

 cart.    s( 1) = (  1.0000000  0.0000000  0.0000000 )
                  (  0.0000000  1.0000000  0.0000000 )
                  (  0.0000000  0.0000000  1.0000000 )


      isym =  2     180 deg rotation - cart. axis [0,1,0]        

 cryst.   s( 2) = (    -1          0          0      )
                  (     1          1          0      )
                  (     0          0         -1      )

 cart.    s( 2) = ( -1.0000000  0.0000000  0.0000000 )
                  (  0.0000000  1.0000000  0.0000000 )
                  (  0.0000000  0.0000000 -1.0000000 )


      isym =  3     120 deg rotation - cryst. axis [0,0,1]       

 cryst.   s( 3) = (     0          1          0      )
                  (    -1         -1          0      )
                  (     0          0          1      )

 cart.    s( 3) = ( -0.5000000 -0.8660254  0.0000000 )
                  (  0.8660254 -0.5000000  0.0000000 )
                  (  0.0000000  0.0000000  1.0000000 )


      isym =  4     120 deg rotation - cryst. axis [0,0,-1]      

 cryst.   s( 4) = (    -1         -1          0      )
                  (     1          0          0      )
                  (     0          0          1      )

 cart.    s( 4) = ( -0.5000000  0.8660254  0.0000000 )
                  ( -0.8660254 -0.5000000  0.0000000 )
                  (  0.0000000  0.0000000  1.0000000 )


      isym =  5     180 deg rotation - cryst. axis [1,-1,0]      

 cryst.   s( 5) = (     0         -1          0      )
                  (    -1          0          0      )
                  (     0          0         -1      )

 cart.    s( 5) = (  0.5000000 -0.8660254  0.0000000 )
                  ( -0.8660254 -0.5000000  0.0000000 )
                  (  0.0000000  0.0000000 -1.0000000 )


      isym =  6     180 deg rotation - cryst. axis [2,1,0]       

 cryst.   s( 6) = (     1          1          0      )
                  (     0         -1          0      )
                  (     0          0         -1      )

 cart.    s( 6) = (  0.5000000  0.8660254  0.0000000 )
                  (  0.8660254 -0.5000000  0.0000000 )
                  (  0.0000000  0.0000000 -1.0000000 )


      isym =  7     inv. 180 deg rotation - cart. axis [0,0,1]   

 cryst.   s( 7) = (     1          0          0      )
                  (     0          1          0      )
                  (     0          0         -1      )

 cart.    s( 7) = (  1.0000000  0.0000000  0.0000000 )
                  (  0.0000000  1.0000000  0.0000000 )
                  (  0.0000000  0.0000000 -1.0000000 )


      isym =  8     inv. 180 deg rotation - cart. axis [1,0,0]   

 cryst.   s( 8) = (    -1          0          0      )
                  (     1          1          0      )
                  (     0          0          1      )

 cart.    s( 8) = ( -1.0000000  0.0000000  0.0000000 )
                  (  0.0000000  1.0000000  0.0000000 )
                  (  0.0000000  0.0000000  1.0000000 )


      isym =  9     inv.  60 deg rotation - cryst. axis [0,0,1]  

 cryst.   s( 9) = (    -1         -1          0      )
                  (     1          0          0      )
                  (     0          0         -1      )

 cart.    s( 9) = ( -0.5000000  0.8660254  0.0000000 )
                  ( -0.8660254 -0.5000000  0.0000000 )
                  (  0.0000000  0.0000000 -1.0000000 )


      isym = 10     inv.  60 deg rotation - cryst. axis [0,0,-1] 

 cryst.   s(10) = (     0          1          0      )
                  (    -1         -1          0      )
                  (     0          0         -1      )

 cart.    s(10) = ( -0.5000000 -0.8660254  0.0000000 )
                  (  0.8660254 -0.5000000  0.0000000 )
                  (  0.0000000  0.0000000 -1.0000000 )


      isym = 11     inv. 180 deg rotation - cryst. axis [0,1,0]  

 cryst.   s(11) = (     1          1          0      )
                  (     0         -1          0      )
                  (     0          0          1      )

 cart.    s(11) = (  0.5000000  0.8660254  0.0000000 )
                  (  0.8660254 -0.5000000  0.0000000 )
                  (  0.0000000  0.0000000  1.0000000 )


      isym = 12     inv. 180 deg rotation - cryst. axis [1,1,0]  

 cryst.   s(12) = (     0         -1          0      )
                  (    -1          0          0      )
                  (     0          0          1      )

 cart.    s(12) = (  0.5000000 -0.8660254  0.0000000 )
                  ( -0.8660254 -0.5000000  0.0000000 )
                  (  0.0000000  0.0000000  1.0000000 )


     point group D_3h (-62m)
     there are  6 classes
     the character table:

       E     2C3   3C2   s_h   2S3   3s_v 
A'_1   1.00  1.00  1.00  1.00  1.00  1.00
A'_2   1.00  1.00 -1.00  1.00  1.00 -1.00
E'     2.00 -1.00  0.00  2.00 -1.00  0.00
A''1   1.00  1.00  1.00 -1.00 -1.00 -1.00
A''2   1.00  1.00 -1.00 -1.00 -1.00  1.00
E''    2.00 -1.00  0.00 -2.00  1.00  0.00

     the symmetry operations in each class and the name of the first element:

     E        1
          identity                                               
     2C3      3    4
          120 deg rotation - cryst. axis [0,0,1]                 
     3C2      2    6    5
          180 deg rotation - cart. axis [0,1,0]                  
     s_h      7
          inv. 180 deg rotation - cart. axis [0,0,1]             
     2S3      9   10
          inv.  60 deg rotation - cryst. axis [0,0,1]            
     3s_v     8   11   12
          inv. 180 deg rotation - cart. axis [1,0,0]             

   Cartesian axes

     site n.     atom                  positions (alat units)
         1           B   tau(   1) = (   0.0000000   0.0000000   0.0000000  )
         2           N   tau(   2) = (  -0.0000000   0.5773503   0.0000000  )

   Crystallographic axes

     site n.     atom                  positions (cryst. coord.)
         1           B   tau(   1) = (  0.0000000  0.0000000  0.0000000  )
         2           N   tau(   2) = (  0.3333333  0.6666667  0.0000000  )

     number of k points=    24
                       cart. coord. in units 2pi/alat
        k(    1) = (   0.0000000   0.0000000   0.0000000), wk =   0.0102041
        k(    2) = (   0.0000000   0.0824786   0.0000000), wk =   0.0612245
        k(    3) = (   0.0000000   0.1649572   0.0000000), wk =   0.0612245
        k(    4) = (   0.0000000   0.2474358   0.0000000), wk =   0.0612245
        k(    5) = (   0.0000000   0.3299144   0.0000000), wk =   0.0612245
        k(    6) = (   0.0000000   0.4123930   0.0000000), wk =   0.0612245
        k(    7) = (   0.0000000   0.4948717   0.0000000), wk =   0.0612245
        k(    8) = (   0.0000000  -0.5773503   0.0000000), wk =   0.0306122
        k(    9) = (   0.0714286   0.1237179   0.0000000), wk =   0.0612245
        k(   10) = (   0.0714286   0.2061965   0.0000000), wk =   0.1224490
        k(   11) = (   0.0714286   0.2886751   0.0000000), wk =   0.1224490
        k(   12) = (   0.0714286   0.3711537   0.0000000), wk =   0.1224490
        k(   13) = (   0.0714286   0.4536324   0.0000000), wk =   0.1224490
        k(   14) = (   0.0714286   0.5361110   0.0000000), wk =   0.1224490
        k(   15) = (   0.1428571   0.2474358   0.0000000), wk =   0.0612245
        k(   16) = (   0.1428571   0.3299144   0.0000000), wk =   0.1224490
        k(   17) = (   0.1428571   0.4123930   0.0000000), wk =   0.1224490
        k(   18) = (   0.1428571   0.4948717   0.0000000), wk =   0.1224490
        k(   19) = (   0.1428571   0.5773503   0.0000000), wk =   0.0612245
        k(   20) = (   0.2142857   0.3711537   0.0000000), wk =   0.0612245
        k(   21) = (   0.2142857   0.4536324   0.0000000), wk =   0.1224490
        k(   22) = (   0.2142857   0.5361110   0.0000000), wk =   0.1224490
        k(   23) = (   0.2857143   0.4948717   0.0000000), wk =   0.0612245
        k(   24) = (   0.2857143   0.5773503   0.0000000), wk =   0.0612245

                       cryst. coord.
        k(    1) = (   0.0000000   0.0000000   0.0000000), wk =   0.0102041
        k(    2) = (   0.0000000   0.0714286   0.0000000), wk =   0.0612245
        k(    3) = (   0.0000000   0.1428571   0.0000000), wk =   0.0612245
        k(    4) = (   0.0000000   0.2142857   0.0000000), wk =   0.0612245
        k(    5) = (   0.0000000   0.2857143   0.0000000), wk =   0.0612245
        k(    6) = (   0.0000000   0.3571429   0.0000000), wk =   0.0612245
        k(    7) = (   0.0000000   0.4285714   0.0000000), wk =   0.0612245
        k(    8) = (   0.0000000  -0.5000000   0.0000000), wk =   0.0306122
        k(    9) = (   0.0714286   0.0714286   0.0000000), wk =   0.0612245
        k(   10) = (   0.0714286   0.1428571   0.0000000), wk =   0.1224490
        k(   11) = (   0.0714286   0.2142857   0.0000000), wk =   0.1224490
        k(   12) = (   0.0714286   0.2857143   0.0000000), wk =   0.1224490
        k(   13) = (   0.0714286   0.3571429   0.0000000), wk =   0.1224490
        k(   14) = (   0.0714286   0.4285714   0.0000000), wk =   0.1224490
        k(   15) = (   0.1428571   0.1428571   0.0000000), wk =   0.0612245
        k(   16) = (   0.1428571   0.2142857   0.0000000), wk =   0.1224490
        k(   17) = (   0.1428571   0.2857143   0.0000000), wk =   0.1224490
        k(   18) = (   0.1428571   0.3571429   0.0000000), wk =   0.1224490
        k(   19) = (   0.1428571   0.4285714   0.0000000), wk =   0.0612245
        k(   20) = (   0.2142857   0.2142857   0.0000000), wk =   0.0612245
        k(   21) = (   0.2142857   0.2857143   0.0000000), wk =   0.1224490
        k(   22) = (   0.2142857   0.3571429   0.0000000), wk =   0.1224490
        k(   23) = (   0.2857143   0.2857143   0.0000000), wk =   0.0612245
        k(   24) = (   0.2857143   0.3571429   0.0000000), wk =   0.0612245

     Dense  grid:     6307 G-vectors     FFT dimensions: (  15,  15,  80)

     Dynamical RAM for                 wfc:       0.10 MB

     Dynamical RAM for     wfc (w. buffer):       2.38 MB

     Dynamical RAM for           str. fact:       0.19 MB

     Dynamical RAM for           local pot:       0.00 MB

     Dynamical RAM for          nlocal pot:       0.19 MB

     Dynamical RAM for                qrad:       0.41 MB

     Dynamical RAM for          rho,v,vnew:       0.70 MB

     Dynamical RAM for               rhoin:       0.23 MB

     Dynamical RAM for            rho*nmix:       1.54 MB

     Dynamical RAM for           G-vectors:       0.41 MB

     Dynamical RAM for          h,s,v(r/c):       0.01 MB

     Dynamical RAM for          <psi|beta>:       0.00 MB

     Dynamical RAM for                 psi:       0.19 MB

     Dynamical RAM for                hpsi:       0.19 MB

     Dynamical RAM for      wfcinit/wfcrot:       0.19 MB

     Estimated static dynamical RAM per process >       5.50 MB

     Estimated max dynamical RAM per process >       7.43 MB

     Check: negative core charge=   -0.000497

     Initial potential from superposition of free atoms

     starting charge       7.9997, renormalised to       8.0000

     negative rho (up, down):  2.216E-02 0.000E+00
     Starting wfcs are    8 randomized atomic wfcs

     total cpu time spent up to now is        0.5 secs

     Self-consistent Calculation

     iteration #  1     ecut=    20.00 Ry     beta= 0.70
     Davidson diagonalization with overlap

---- Real-time Memory Report at c_bands before calling an iterative solver
             0 MiB given to the printing process from OS
             0 MiB allocation reported by mallinfo(arena+hblkhd)
             0 MiB available memory on the node where the printing process lives
------------------
     ethr =  1.00E-02,  avg # of iterations =  8.7

     negative rho (up, down):  6.114E-03 0.000E+00

     total cpu time spent up to now is        0.7 secs

     total energy              =     -25.92240753 Ry
     estimated scf accuracy    <       0.15663976 Ry

     iteration #  2     ecut=    20.00 Ry     beta= 0.70
     Davidson diagonalization with overlap

---- Real-time Memory Report at c_bands before calling an iterative solver
             0 MiB given to the printing process from OS
             0 MiB allocation reported by mallinfo(arena+hblkhd)
             0 MiB available memory on the node where the printing process lives
------------------
     ethr =  1.96E-03,  avg # of iterations =  3.5

     negative rho (up, down):  7.993E-04 0.000E+00

     total cpu time spent up to now is        0.9 secs

     total energy              =     -25.93211727 Ry
     estimated scf accuracy    <       0.00754282 Ry

     iteration #  3     ecut=    20.00 Ry     beta= 0.70
     Davidson diagonalization with overlap

---- Real-time Memory Report at c_bands before calling an iterative solver
             0 MiB given to the printing process from OS
             0 MiB allocation reported by mallinfo(arena+hblkhd)
             0 MiB available memory on the node where the printing process lives
------------------
     ethr =  9.43E-05,  avg # of iterations =  5.8

     negative rho (up, down):  7.510E-05 0.000E+00

     total cpu time spent up to now is        1.0 secs

     total energy              =     -25.93273941 Ry
     estimated scf accuracy    <       0.00096290 Ry

     iteration #  4     ecut=    20.00 Ry     beta= 0.70
     Davidson diagonalization with overlap

---- Real-time Memory Report at c_bands before calling an iterative solver
             0 MiB given to the printing process from OS
             0 MiB allocation reported by mallinfo(arena+hblkhd)
             0 MiB available memory on the node where the printing process lives
------------------
     ethr =  1.20E-05,  avg # of iterations =  4.1

     total cpu time spent up to now is        1.2 secs

     total energy              =     -25.93284741 Ry
     estimated scf accuracy    <       0.00002639 Ry

     iteration #  5     ecut=    20.00 Ry     beta= 0.70
     Davidson diagonalization with overlap

---- Real-time Memory Report at c_bands before calling an iterative solver
             0 MiB given to the printing process from OS
             0 MiB allocation reported by mallinfo(arena+hblkhd)
             0 MiB available memory on the node where the printing process lives
------------------
     c_bands:  1 eigenvalues not converged
     ethr =  3.30E-07,  avg # of iterations =  3.8

     total cpu time spent up to now is        1.3 secs

     total energy              =     -25.93285457 Ry
     estimated scf accuracy    <       0.00000404 Ry

     iteration #  6     ecut=    20.00 Ry     beta= 0.70
     Davidson diagonalization with overlap

---- Real-time Memory Report at c_bands before calling an iterative solver
             0 MiB given to the printing process from OS
             0 MiB allocation reported by mallinfo(arena+hblkhd)
             0 MiB available memory on the node where the printing process lives
------------------
     ethr =  5.05E-08,  avg # of iterations =  2.0

     total cpu time spent up to now is        1.5 secs

     End of self-consistent calculation

          k = 0.0000 0.0000 0.0000 (   801 PWs)   bands (ev):

   -22.6611  -9.1248  -4.5270  -4.5270  -0.6570   0.0378   0.4453   2.5921

     occupation numbers 
     1.0000   1.0000   1.0000   1.0000   0.0000   0.0000   0.0000   0.0000

          k = 0.0000 0.0825 0.0000 (   799 PWs)   bands (ev):

   -22.5564  -8.9937  -4.9928  -4.7278  -0.4824   0.2049   0.6217   2.7530

     occupation numbers 
     1.0000   1.0000   1.0000   1.0000   0.0000   0.0000   0.0000   0.0000

          k = 0.0000 0.1650 0.0000 (   793 PWs)   bands (ev):

   -22.2349  -8.5688  -6.2062  -5.2511   0.0323   0.7070   1.1391   3.2362

     occupation numbers 
     1.0000   1.0000   1.0000   1.0000   0.0000   0.0000   0.0000   0.0000

          k = 0.0000 0.2474 0.0000 (   780 PWs)   bands (ev):

   -21.7400  -7.8457  -7.7611  -5.9127   0.8789   1.5411   1.9820   4.0194

     occupation numbers 
     1.0000   1.0000   1.0000   1.0000   0.0000   0.0000   0.0000   0.0000

          k = 0.0000 0.3299 0.0000 (   766 PWs)   bands (ev):

   -21.0786  -9.4146  -6.9013  -6.6094   2.0577   2.6832   3.1488   4.8742

     occupation numbers 
     1.0000   1.0000   1.0000   1.0000   0.0000   0.0000   0.0000   0.0000

          k = 0.0000 0.4124 0.0000 (   780 PWs)   bands (ev):

   -20.3717 -11.1159  -7.1915  -5.8048   3.5256   3.5597   4.5831   4.6180

     occupation numbers 
     1.0000   1.0000   1.0000   1.0000   0.0000   0.0000   0.0000   0.0000

          k = 0.0000 0.4949 0.0000 (   792 PWs)   bands (ev):

   -19.7252 -12.3895  -7.5918  -4.7507   2.1959   5.3376   6.1828   6.2429

     occupation numbers 
     1.0000   1.0000   1.0000   1.0000   0.0000   0.0000   0.0000   0.0000

          k = 0.0000-0.5774 0.0000 (   782 PWs)   bands (ev):

   -19.4308 -12.8572  -7.6786  -4.1918   1.5310   6.4424   7.6514   7.8825

     occupation numbers 
     1.0000   1.0000   1.0000   1.0000   0.0000   0.0000   0.0000   0.0000

          k = 0.0714 0.1237 0.0000 (   795 PWs)   bands (ev):

   -22.3437  -8.7217  -5.7303  -5.1693  -0.1380   0.5391   0.9686   3.0740

     occupation numbers 
     1.0000   1.0000   1.0000   1.0000   0.0000   0.0000   0.0000   0.0000

          k = 0.0714 0.2062 0.0000 (   792 PWs)   bands (ev):

   -21.9425  -8.1471  -7.0984  -5.8408   0.5424   1.2076   1.6491   3.7105

     occupation numbers 
     1.0000   1.0000   1.0000   1.0000   0.0000   0.0000   0.0000   0.0000

          k = 0.0714 0.2887 0.0000 (   776 PWs)   bands (ev):

   -21.3673  -8.6243  -7.2970  -6.6057   1.5559   2.2008   2.6561   4.5891

     occupation numbers 
     1.0000   1.0000   1.0000   1.0000   0.0000   0.0000   0.0000   0.0000

          k = 0.0714 0.3712 0.0000 (   783 PWs)   bands (ev):

   -20.6797 -10.3095  -7.2867  -6.2818   2.8994   3.4139   3.9826   4.7370

     occupation numbers 
     1.0000   1.0000   1.0000   1.0000   0.0000   0.0000   0.0000   0.0000

          k = 0.0714 0.4536 0.0000 (   779 PWs)   bands (ev):

   -19.9570 -11.7729  -7.7151  -5.1515   2.9107   4.5631   5.3790   5.6019

     occupation numbers 
     1.0000   1.0000   1.0000   1.0000   0.0000   0.0000   0.0000   0.0000

          k = 0.0714 0.5361 0.0000 (   782 PWs)   bands (ev):

   -19.4536 -12.6869  -7.9681  -4.2637   1.7387   6.4178   7.1682   7.3249

     occupation numbers 
     1.0000   1.0000   1.0000   1.0000   0.0000   0.0000   0.0000   0.0000

          k = 0.1429 0.2474 0.0000 (   785 PWs)   bands (ev):

   -21.4728  -8.2102  -7.4405  -6.7892   1.3896   2.0366   2.4941   4.4582

     occupation numbers 
     1.0000   1.0000   1.0000   1.0000   0.0000   0.0000   0.0000   0.0000

          k = 0.1429 0.3299 0.0000 (   784 PWs)   bands (ev):

   -20.8524  -9.6527  -7.6553  -6.5253   2.5710   3.1547   3.6679   5.0119

     occupation numbers 
     1.0000   1.0000   1.0000   1.0000   0.0000   0.0000   0.0000   0.0000

          k = 0.1429 0.4124 0.0000 (   776 PWs)   bands (ev):

   -20.1284 -11.0478  -8.2246  -5.4546   3.5206   4.0841   4.9468   5.1652

     occupation numbers 
     1.0000   1.0000   1.0000   1.0000   0.0000   0.0000   0.0000   0.0000

          k = 0.1429 0.4949 0.0000 (   776 PWs)   bands (ev):

   -19.5018 -12.1660  -8.6470  -4.3996   2.2407   5.9152   6.6495   6.9539

     occupation numbers 
     1.0000   1.0000   1.0000   1.0000   0.0000   0.0000   0.0000   0.0000

          k = 0.1429 0.5774 0.0000 (   776 PWs)   bands (ev):

   -19.2296 -12.6198  -8.7973  -3.8843   1.6183   7.7771   8.1483   8.6043

     occupation numbers 
     1.0000   1.0000   1.0000   1.0000   0.0000   0.0000   0.0000   0.0000

          k = 0.2143 0.3712 0.0000 (   775 PWs)   bands (ev):

   -20.1883 -10.6565  -8.6669  -5.5370   3.7919   3.9228   4.8584   5.0141

     occupation numbers 
     1.0000   1.0000   1.0000   1.0000   0.0000   0.0000   0.0000   0.0000

          k = 0.2143 0.4536 0.0000 (   783 PWs)   bands (ev):

   -19.5504 -11.6067  -9.4241  -4.5111   2.6815   5.6027   6.3051   6.6783

     occupation numbers 
     1.0000   1.0000   1.0000   1.0000   0.0000   0.0000   0.0000   0.0000

          k = 0.2143 0.5361 0.0000 (   780 PWs)   bands (ev):

   -19.1041 -12.2364  -9.7874  -3.6967   1.7733   7.5976   8.1379   8.6332

     occupation numbers 
     1.0000   1.0000   1.0000   1.0000   0.0000   0.0000   0.0000   0.0000

          k = 0.2857 0.4949 0.0000 (   777 PWs)   bands (ev):

   -19.0598 -11.9185 -10.2941  -3.6194   1.9031   7.4454   7.9102   8.5052

     occupation numbers 
     1.0000   1.0000   1.0000   1.0000   0.0000   0.0000   0.0000   0.0000

          k = 0.2857 0.5774 0.0000 (   770 PWs)   bands (ev):

   -18.8503 -11.9881 -10.6215  -3.2193   1.5557   8.4927   9.4924   9.6558

     occupation numbers 
     1.0000   1.0000   1.0000   1.0000   0.0000   0.0000   0.0000   0.0000

     highest occupied, lowest unoccupied level (ev):    -3.2193   -0.6570

!    total energy              =     -25.93285470 Ry
     estimated scf accuracy    <       0.00000014 Ry

     The total energy is the sum of the following terms:
     one-electron contribution =    -156.50731491 Ry
     hartree contribution      =      79.82850960 Ry
     xc contribution           =      -8.54416285 Ry
     ewald contribution        =      59.29011347 Ry

     convergence has been achieved in   6 iterations

     Forces acting on atoms (cartesian axes, Ry/au):

     atom    1 type  2   force =     0.00000000    0.00000000    0.00000000
     atom    2 type  1   force =     0.00000000    0.00000000    0.00000000
     The non-local contrib.  to forces
     atom    1 type  2   force =    -0.00000000    0.00000000    0.00000000
     atom    2 type  1   force =    -0.00000000    0.00000000    0.00000000
     The ionic contribution  to forces
     atom    1 type  2   force =    -0.00000001    0.00000000   -0.00000000
     atom    2 type  1   force =     0.00000001   -0.00000000   -0.00000000
     The local contribution  to forces
     atom    1 type  2   force =    -0.00000000   -0.00000000    0.00000000
     atom    2 type  1   force =     0.00000002   -0.00000001    0.00000000
     The core correction contribution to forces
     atom    1 type  2   force =     0.00000000   -0.00000000    0.00000000
     atom    2 type  1   force =    -0.00000000    0.00000000    0.00000000
     The Hubbard contrib.    to forces
     atom    1 type  2   force =     0.00000000    0.00000000    0.00000000
     atom    2 type  1   force =     0.00000000    0.00000000    0.00000000
     The SCF correction term to forces
     atom    1 type  2   force =     0.00000000   -0.00000000   -0.00000000
     atom    2 type  1   force =    -0.00000000    0.00000000    0.00000000

     Total force =     0.000000     Total SCF correction =     0.000000


     Computing stress (Cartesian axis) and pressure

          total   stress  (Ry/bohr**3)                   (kbar)     P=     -204.03
  -0.00100671  -0.00000000  -0.00000000         -148.09       -0.00       -0.00
  -0.00000000  -0.00100671   0.00000000           -0.00     -148.09        0.00
   0.00000000   0.00000000  -0.00214742            0.00        0.00     -315.90

     kinetic stress (kbar)   3051.78      0.00      0.00
                                0.00   3051.78      0.00
                                0.00      0.00   3278.02

     local   stress (kbar) -47131.37      0.00     -0.00
                                0.00 -47131.37      0.00
                               -0.00      0.00  47604.69

     nonloc. stress (kbar)   -284.64      0.00     -0.00
                                0.00   -284.64     -0.00
                               -0.00     -0.00   -251.61

     hartree stress (kbar)  22232.85      0.00      0.00
                                0.00  22232.85     -0.00
                                0.00     -0.00 -21769.42

     exc-cor stress (kbar)   -333.86     -0.00      0.00
                               -0.00   -333.86      0.00
                                0.00      0.00   -356.55

     corecor stress (kbar)   -352.50      0.00      0.00
                                0.00   -352.50      0.00
                                0.00      0.00   -338.67

     ewald   stress (kbar)  22669.65     -0.00     -0.00
                               -0.00  22669.65     -0.00
                               -0.00     -0.00 -28482.36

     hubbard stress (kbar)      0.00      0.00      0.00
                                0.00      0.00      0.00
                                0.00      0.00      0.00

     DFT-D   stress (kbar)      0.00      0.00      0.00
                                0.00      0.00      0.00
                                0.00      0.00      0.00

     XDM     stress (kbar)      0.00      0.00      0.00
                                0.00      0.00      0.00
                                0.00      0.00      0.00

     dft-nl  stress (kbar)      0.00      0.00      0.00
                                0.00      0.00      0.00
                                0.00      0.00      0.00

     TS-vdW  stress (kbar)      0.00      0.00      0.00
                                0.00      0.00      0.00
                                0.00      0.00      0.00

     MDB     stress (kbar)      0.00      0.00      0.00
                                0.00      0.00      0.00
                                0.00      0.00      0.00

     3D-RISM stress (kbar)      0.00      0.00      0.00
                                0.00      0.00      0.00
                                0.00      0.00      0.00


     Writing all to output data dir ./tmp/hBN_1l_PBE.save/

     init_run     :      0.45s CPU      0.45s WALL (       1 calls)
     electrons    :      1.11s CPU      0.96s WALL (       1 calls)
     forces       :      0.03s CPU      0.03s WALL (       1 calls)
     stress       :      0.12s CPU      0.12s WALL (       1 calls)

     Called by init_run:
     wfcinit      :      0.17s CPU      0.17s WALL (       1 calls)
     wfcinit:atom :      0.00s CPU      0.00s WALL (      24 calls)
     wfcinit:wfcr :      0.16s CPU      0.16s WALL (      24 calls)
     potinit      :      0.01s CPU      0.01s WALL (       1 calls)
     hinit0       :      0.27s CPU      0.27s WALL (       1 calls)

     Called by electrons:
     c_bands      :      0.99s CPU      0.83s WALL (       6 calls)
     sum_band     :      0.08s CPU      0.09s WALL (       6 calls)
     v_of_rho     :      0.03s CPU      0.04s WALL (       7 calls)
     v_h          :      0.00s CPU      0.00s WALL (       7 calls)
     v_xc         :      0.04s CPU      0.05s WALL (       9 calls)
     mix_rho      :      0.00s CPU      0.01s WALL (       6 calls)

     Called by c_bands:
     init_us_2    :      0.04s CPU      0.04s WALL (     360 calls)
     init_us_2:cp :      0.04s CPU      0.04s WALL (     360 calls)
     cegterg      :      0.95s CPU      0.79s WALL (     144 calls)

     Called by sum_band:
     sum_band:wei :      0.00s CPU      0.00s WALL (       6 calls)
     sum_band:loo :      0.08s CPU      0.08s WALL (       6 calls)
     sum_band:buf :      0.00s CPU      0.00s WALL (     144 calls)
     sum_band:ini :      0.01s CPU      0.02s WALL (     144 calls)

     Called by *egterg:
     cdiaghg      :      0.06s CPU      0.06s WALL (     812 calls)
     cegterg:over :      0.05s CPU      0.06s WALL (     668 calls)
     cegterg:upda :      0.12s CPU      0.06s WALL (     668 calls)
     cegterg:last :      0.09s CPU      0.04s WALL (     375 calls)
     h_psi        :      0.75s CPU      0.69s WALL (     836 calls)
     g_psi        :      0.01s CPU      0.01s WALL (     668 calls)

     Called by h_psi:
     h_psi:calbec :      0.04s CPU      0.04s WALL (     836 calls)
     vloc_psi     :      0.57s CPU      0.59s WALL (     836 calls)
     add_vuspsi   :      0.13s CPU      0.05s WALL (     836 calls)

     General routines
     calbec       :      0.04s CPU      0.04s WALL (     956 calls)
     fft          :      0.24s CPU      0.24s WALL (      94 calls)
     ffts         :      0.00s CPU      0.00s WALL (       6 calls)
     fftw         :      0.51s CPU      0.52s WALL (    8656 calls)

     Parallel routines

     PWSCF        :      1.76s CPU      1.63s WALL


   This run was terminated on:  11:24:56  16Apr2024            

=------------------------------------------------------------------------------=
   JOB DONE.
=------------------------------------------------------------------------------=
