
     Program PROJWFC v.6.7MaX starts on 14Feb2024 at 17:54:20 

     This program is part of the open-source Quantum ESPRESSO suite
     for quantum simulation of materials; please cite
         "P. Giannozzi et al., J. Phys.:Condens. Matter 21 395502 (2009);
         "P. Giannozzi et al., J. Phys.:Condens. Matter 29 465901 (2017);
          URL http://www.quantum-espresso.org", 
     in publications or presentations arising from this work. More details at
     http://www.quantum-espresso.org/quote

     Parallel version (MPI), running on     1 processors

     MPI processes distributed on     1 nodes

     Reading xml data from directory:

     ./tmp/hBN.save/
     Message from routine read_pp_mesh:
     mesh size missing, using the one in header
     Message from routine read_pp_mesh:
     mesh size missing, using the one in header

     IMPORTANT: XC functional enforced from input :
     Exchange-correlation= PBE
                           (   1   4   3   4   0   0   0)
     Any further DFT definition will be discarded
     Please, verify this is what you really want


     G-vector sticks info
     --------------------
     sticks:   dense  smooth     PW     G-vecs:    dense   smooth      PW
     Sum         367     367    121                34633    34633    5933


     Gaussian broadening (default values): ngauss,degauss=   0    0.000735


     Calling projwave .... 

  Problem Sizes 
  natomwfc =            8
  nbnd     =            8
  nkstot   =           30
  npwx     =         4358
  nkb      =           16


     Atomic states used for projection
     (read from pseudopotential files):

     state #   1: atom   1 (B  ), wfc  1 (l=0 m= 1)
     state #   2: atom   1 (B  ), wfc  2 (l=1 m= 1)
     state #   3: atom   1 (B  ), wfc  2 (l=1 m= 2)
     state #   4: atom   1 (B  ), wfc  2 (l=1 m= 3)
     state #   5: atom   2 (N  ), wfc  1 (l=0 m= 1)
     state #   6: atom   2 (N  ), wfc  2 (l=1 m= 1)
     state #   7: atom   2 (N  ), wfc  2 (l=1 m= 2)
     state #   8: atom   2 (N  ), wfc  2 (l=1 m= 3)

 k =   0.0000000000  0.0000000000  0.0000000000
==== e(   1) =   -21.13808 eV ==== 
     psi = 0.563*[#   5]+0.429*[#   1]
    |psi|^2 = 0.992
==== e(   2) =    -8.72367 eV ==== 
     psi = 0.560*[#   6]+0.400*[#   2]
    |psi|^2 = 0.960
==== e(   3) =    -4.82603 eV ==== 
     psi = 0.391*[#   7]+0.391*[#   8]+0.108*[#   3]+0.108*[#   4]
    |psi|^2 = 0.996
==== e(   4) =    -4.82603 eV ==== 
     psi = 0.391*[#   7]+0.391*[#   8]+0.108*[#   3]+0.108*[#   4]
    |psi|^2 = 0.996
==== e(   5) =     1.21042 eV ==== 
     psi = 0.163*[#   1]+0.083*[#   5]
    |psi|^2 = 0.246
==== e(   6) =     2.20347 eV ==== 
     psi = 0.183*[#   2]+0.043*[#   6]
    |psi|^2 = 0.227
==== e(   7) =     2.63180 eV ==== 
     psi = 0.036*[#   1]+0.020*[#   5]
    |psi|^2 = 0.056
==== e(   8) =     4.47896 eV ==== 
     psi = 0.125*[#   2]+0.042*[#   6]
    |psi|^2 = 0.167

 k =   0.0000000000  0.0721687836  0.0000000000
==== e(   1) =   -21.06285 eV ==== 
     psi = 0.554*[#   5]+0.402*[#   1]+0.015*[#   3]+0.015*[#   4]+0.003*[#   7]
          +0.003*[#   8]
    |psi|^2 = 0.991
==== e(   2) =    -8.62247 eV ==== 
     psi = 0.562*[#   6]+0.399*[#   2]
    |psi|^2 = 0.962
==== e(   3) =    -5.14694 eV ==== 
     psi = 0.386*[#   7]+0.386*[#   8]+0.100*[#   3]+0.100*[#   4]+0.016*[#   1]
          +0.009*[#   5]
    |psi|^2 = 0.996
==== e(   4) =    -4.97599 eV ==== 
     psi = 0.386*[#   7]+0.386*[#   8]+0.112*[#   3]+0.112*[#   4]
    |psi|^2 = 0.997
==== e(   5) =     1.34035 eV ==== 
     psi = 0.137*[#   1]+0.084*[#   5]+0.016*[#   3]+0.016*[#   4]
    |psi|^2 = 0.254
==== e(   6) =     2.32177 eV ==== 
     psi = 0.182*[#   2]+0.043*[#   6]
    |psi|^2 = 0.225
==== e(   7) =     2.75809 eV ==== 
     psi = 0.032*[#   1]+0.020*[#   5]+0.002*[#   3]+0.002*[#   4]
    |psi|^2 = 0.057
==== e(   8) =     4.58998 eV ==== 
     psi = 0.126*[#   2]+0.044*[#   6]
    |psi|^2 = 0.170

 k =   0.0000000000  0.1443375673  0.0000000000
==== e(   1) =   -20.83902 eV ==== 
     psi = 0.534*[#   5]+0.338*[#   1]+0.050*[#   3]+0.050*[#   4]+0.010*[#   7]
          +0.010*[#   8]
    |psi|^2 = 0.991
==== e(   2) =    -8.32082 eV ==== 
     psi = 0.569*[#   6]+0.397*[#   2]
    |psi|^2 = 0.966
==== e(   3) =    -6.01312 eV ==== 
     psi = 0.373*[#   7]+0.373*[#   8]+0.084*[#   3]+0.084*[#   4]+0.051*[#   1]
          +0.029*[#   5]
    |psi|^2 = 0.994
==== e(   4) =    -5.37081 eV ==== 
     psi = 0.376*[#   7]+0.376*[#   8]+0.123*[#   3]+0.123*[#   4]
    |psi|^2 = 0.997
==== e(   5) =     1.72000 eV ==== 
     psi = 0.094*[#   1]+0.087*[#   5]+0.043*[#   3]+0.043*[#   4]
    |psi|^2 = 0.268
==== e(   6) =     2.67352 eV ==== 
     psi = 0.179*[#   2]+0.044*[#   6]
    |psi|^2 = 0.223
==== e(   7) =     3.13399 eV ==== 
     psi = 0.024*[#   1]+0.020*[#   5]+0.007*[#   3]+0.007*[#   4]
    |psi|^2 = 0.058
==== e(   8) =     4.91257 eV ==== 
     psi = 0.135*[#   2]+0.052*[#   6]
    |psi|^2 = 0.188

 k =   0.0000000000  0.2165063509  0.0000000000
==== e(   1) =   -20.47448 eV ==== 
     psi = 0.517*[#   5]+0.267*[#   1]+0.086*[#   3]+0.086*[#   4]+0.017*[#   7]
          +0.017*[#   8]
    |psi|^2 = 0.990
==== e(   2) =    -7.82761 eV ==== 
     psi = 0.584*[#   6]+0.390*[#   2]
    |psi|^2 = 0.974
==== e(   3) =    -7.22196 eV ==== 
     psi = 0.357*[#   7]+0.357*[#   8]+0.084*[#   1]+0.072*[#   3]+0.072*[#   4]
          +0.050*[#   5]
    |psi|^2 = 0.993
==== e(   4) =    -5.89964 eV ==== 
     psi = 0.364*[#   7]+0.364*[#   8]+0.135*[#   3]+0.135*[#   4]
    |psi|^2 = 0.997
==== e(   5) =     2.33357 eV ==== 
     psi = 0.089*[#   5]+0.068*[#   1]+0.059*[#   3]+0.059*[#   4]+0.001*[#   7]
          +0.001*[#   8]
    |psi|^2 = 0.277
==== e(   6) =     3.24212 eV ==== 
     psi = 0.187*[#   2]+0.051*[#   6]
    |psi|^2 = 0.238
==== e(   7) =     3.75417 eV ==== 
     psi = 0.020*[#   5]+0.020*[#   1]+0.009*[#   3]+0.009*[#   4]
    |psi|^2 = 0.058
==== e(   8) =     5.37959 eV ==== 
     psi = 0.178*[#   2]+0.087*[#   6]
    |psi|^2 = 0.264

 k =   0.0000000000  0.2886751346  0.0000000000
==== e(   1) =   -19.98445 eV ==== 
     psi = 0.508*[#   5]+0.203*[#   1]+0.116*[#   3]+0.116*[#   4]+0.022*[#   7]
          +0.022*[#   8]
    |psi|^2 = 0.989
==== e(   2) =    -8.57980 eV ==== 
     psi = 0.343*[#   7]+0.343*[#   8]+0.114*[#   1]+0.064*[#   5]+0.064*[#   3]
          +0.064*[#   4]
    |psi|^2 = 0.992
==== e(   3) =    -7.15952 eV ==== 
     psi = 0.611*[#   6]+0.372*[#   2]
    |psi|^2 = 0.983
==== e(   4) =    -6.44857 eV ==== 
     psi = 0.353*[#   7]+0.353*[#   8]+0.146*[#   3]+0.146*[#   4]
    |psi|^2 = 0.997
==== e(   5) =     3.16965 eV ==== 
     psi = 0.090*[#   5]+0.065*[#   1]+0.061*[#   3]+0.061*[#   4]+0.002*[#   7]
          +0.002*[#   8]
    |psi|^2 = 0.280
==== e(   6) =     3.93119 eV ==== 
     psi = 0.277*[#   2]+0.099*[#   6]
    |psi|^2 = 0.376
==== e(   7) =     4.61311 eV ==== 
     psi = 0.021*[#   1]+0.020*[#   5]+0.009*[#   3]+0.009*[#   4]
    |psi|^2 = 0.060
==== e(   8) =     5.58312 eV ==== 
     psi = 0.277*[#   2]+0.187*[#   6]
    |psi|^2 = 0.464

 k =   0.0000000000  0.3608439182  0.0000000000
==== e(   1) =   -19.40041 eV ==== 
     psi = 0.514*[#   5]+0.149*[#   1]+0.139*[#   3]+0.139*[#   4]+0.024*[#   7]
          +0.024*[#   8]
    |psi|^2 = 0.988
==== e(   2) =    -9.93366 eV ==== 
     psi = 0.334*[#   7]+0.334*[#   8]+0.143*[#   1]+0.066*[#   5]+0.058*[#   3]
          +0.058*[#   4]
    |psi|^2 = 0.992
==== e(   3) =    -6.93810 eV ==== 
     psi = 0.345*[#   7]+0.345*[#   8]+0.154*[#   3]+0.154*[#   4]
    |psi|^2 = 0.997
==== e(   4) =    -6.35298 eV ==== 
     psi = 0.655*[#   6]+0.336*[#   2]
    |psi|^2 = 0.991
==== e(   5) =     3.92164 eV ==== 
     psi = 0.601*[#   2]+0.277*[#   6]
    |psi|^2 = 0.878
==== e(   6) =     4.20692 eV ==== 
     psi = 0.093*[#   5]+0.087*[#   1]+0.057*[#   3]+0.057*[#   4]+0.003*[#   7]
          +0.003*[#   8]
    |psi|^2 = 0.300
==== e(   7) =     5.68065 eV ==== 
     psi = 0.038*[#   6]+0.035*[#   2]
    |psi|^2 = 0.072
==== e(   8) =     5.69413 eV ==== 
     psi = 0.033*[#   1]+0.025*[#   5]+0.010*[#   3]+0.010*[#   4]
    |psi|^2 = 0.081

 k =   0.0000000000  0.4330127019  0.0000000000
==== e(   1) =   -18.78490 eV ==== 
     psi = 0.534*[#   5]+0.159*[#   3]+0.159*[#   4]+0.100*[#   1]+0.019*[#   7]
          +0.019*[#   8]
    |psi|^2 = 0.989
==== e(   2) =   -11.14298 eV ==== 
     psi = 0.333*[#   7]+0.333*[#   8]+0.173*[#   1]+0.052*[#   5]+0.050*[#   3]
          +0.050*[#   4]
    |psi|^2 = 0.992
==== e(   3) =    -7.31730 eV ==== 
     psi = 0.339*[#   7]+0.339*[#   8]+0.159*[#   3]+0.159*[#   4]
    |psi|^2 = 0.997
==== e(   4) =    -5.48137 eV ==== 
     psi = 0.722*[#   6]+0.273*[#   2]
    |psi|^2 = 0.995
==== e(   5) =     2.83383 eV ==== 
     psi = 0.691*[#   2]+0.251*[#   6]
    |psi|^2 = 0.942
==== e(   6) =     5.35474 eV ==== 
     psi = 0.165*[#   1]+0.126*[#   5]+0.062*[#   3]+0.062*[#   4]+0.004*[#   7]
          +0.004*[#   8]
    |psi|^2 = 0.423
==== e(   7) =     6.79672 eV ==== 
     psi = 0.005*[#   2]+0.004*[#   6]
    |psi|^2 = 0.008
==== e(   8) =     6.83269 eV ==== 
     psi = 0.113*[#   1]+0.084*[#   5]+0.043*[#   3]+0.043*[#   4]+0.005*[#   7]
          +0.005*[#   8]
    |psi|^2 = 0.293

 k =   0.0000000000  0.5051814855  0.0000000000
==== e(   1) =   -18.26569 eV ==== 
     psi = 0.565*[#   5]+0.175*[#   3]+0.175*[#   4]+0.060*[#   1]+0.007*[#   7]
          +0.007*[#   8]
    |psi|^2 = 0.990
==== e(   2) =   -12.03401 eV ==== 
     psi = 0.341*[#   7]+0.341*[#   8]+0.202*[#   1]+0.041*[#   3]+0.041*[#   4]
          +0.025*[#   5]
    |psi|^2 = 0.991
==== e(   3) =    -7.55514 eV ==== 
     psi = 0.336*[#   7]+0.336*[#   8]+0.162*[#   3]+0.162*[#   4]
    |psi|^2 = 0.996
==== e(   4) =    -4.71413 eV ==== 
     psi = 0.808*[#   6]+0.187*[#   2]
    |psi|^2 = 0.994
==== e(   5) =     1.79653 eV ==== 
     psi = 0.776*[#   2]+0.168*[#   6]
    |psi|^2 = 0.944
==== e(   6) =     6.17622 eV ==== 
     psi = 0.332*[#   1]+0.232*[#   5]+0.098*[#   3]+0.098*[#   4]+0.008*[#   7]
          +0.008*[#   8]
    |psi|^2 = 0.776
==== e(   7) =     7.72642 eV ==== 
     psi = 0.051*[#   5]+0.048*[#   1]+0.043*[#   3]+0.043*[#   4]+0.007*[#   7]
          +0.007*[#   8]
    |psi|^2 = 0.200
==== e(   8) =     8.28405 eV ==== 
     psi = 0.005*[#   2]+0.002*[#   6]
    |psi|^2 = 0.007

 k =   0.0000000000 -0.5773502692  0.0000000000
==== e(   1) =   -18.04924 eV ==== 
     psi = 0.584*[#   5]+0.182*[#   3]+0.182*[#   4]+0.041*[#   1]
    |psi|^2 = 0.990
==== e(   2) =   -12.37597 eV ==== 
     psi = 0.347*[#   7]+0.347*[#   8]+0.217*[#   1]+0.036*[#   3]+0.036*[#   4]
          +0.008*[#   5]
    |psi|^2 = 0.991
==== e(   3) =    -7.63558 eV ==== 
     psi = 0.335*[#   7]+0.335*[#   8]+0.163*[#   3]+0.163*[#   4]
    |psi|^2 = 0.996
==== e(   4) =    -4.37878 eV ==== 
     psi = 0.859*[#   6]+0.135*[#   2]
    |psi|^2 = 0.993
==== e(   5) =     1.35850 eV ==== 
     psi = 0.828*[#   2]+0.118*[#   6]
    |psi|^2 = 0.946
==== e(   6) =     6.35611 eV ==== 
     psi = 0.374*[#   1]+0.266*[#   5]+0.112*[#   3]+0.112*[#   4]+0.009*[#   7]
          +0.009*[#   8]
    |psi|^2 = 0.882
==== e(   7) =     9.01568 eV ==== 
     psi = 0.043*[#   3]+0.043*[#   4]+0.041*[#   1]+0.021*[#   5]+0.012*[#   7]
          +0.012*[#   8]
    |psi|^2 = 0.174
==== e(   8) =     9.45420 eV ==== 
     psi = 0.007*[#   5]+0.003*[#   1]
    |psi|^2 = 0.011

 k =   0.0625000000  0.1082531755  0.0000000000
==== e(   1) =   -20.91332 eV ==== 
     psi = 0.540*[#   5]+0.357*[#   1]+0.039*[#   3]+0.039*[#   4]+0.008*[#   7]
          +0.008*[#   8]
    |psi|^2 = 0.991
==== e(   2) =    -8.42120 eV ==== 
     psi = 0.567*[#   6]+0.398*[#   2]
    |psi|^2 = 0.965
==== e(   3) =    -5.71618 eV ==== 
     psi = 0.377*[#   7]+0.377*[#   8]+0.091*[#   3]+0.091*[#   4]+0.036*[#   1]
          +0.023*[#   5]
    |psi|^2 = 0.995
==== e(   4) =    -5.27283 eV ==== 
     psi = 0.378*[#   7]+0.378*[#   8]+0.117*[#   3]+0.117*[#   4]+0.005*[#   1]
          
    |psi|^2 = 0.996
==== e(   5) =     1.59523 eV ==== 
     psi = 0.104*[#   1]+0.086*[#   5]+0.037*[#   3]+0.037*[#   4]
    |psi|^2 = 0.265
==== e(   6) =     2.55686 eV ==== 
     psi = 0.179*[#   2]+0.043*[#   6]
    |psi|^2 = 0.223
==== e(   7) =     3.00929 eV ==== 
     psi = 0.026*[#   1]+0.020*[#   5]+0.006*[#   3]+0.006*[#   4]
    |psi|^2 = 0.058
==== e(   8) =     4.80715 eV ==== 
     psi = 0.131*[#   2]+0.049*[#   6]
    |psi|^2 = 0.180

 k =   0.0625000000  0.1804219591  0.0000000000
==== e(   1) =   -20.61889 eV ==== 
     psi = 0.522*[#   5]+0.292*[#   1]+0.074*[#   3]+0.074*[#   4]+0.015*[#   7]
          +0.015*[#   8]
    |psi|^2 = 0.990
==== e(   2) =    -8.02330 eV ==== 
     psi = 0.578*[#   6]+0.393*[#   2]
    |psi|^2 = 0.971
==== e(   3) =    -6.70493 eV ==== 
     psi = 0.363*[#   7]+0.363*[#   8]+0.081*[#   3]+0.081*[#   4]+0.063*[#   1]
          +0.043*[#   5]
    |psi|^2 = 0.995
==== e(   4) =    -5.78395 eV ==== 
     psi = 0.366*[#   7]+0.366*[#   8]+0.124*[#   3]+0.124*[#   4]+0.013*[#   1]
          
    |psi|^2 = 0.995
==== e(   5) =     2.09286 eV ==== 
     psi = 0.088*[#   5]+0.073*[#   1]+0.056*[#   3]+0.056*[#   4]+0.001*[#   7]
          +0.001*[#   8]
    |psi|^2 = 0.274
==== e(   6) =     3.01849 eV ==== 
     psi = 0.181*[#   2]+0.047*[#   6]
    |psi|^2 = 0.228
==== e(   7) =     3.50801 eV ==== 
     psi = 0.020*[#   1]+0.020*[#   5]+0.009*[#   3]+0.009*[#   4]
    |psi|^2 = 0.058
==== e(   8) =     5.20952 eV ==== 
     psi = 0.155*[#   2]+0.068*[#   6]
    |psi|^2 = 0.223

 k =   0.0625000000  0.2525907428  0.0000000000
==== e(   1) =   -20.19074 eV ==== 
     psi = 0.510*[#   5]+0.227*[#   1]+0.105*[#   3]+0.105*[#   4]+0.021*[#   7]
          +0.021*[#   8]
    |psi|^2 = 0.989
==== e(   2) =    -7.94720 eV ==== 
     psi = 0.348*[#   7]+0.348*[#   8]+0.091*[#   1]+0.073*[#   3]+0.073*[#   4]
          +0.060*[#   5]
    |psi|^2 = 0.994
==== e(   3) =    -7.44169 eV ==== 
     psi = 0.599*[#   6]+0.381*[#   2]
    |psi|^2 = 0.979
==== e(   4) =    -6.36362 eV ==== 
     psi = 0.355*[#   7]+0.355*[#   8]+0.134*[#   3]+0.134*[#   4]+0.016*[#   1]
          +0.001*[#   5]
    |psi|^2 = 0.995
==== e(   5) =     2.82108 eV ==== 
     psi = 0.088*[#   5]+0.062*[#   3]+0.062*[#   4]+0.061*[#   1]+0.002*[#   7]
          +0.002*[#   8]
    |psi|^2 = 0.276
==== e(   6) =     3.66533 eV ==== 
     psi = 0.218*[#   2]+0.068*[#   6]
    |psi|^2 = 0.285
==== e(   7) =     4.24963 eV ==== 
     psi = 0.019*[#   5]+0.019*[#   1]+0.009*[#   3]+0.009*[#   4]
    |psi|^2 = 0.058
==== e(   8) =     5.60074 eV ==== 
     psi = 0.249*[#   2]+0.148*[#   6]
    |psi|^2 = 0.397

 k =   0.0625000000  0.3247595264  0.0000000000
==== e(   1) =   -19.65117 eV ==== 
     psi = 0.509*[#   5]+0.170*[#   1]+0.130*[#   3]+0.130*[#   4]+0.024*[#   7]
          +0.024*[#   8]
    |psi|^2 = 0.989
==== e(   2) =    -9.27825 eV ==== 
     psi = 0.336*[#   7]+0.336*[#   8]+0.120*[#   1]+0.068*[#   5]+0.066*[#   3]
          +0.066*[#   4]
    |psi|^2 = 0.993
==== e(   3) =    -6.91024 eV ==== 
     psi = 0.345*[#   7]+0.345*[#   8]+0.143*[#   3]+0.143*[#   4]+0.017*[#   1]
          +0.002*[#   5]
    |psi|^2 = 0.996
==== e(   4) =    -6.70148 eV ==== 
     psi = 0.634*[#   6]+0.354*[#   2]
    |psi|^2 = 0.988
==== e(   5) =     3.76742 eV ==== 
     psi = 0.086*[#   5]+0.068*[#   1]+0.059*[#   3]+0.059*[#   4]+0.003*[#   7]
          +0.003*[#   8]
    |psi|^2 = 0.278
==== e(   6) =     4.14725 eV ==== 
     psi = 0.473*[#   2]+0.208*[#   6]
    |psi|^2 = 0.680
==== e(   7) =     5.22728 eV ==== 
     psi = 0.022*[#   1]+0.020*[#   5]+0.009*[#   3]+0.009*[#   4]
    |psi|^2 = 0.062
==== e(   8) =     5.51114 eV ==== 
     psi = 0.144*[#   2]+0.117*[#   6]
    |psi|^2 = 0.261

 k =   0.0625000000  0.3969283101  0.0000000000
==== e(   1) =   -19.04405 eV ==== 
     psi = 0.522*[#   5]+0.151*[#   3]+0.151*[#   4]+0.120*[#   1]+0.022*[#   7]
          +0.022*[#   8]
    |psi|^2 = 0.989
==== e(   2) =   -10.55006 eV ==== 
     psi = 0.331*[#   7]+0.331*[#   8]+0.150*[#   1]+0.061*[#   5]+0.060*[#   3]
          +0.060*[#   4]
    |psi|^2 = 0.993
==== e(   3) =    -7.35993 eV ==== 
     psi = 0.338*[#   7]+0.338*[#   8]+0.151*[#   3]+0.151*[#   4]+0.016*[#   1]
          +0.002*[#   5]
    |psi|^2 = 0.996
==== e(   4) =    -5.85288 eV ==== 
     psi = 0.689*[#   6]+0.304*[#   2]
    |psi|^2 = 0.994
==== e(   5) =     3.39680 eV ==== 
     psi = 0.661*[#   2]+0.279*[#   6]
    |psi|^2 = 0.940
==== e(   6) =     4.89834 eV ==== 
     psi = 0.103*[#   1]+0.093*[#   5]+0.055*[#   3]+0.055*[#   4]+0.004*[#   7]
          +0.004*[#   8]
    |psi|^2 = 0.314
==== e(   7) =     6.24635 eV ==== 
     psi = 0.009*[#   6]+0.007*[#   2]
    |psi|^2 = 0.015
==== e(   8) =     6.40868 eV ==== 
     psi = 0.045*[#   1]+0.031*[#   5]+0.013*[#   3]+0.013*[#   4]+0.002*[#   7]
          +0.002*[#   8]
    |psi|^2 = 0.107

 k =   0.0625000000  0.4690970937  0.0000000000
==== e(   1) =   -18.45957 eV ==== 
     psi = 0.550*[#   5]+0.168*[#   3]+0.168*[#   4]+0.076*[#   1]+0.014*[#   7]
          +0.014*[#   8]
    |psi|^2 = 0.989
==== e(   2) =   -11.60788 eV ==== 
     psi = 0.334*[#   7]+0.334*[#   8]+0.182*[#   1]+0.051*[#   3]+0.051*[#   4]
          +0.039*[#   5]
    |psi|^2 = 0.992
==== e(   3) =    -7.67619 eV ==== 
     psi = 0.334*[#   7]+0.334*[#   8]+0.155*[#   3]+0.155*[#   4]+0.015*[#   1]
          +0.002*[#   5]
    |psi|^2 = 0.996
==== e(   4) =    -5.00771 eV ==== 
     psi = 0.769*[#   6]+0.226*[#   2]
    |psi|^2 = 0.995
==== e(   5) =     2.26774 eV ==== 
     psi = 0.739*[#   2]+0.208*[#   6]
    |psi|^2 = 0.947
==== e(   6) =     6.04528 eV ==== 
     psi = 0.221*[#   1]+0.149*[#   5]+0.070*[#   3]+0.070*[#   4]+0.009*[#   7]
          +0.009*[#   8]
    |psi|^2 = 0.528
==== e(   7) =     7.43860 eV ==== 
     psi = 0.124*[#   1]+0.100*[#   5]+0.060*[#   3]+0.060*[#   4]+0.010*[#   7]
          +0.010*[#   8]
    |psi|^2 = 0.364
==== e(   8) =     7.58828 eV ==== 
     psi = 0.004*[#   2]+0.002*[#   6]
    |psi|^2 = 0.006

 k =   0.0625000000  0.5412658774  0.0000000000
==== e(   1) =   -18.06794 eV ==== 
     psi = 0.579*[#   5]+0.181*[#   3]+0.181*[#   4]+0.044*[#   1]+0.003*[#   7]
          +0.003*[#   8]
    |psi|^2 = 0.990
==== e(   2) =   -12.24389 eV ==== 
     psi = 0.343*[#   7]+0.343*[#   8]+0.207*[#   1]+0.042*[#   3]+0.042*[#   4]
          +0.013*[#   5]
    |psi|^2 = 0.991
==== e(   3) =    -7.83873 eV ==== 
     psi = 0.332*[#   7]+0.332*[#   8]+0.158*[#   3]+0.158*[#   4]+0.015*[#   1]
          +0.002*[#   5]
    |psi|^2 = 0.996
==== e(   4) =    -4.41183 eV ==== 
     psi = 0.849*[#   6]+0.144*[#   2]
    |psi|^2 = 0.994
==== e(   5) =     1.48473 eV ==== 
     psi = 0.821*[#   2]+0.128*[#   6]
    |psi|^2 = 0.949
==== e(   6) =     6.61798 eV ==== 
     psi = 0.359*[#   1]+0.242*[#   5]+0.106*[#   3]+0.106*[#   4]+0.015*[#   7]
          +0.015*[#   8]
    |psi|^2 = 0.843
==== e(   7) =     8.51023 eV ==== 
     psi = 0.036*[#   3]+0.036*[#   4]+0.030*[#   5]+0.029*[#   1]+0.008*[#   7]
          +0.008*[#   8]
    |psi|^2 = 0.145
==== e(   8) =     9.15654 eV ==== 
     psi = 0.007*[#   2]+0.003*[#   6]
    |psi|^2 = 0.010

 k =   0.1250000000  0.2165063509  0.0000000000
==== e(   1) =   -20.26050 eV ==== 
     psi = 0.511*[#   5]+0.236*[#   1]+0.101*[#   3]+0.101*[#   4]+0.020*[#   7]
          +0.020*[#   8]
    |psi|^2 = 0.989
==== e(   2) =    -7.64067 eV ==== 
     psi = 0.351*[#   7]+0.351*[#   8]+0.083*[#   3]+0.083*[#   4]+0.070*[#   1]
          +0.060*[#   5]
    |psi|^2 = 0.997
==== e(   3) =    -7.53724 eV ==== 
     psi = 0.595*[#   6]+0.383*[#   2]
    |psi|^2 = 0.978
==== e(   4) =    -6.43430 eV ==== 
     psi = 0.354*[#   7]+0.354*[#   8]+0.122*[#   3]+0.122*[#   4]+0.039*[#   1]
          +0.001*[#   5]
    |psi|^2 = 0.992
==== e(   5) =     2.70737 eV ==== 
     psi = 0.086*[#   5]+0.062*[#   3]+0.062*[#   4]+0.059*[#   1]+0.002*[#   7]
          +0.002*[#   8]
    |psi|^2 = 0.273
==== e(   6) =     3.56566 eV ==== 
     psi = 0.206*[#   2]+0.061*[#   6]
    |psi|^2 = 0.267
==== e(   7) =     4.12949 eV ==== 
     psi = 0.019*[#   5]+0.018*[#   1]+0.010*[#   3]+0.010*[#   4]
    |psi|^2 = 0.057
==== e(   8) =     5.57435 eV ==== 
     psi = 0.228*[#   2]+0.129*[#   6]
    |psi|^2 = 0.357

 k =   0.1250000000  0.2886751346  0.0000000000
==== e(   1) =   -19.78010 eV ==== 
     psi = 0.507*[#   5]+0.182*[#   1]+0.125*[#   3]+0.125*[#   4]+0.024*[#   7]
          +0.024*[#   8]
    |psi|^2 = 0.989
==== e(   2) =    -8.75807 eV ==== 
     psi = 0.337*[#   7]+0.337*[#   8]+0.087*[#   1]+0.082*[#   3]+0.082*[#   4]
          +0.070*[#   5]
    |psi|^2 = 0.996
==== e(   3) =    -7.11157 eV ==== 
     psi = 0.343*[#   7]+0.343*[#   8]+0.125*[#   3]+0.125*[#   4]+0.054*[#   1]
          +0.002*[#   5]
    |psi|^2 = 0.992
==== e(   4) =    -6.87995 eV ==== 
     psi = 0.624*[#   6]+0.362*[#   2]
    |psi|^2 = 0.986
==== e(   5) =     3.55314 eV ==== 
     psi = 0.081*[#   5]+0.061*[#   3]+0.061*[#   4]+0.057*[#   1]+0.003*[#   7]
          +0.003*[#   8]
    |psi|^2 = 0.266
==== e(   6) =     4.14061 eV ==== 
     psi = 0.370*[#   2]+0.149*[#   6]
    |psi|^2 = 0.519
==== e(   7) =     4.99430 eV ==== 
     psi = 0.018*[#   1]+0.017*[#   5]+0.009*[#   3]+0.009*[#   4]+0.001*[#   7]
          +0.001*[#   8]
    |psi|^2 = 0.055
==== e(   8) =     5.56235 eV ==== 
     psi = 0.232*[#   2]+0.171*[#   6]
    |psi|^2 = 0.403

 k =   0.1250000000  0.3608439182  0.0000000000
==== e(   1) =   -19.20942 eV ==== 
     psi = 0.515*[#   5]+0.146*[#   3]+0.146*[#   4]+0.133*[#   1]+0.024*[#   7]
          +0.024*[#   8]
    |psi|^2 = 0.989
==== e(   2) =    -9.94720 eV ==== 
     psi = 0.328*[#   7]+0.328*[#   8]+0.114*[#   1]+0.078*[#   3]+0.078*[#   4]
          +0.068*[#   5]
    |psi|^2 = 0.994
==== e(   3) =    -7.68489 eV ==== 
     psi = 0.335*[#   7]+0.335*[#   8]+0.131*[#   3]+0.131*[#   4]+0.057*[#   1]
          +0.004*[#   5]
    |psi|^2 = 0.993
==== e(   4) =    -6.08802 eV ==== 
     psi = 0.671*[#   6]+0.322*[#   2]
    |psi|^2 = 0.993
==== e(   5) =     3.81232 eV ==== 
     psi = 0.643*[#   2]+0.289*[#   6]
    |psi|^2 = 0.932
==== e(   6) =     4.61570 eV ==== 
     psi = 0.075*[#   5]+0.070*[#   1]+0.054*[#   3]+0.054*[#   4]+0.005*[#   7]
          +0.005*[#   8]
    |psi|^2 = 0.263
==== e(   7) =     5.94929 eV ==== 
     psi = 0.020*[#   6]+0.015*[#   2]
    |psi|^2 = 0.034
==== e(   8) =     6.09490 eV ==== 
     psi = 0.023*[#   1]+0.017*[#   5]+0.008*[#   3]+0.008*[#   4]+0.002*[#   7]
          +0.002*[#   8]
    |psi|^2 = 0.059

 k =   0.1250000000  0.4330127019  0.0000000000
==== e(   1) =   -18.61162 eV ==== 
     psi = 0.537*[#   5]+0.163*[#   3]+0.163*[#   4]+0.088*[#   1]+0.019*[#   7]
          +0.019*[#   8]
    |psi|^2 = 0.989
==== e(   2) =   -11.05080 eV ==== 
     psi = 0.327*[#   7]+0.327*[#   8]+0.146*[#   1]+0.070*[#   3]+0.070*[#   4]
          +0.051*[#   5]
    |psi|^2 = 0.993
==== e(   3) =    -8.10894 eV ==== 
     psi = 0.329*[#   7]+0.329*[#   8]+0.137*[#   3]+0.137*[#   4]+0.056*[#   1]
          +0.005*[#   5]
    |psi|^2 = 0.994
==== e(   4) =    -5.23589 eV ==== 
     psi = 0.740*[#   6]+0.255*[#   2]
    |psi|^2 = 0.995
==== e(   5) =     2.76094 eV ==== 
     psi = 0.719*[#   2]+0.239*[#   6]
    |psi|^2 = 0.958
==== e(   6) =     5.85418 eV ==== 
     psi = 0.111*[#   1]+0.078*[#   5]+0.049*[#   3]+0.049*[#   4]+0.008*[#   7]
          +0.008*[#   8]
    |psi|^2 = 0.304
==== e(   7) =     7.11691 eV ==== 
     psi = 0.003*[#   2]+0.002*[#   6]
    |psi|^2 = 0.005
==== e(   8) =     7.39118 eV ==== 
     psi = 0.050*[#   1]+0.029*[#   5]+0.013*[#   3]+0.013*[#   4]+0.004*[#   7]
          +0.004*[#   8]
    |psi|^2 = 0.115

 k =   0.1250000000  0.5051814855  0.0000000000
==== e(   1) =   -18.11181 eV ==== 
     psi = 0.568*[#   5]+0.179*[#   3]+0.179*[#   4]+0.049*[#   1]+0.008*[#   7]
          +0.008*[#   8]
    |psi|^2 = 0.990
==== e(   2) =   -11.87771 eV ==== 
     psi = 0.334*[#   7]+0.334*[#   8]+0.178*[#   1]+0.061*[#   3]+0.061*[#   4]
          +0.023*[#   5]
    |psi|^2 = 0.991
==== e(   3) =    -8.36793 eV ==== 
     psi = 0.326*[#   7]+0.326*[#   8]+0.141*[#   3]+0.141*[#   4]+0.054*[#   1]
          +0.006*[#   5]
    |psi|^2 = 0.995
==== e(   4) =    -4.48932 eV ==== 
     psi = 0.829*[#   6]+0.165*[#   2]
    |psi|^2 = 0.994
==== e(   5) =     1.80139 eV ==== 
     psi = 0.806*[#   2]+0.152*[#   6]
    |psi|^2 = 0.958
==== e(   6) =     7.04923 eV ==== 
     psi = 0.249*[#   1]+0.135*[#   5]+0.068*[#   3]+0.068*[#   4]+0.020*[#   7]
          +0.020*[#   8]
    |psi|^2 = 0.560
==== e(   7) =     8.40063 eV ==== 
     psi = 0.114*[#   1]+0.090*[#   5]+0.062*[#   3]+0.062*[#   4]+0.017*[#   7]
          +0.017*[#   8]
    |psi|^2 = 0.362
==== e(   8) =     8.56202 eV ==== 
     psi = 0.005*[#   2]+0.002*[#   6]
    |psi|^2 = 0.007

 k =   0.1250000000  0.5773502692  0.0000000000
==== e(   1) =   -17.90545 eV ==== 
     psi = 0.586*[#   5]+0.186*[#   3]+0.186*[#   4]+0.031*[#   1]+0.001*[#   7]
          +0.001*[#   8]
    |psi|^2 = 0.991
==== e(   2) =   -12.19639 eV ==== 
     psi = 0.339*[#   7]+0.339*[#   8]+0.193*[#   1]+0.056*[#   3]+0.056*[#   4]
          +0.006*[#   5]
    |psi|^2 = 0.990
==== e(   3) =    -8.45524 eV ==== 
     psi = 0.325*[#   7]+0.325*[#   8]+0.143*[#   3]+0.143*[#   4]+0.053*[#   1]
          +0.006*[#   5]
    |psi|^2 = 0.995
==== e(   4) =    -4.16504 eV ==== 
     psi = 0.882*[#   6]+0.111*[#   2]
    |psi|^2 = 0.993
==== e(   5) =     1.39505 eV ==== 
     psi = 0.859*[#   2]+0.099*[#   6]
    |psi|^2 = 0.958
==== e(   6) =     7.48726 eV ==== 
     psi = 0.366*[#   1]+0.202*[#   5]+0.096*[#   3]+0.096*[#   4]+0.032*[#   7]
          +0.032*[#   8]
    |psi|^2 = 0.824
==== e(   7) =     9.33663 eV ==== 
     psi = 0.053*[#   3]+0.053*[#   4]+0.033*[#   1]+0.026*[#   5]+0.013*[#   7]
          +0.013*[#   8]
    |psi|^2 = 0.191
==== e(   8) =     9.76881 eV ==== 
     psi = 0.014*[#   2]+0.007*[#   6]
    |psi|^2 = 0.021

 k =   0.1875000000  0.3247595264  0.0000000000
==== e(   1) =   -19.26608 eV ==== 
     psi = 0.513*[#   5]+0.144*[#   3]+0.144*[#   4]+0.137*[#   1]+0.025*[#   7]
          +0.025*[#   8]
    |psi|^2 = 0.989
==== e(   2) =    -9.63464 eV ==== 
     psi = 0.327*[#   7]+0.327*[#   8]+0.091*[#   3]+0.091*[#   4]+0.086*[#   1]
          +0.073*[#   5]
    |psi|^2 = 0.996
==== e(   3) =    -7.91748 eV ==== 
     psi = 0.333*[#   7]+0.333*[#   8]+0.117*[#   3]+0.117*[#   4]+0.089*[#   1]
          +0.001*[#   5]
    |psi|^2 = 0.990
==== e(   4) =    -6.16835 eV ==== 
     psi = 0.665*[#   6]+0.327*[#   2]
    |psi|^2 = 0.992
==== e(   5) =     3.96160 eV ==== 
     psi = 0.634*[#   2]+0.288*[#   6]
    |psi|^2 = 0.922
==== e(   6) =     4.51803 eV ==== 
     psi = 0.070*[#   5]+0.061*[#   1]+0.055*[#   3]+0.055*[#   4]+0.005*[#   7]
          +0.005*[#   8]
    |psi|^2 = 0.250
==== e(   7) =     5.86538 eV ==== 
     psi = 0.028*[#   6]+0.022*[#   2]
    |psi|^2 = 0.050
==== e(   8) =     5.98357 eV ==== 
     psi = 0.018*[#   1]+0.014*[#   5]+0.008*[#   3]+0.008*[#   4]+0.002*[#   7]
          +0.002*[#   8]
    |psi|^2 = 0.052

 k =   0.1875000000  0.3969283101  0.0000000000
==== e(   1) =   -18.69439 eV ==== 
     psi = 0.530*[#   5]+0.161*[#   3]+0.161*[#   4]+0.094*[#   1]+0.022*[#   7]
          +0.022*[#   8]
    |psi|^2 = 0.989
==== e(   2) =   -10.55360 eV ==== 
     psi = 0.321*[#   7]+0.321*[#   8]+0.103*[#   1]+0.093*[#   3]+0.093*[#   4]
          +0.062*[#   5]
    |psi|^2 = 0.994
==== e(   3) =    -8.57678 eV ==== 
     psi = 0.327*[#   7]+0.327*[#   8]+0.115*[#   3]+0.115*[#   4]+0.105*[#   1]
          +0.002*[#   5]
    |psi|^2 = 0.992
==== e(   4) =    -5.35901 eV ==== 
     psi = 0.726*[#   6]+0.269*[#   2]
    |psi|^2 = 0.995
==== e(   5) =     3.08883 eV ==== 
     psi = 0.714*[#   2]+0.258*[#   6]
    |psi|^2 = 0.972
==== e(   6) =     5.69751 eV ==== 
     psi = 0.077*[#   1]+0.059*[#   5]+0.046*[#   3]+0.046*[#   4]+0.007*[#   7]
          +0.007*[#   8]
    |psi|^2 = 0.242
==== e(   7) =     6.88070 eV ==== 
     psi = 0.003*[#   6]+0.001*[#   2]
    |psi|^2 = 0.004
==== e(   8) =     7.20905 eV ==== 
     psi = 0.023*[#   1]+0.012*[#   5]+0.007*[#   3]+0.007*[#   4]+0.002*[#   7]
          +0.002*[#   8]
    |psi|^2 = 0.054

 k =   0.1875000000  0.4690970937  0.0000000000
==== e(   1) =   -18.15405 eV ==== 
     psi = 0.558*[#   5]+0.176*[#   3]+0.176*[#   4]+0.054*[#   1]+0.014*[#   7]
          +0.014*[#   8]
    |psi|^2 = 0.991
==== e(   2) =   -11.38590 eV ==== 
     psi = 0.323*[#   7]+0.323*[#   8]+0.133*[#   1]+0.088*[#   3]+0.088*[#   4]
          +0.036*[#   5]
    |psi|^2 = 0.992
==== e(   3) =    -9.01158 eV ==== 
     psi = 0.324*[#   7]+0.324*[#   8]+0.116*[#   3]+0.116*[#   4]+0.107*[#   1]
          +0.005*[#   5]
    |psi|^2 = 0.993
==== e(   4) =    -4.56305 eV ==== 
     psi = 0.811*[#   6]+0.183*[#   2]
    |psi|^2 = 0.995
==== e(   5) =     2.14068 eV ==== 
     psi = 0.798*[#   2]+0.175*[#   6]
    |psi|^2 = 0.973
==== e(   6) =     7.04389 eV ==== 
     psi = 0.123*[#   1]+0.055*[#   5]+0.039*[#   3]+0.039*[#   4]+0.014*[#   7]
          +0.014*[#   8]
    |psi|^2 = 0.284
==== e(   7) =     8.17356 eV ==== 
     psi = 0.002*[#   2]
    |psi|^2 = 0.003
==== e(   8) =     8.62917 eV ==== 
     psi = 0.054*[#   1]+0.020*[#   5]+0.010*[#   3]+0.010*[#   4]+0.007*[#   7]
          +0.007*[#   8]
    |psi|^2 = 0.109

 k =   0.1875000000  0.5412658774  0.0000000000
==== e(   1) =   -17.80002 eV ==== 
     psi = 0.585*[#   5]+0.187*[#   3]+0.187*[#   4]+0.025*[#   1]+0.004*[#   7]
          +0.004*[#   8]
    |psi|^2 = 0.992
==== e(   2) =   -11.90563 eV ==== 
     psi = 0.329*[#   7]+0.329*[#   8]+0.159*[#   1]+0.082*[#   3]+0.082*[#   4]
          +0.009*[#   5]
    |psi|^2 = 0.990
==== e(   3) =    -9.22350 eV ==== 
     psi = 0.323*[#   7]+0.323*[#   8]+0.117*[#   3]+0.117*[#   4]+0.106*[#   1]
          +0.007*[#   5]
    |psi|^2 = 0.994
==== e(   4) =    -4.00967 eV ==== 
     psi = 0.897*[#   6]+0.096*[#   2]
    |psi|^2 = 0.993
==== e(   5) =     1.48935 eV ==== 
     psi = 0.884*[#   2]+0.089*[#   6]
    |psi|^2 = 0.973
==== e(   6) =     8.28886 eV ==== 
     psi = 0.290*[#   1]+0.091*[#   5]+0.050*[#   3]+0.050*[#   4]+0.038*[#   7]
          +0.038*[#   8]
    |psi|^2 = 0.558
==== e(   7) =     9.36880 eV ==== 
     psi = 0.009*[#   2]+0.004*[#   6]
    |psi|^2 = 0.013
==== e(   8) =     9.55432 eV ==== 
     psi = 0.108*[#   1]+0.067*[#   3]+0.067*[#   4]+0.066*[#   5]+0.026*[#   7]
          +0.026*[#   8]
    |psi|^2 = 0.361

 k =   0.2500000000  0.4330127019  0.0000000000
==== e(   1) =   -18.17106 eV ==== 
     psi = 0.554*[#   5]+0.175*[#   3]+0.175*[#   4]+0.056*[#   1]+0.016*[#   7]
          +0.016*[#   8]
    |psi|^2 = 0.991
==== e(   2) =   -11.09111 eV ==== 
     psi = 0.316*[#   7]+0.316*[#   8]+0.109*[#   3]+0.109*[#   4]+0.097*[#   1]
          +0.046*[#   5]
    |psi|^2 = 0.993
==== e(   3) =    -9.36662 eV ==== 
     psi = 0.326*[#   7]+0.326*[#   8]+0.147*[#   1]+0.096*[#   3]+0.096*[#   4]
          
    |psi|^2 = 0.992
==== e(   4) =    -4.59154 eV ==== 
     psi = 0.805*[#   6]+0.190*[#   2]
    |psi|^2 = 0.995
==== e(   5) =     2.29035 eV ==== 
     psi = 0.797*[#   2]+0.185*[#   6]
    |psi|^2 = 0.982
==== e(   6) =     6.98371 eV ==== 
     psi = 0.098*[#   1]+0.043*[#   5]+0.036*[#   3]+0.036*[#   4]+0.012*[#   7]
          +0.012*[#   8]
    |psi|^2 = 0.236
==== e(   7) =     8.03580 eV ==== 

    |psi|^2 = 0.000
==== e(   8) =     8.55653 eV ==== 
     psi = 0.030*[#   1]+0.008*[#   5]+0.004*[#   3]+0.004*[#   4]+0.004*[#   7]
          +0.004*[#   8]
    |psi|^2 = 0.055

 k =   0.2500000000  0.5051814855  0.0000000000
==== e(   1) =   -17.75170 eV ==== 
     psi = 0.583*[#   5]+0.187*[#   3]+0.187*[#   4]+0.023*[#   1]+0.006*[#   7]
          +0.006*[#   8]
    |psi|^2 = 0.993
==== e(   2) =   -11.51646 eV ==== 
     psi = 0.316*[#   7]+0.316*[#   8]+0.118*[#   3]+0.118*[#   4]+0.103*[#   1]
          +0.018*[#   5]
    |psi|^2 = 0.990
==== e(   3) =    -9.87913 eV ==== 
     psi = 0.328*[#   7]+0.328*[#   8]+0.170*[#   1]+0.083*[#   3]+0.083*[#   4]
          +0.002*[#   5]
    |psi|^2 = 0.993
==== e(   4) =    -3.94146 eV ==== 
     psi = 0.900*[#   6]+0.093*[#   2]
    |psi|^2 = 0.993
==== e(   5) =     1.61715 eV ==== 
     psi = 0.896*[#   2]+0.090*[#   6]
    |psi|^2 = 0.986
==== e(   6) =     8.39605 eV ==== 
     psi = 0.166*[#   1]+0.031*[#   5]+0.026*[#   3]+0.026*[#   4]+0.025*[#   7]
          +0.025*[#   8]
    |psi|^2 = 0.299
==== e(   7) =     9.00044 eV ==== 
     psi = 0.002*[#   2]
    |psi|^2 = 0.003
==== e(   8) =    10.05423 eV ==== 
     psi = 0.107*[#   1]+0.020*[#   7]+0.020*[#   8]+0.010*[#   5]+0.006*[#   3]
          +0.006*[#   4]
    |psi|^2 = 0.170

 k =   0.2500000000  0.5773502692  0.0000000000
==== e(   1) =   -17.58494 eV ==== 
     psi = 0.597*[#   5]+0.192*[#   3]+0.192*[#   4]+0.009*[#   1]+0.001*[#   7]
          +0.001*[#   8]
    |psi|^2 = 0.994
==== e(   2) =   -11.69078 eV ==== 
     psi = 0.318*[#   7]+0.318*[#   8]+0.119*[#   3]+0.119*[#   4]+0.110*[#   1]
          +0.002*[#   5]
    |psi|^2 = 0.988
==== e(   3) =   -10.05011 eV ==== 
     psi = 0.329*[#   7]+0.329*[#   8]+0.176*[#   1]+0.078*[#   3]+0.078*[#   4]
          +0.004*[#   5]
    |psi|^2 = 0.994
==== e(   4) =    -3.66774 eV ==== 
     psi = 0.954*[#   6]+0.039*[#   2]
    |psi|^2 = 0.992
==== e(   5) =     1.33523 eV ==== 
     psi = 0.951*[#   2]+0.036*[#   6]
    |psi|^2 = 0.987
==== e(   6) =     9.21270 eV ==== 
     psi = 0.005*[#   2]+0.002*[#   6]
    |psi|^2 = 0.007
==== e(   7) =     9.37257 eV ==== 
     psi = 0.386*[#   1]+0.065*[#   7]+0.065*[#   8]+0.031*[#   5]+0.015*[#   3]
          +0.015*[#   4]
    |psi|^2 = 0.577
==== e(   8) =    10.35370 eV ==== 
     psi = 0.073*[#   3]+0.073*[#   4]+0.027*[#   5]+0.013*[#   7]+0.013*[#   8]
          +0.001*[#   1]
    |psi|^2 = 0.200

 k =   0.3125000000  0.5412658774  0.0000000000
==== e(   1) =   -17.50850 eV ==== 
     psi = 0.602*[#   5]+0.194*[#   3]+0.194*[#   4]+0.003*[#   1]
    |psi|^2 = 0.994
==== e(   2) =   -11.45777 eV ==== 
     psi = 0.303*[#   7]+0.303*[#   8]+0.168*[#   3]+0.168*[#   4]+0.040*[#   1]
          +0.003*[#   5]
    |psi|^2 = 0.986
==== e(   3) =   -10.50011 eV ==== 
     psi = 0.341*[#   7]+0.341*[#   8]+0.255*[#   1]+0.029*[#   3]+0.029*[#   4]
          
    |psi|^2 = 0.995
==== e(   4) =    -3.54313 eV ==== 
     psi = 0.976*[#   6]+0.016*[#   2]
    |psi|^2 = 0.992
==== e(   5) =     1.29476 eV ==== 
     psi = 0.978*[#   2]+0.015*[#   6]
    |psi|^2 = 0.993
==== e(   6) =     9.00666 eV ==== 

    |psi|^2 = 0.001
==== e(   7) =     9.63252 eV ==== 
     psi = 0.342*[#   1]+0.061*[#   7]+0.061*[#   8]+0.008*[#   5]+0.007*[#   3]
          +0.007*[#   4]
    |psi|^2 = 0.486
==== e(   8) =    10.90481 eV ==== 
     psi = 0.110*[#   1]+0.055*[#   3]+0.055*[#   4]+0.038*[#   7]+0.038*[#   8]
          +0.004*[#   5]
    |psi|^2 = 0.301

Lowdin Charges: 

     Atom #   1: total charge =   2.5313, s =  0.6169, 
     Atom #   1: total charge =   2.5313, p =  1.9144, pz=  0.5179, px=  0.6983, py=  0.6983, 
     Atom #   2: total charge =   5.3993, s =  1.1730, 
     Atom #   2: total charge =   5.3993, p =  4.2263, pz=  1.4583, px=  1.3840, py=  1.3840, 
     Spilling Parameter:   0.0087

     PROJWFC      :      0.58s CPU      0.34s WALL


   This run was terminated on:  17:54:20  14Feb2024            

=------------------------------------------------------------------------------=
   JOB DONE.
=------------------------------------------------------------------------------=
