
     Program PWSCF v.7.2 starts on  8Apr2024 at 12:18:32 

     This program is part of the open-source Quantum ESPRESSO suite
     for quantum simulation of materials; please cite
         "P. Giannozzi et al., J. Phys.:Condens. Matter 21 395502 (2009);
         "P. Giannozzi et al., J. Phys.:Condens. Matter 29 465901 (2017);
         "P. Giannozzi et al., J. Chem. Phys. 152 154105 (2020);
          URL http://www.quantum-espresso.org", 
     in publications or presentations arising from this work. More details at
     http://www.quantum-espresso.org/quote

     Parallel version (MPI), running on    14 processors

     MPI processes distributed on     1 nodes
     250309 MiB available memory on the printing compute node when the environment starts
 
     Waiting for input...
     Reading input from standard input

     Current dimensions of program PWSCF are:
     Max number of different atomic species (ntypx) = 10
     Max number of k-points (npk) =  40000
     Max angular momentum in pseudopotentials (lmaxx) =  4
 
     K-points division:     npool     =       2
     R & G space division:  proc/nbgrp/npool/nimage =       7
     Subspace diagonalization in iterative solution of the eigenvalue problem:
     a serial algorithm will be used

 
     Parallelization info
     --------------------
     sticks:   dense  smooth     PW     G-vecs:    dense   smooth      PW
     Min          67      67     21                 7139     7139    1195
     Max          68      68     22                 7154     7154    1206
     Sum         475     475    151                50025    50025    8409
 
     Using Slab Decomposition
 


     bravais-lattice index     =            4
     lattice parameter (alat)  =       4.6350  a.u.
     unit-cell volume          =     517.4056 (a.u.)^3
     number of atoms/cell      =            4
     number of atomic types    =            2
     number of electrons       =        16.00
     number of Kohn-Sham states=            8
     kinetic-energy cutoff     =      80.0000  Ry
     charge density cutoff     =     320.0000  Ry
     scf convergence threshold =      1.0E-06
     mixing beta               =       0.7000
     number of iterations used =            8  plain     mixing
     energy convergence thresh.=      1.0E-04
     force convergence thresh. =      1.0E-03
     press convergence thresh. =      5.0E-01
     Exchange-correlation= PBE
                           (   1   4   3   4   0   0   0)
     nstep                     =           50


     celldm(1)=   4.635000  celldm(2)=   0.000000  celldm(3)=   6.000000
     celldm(4)=   0.000000  celldm(5)=   0.000000  celldm(6)=   0.000000

     crystal axes: (cart. coord. in units of alat)
               a(1) = (   1.000000   0.000000   0.000000 )  
               a(2) = (  -0.500000   0.866025   0.000000 )  
               a(3) = (   0.000000   0.000000   6.000000 )  

     reciprocal axes: (cart. coord. in units 2 pi/alat)
               b(1) = (  1.000000  0.577350  0.000000 )  
               b(2) = (  0.000000  1.154701  0.000000 )  
               b(3) = (  0.000000  0.000000  0.166667 )  


     PseudoPot. # 1 for N  read from file:
     ../../../../Pseudo/PBE/N.upf
     MD5 check sum: d34365f73bb0e2ee98afc20ec3e87676
     Pseudo is Norm-conserving + core correction, Zval =  5.0
     Generated using ONCVPSP code by D. R. Hamann
     Using radial grid of 1058 points,  4 beta functions with: 
                l(1) =   0
                l(2) =   0
                l(3) =   1
                l(4) =   1

     PseudoPot. # 2 for B  read from file:
     ../../../../Pseudo/PBE/B.upf
     MD5 check sum: 72f82fc31bc892420d0cab7e25c88ab8
     Pseudo is Norm-conserving + core correction, Zval =  3.0
     Generated using ONCVPSP code by D. R. Hamann
     Using radial grid of 1534 points,  4 beta functions with: 
                l(1) =   0
                l(2) =   0
                l(3) =   1
                l(4) =   1

     atomic species   valence    mass     pseudopotential
        N              5.00    14.00670     N ( 1.00)
        B              3.00    10.80100     B ( 1.00)

     12 Sym. Ops., with inversion, found ( 6 have fractional translation)


                                    s                        frac. trans.

      isym =  1     identity                                     

 cryst.   s( 1) = (     1          0          0      )
                  (     0          1          0      )
                  (     0          0          1      )

 cart.    s( 1) = (  1.0000000  0.0000000  0.0000000 )
                  (  0.0000000  1.0000000  0.0000000 )
                  (  0.0000000  0.0000000  1.0000000 )


      isym =  2     180 deg rotation - cart. axis [1,0,0]        

 cryst.   s( 2) = (     1          0          0      )    f =(  0.0000000 )
                  (    -1         -1          0      )       (  0.0000000 )
                  (     0          0         -1      )       ( -0.2500000 )

 cart.    s( 2) = (  1.0000000  0.0000000  0.0000000 )    f =(  0.0000000 )
                  (  0.0000000 -1.0000000  0.0000000 )       (  0.0000000 )
                  (  0.0000000  0.0000000 -1.0000000 )       ( -1.5000000 )


      isym =  3     120 deg rotation - cryst. axis [0,0,1]       

 cryst.   s( 3) = (     0          1          0      )
                  (    -1         -1          0      )
                  (     0          0          1      )

 cart.    s( 3) = ( -0.5000000 -0.8660254  0.0000000 )
                  (  0.8660254 -0.5000000  0.0000000 )
                  (  0.0000000  0.0000000  1.0000000 )


      isym =  4     120 deg rotation - cryst. axis [0,0,-1]      

 cryst.   s( 4) = (    -1         -1          0      )
                  (     1          0          0      )
                  (     0          0          1      )

 cart.    s( 4) = ( -0.5000000  0.8660254  0.0000000 )
                  ( -0.8660254 -0.5000000  0.0000000 )
                  (  0.0000000  0.0000000  1.0000000 )


      isym =  5     180 deg rotation - cryst. axis [0,1,0]       

 cryst.   s( 5) = (    -1         -1          0      )    f =(  0.0000000 )
                  (     0          1          0      )       (  0.0000000 )
                  (     0          0         -1      )       ( -0.2500000 )

 cart.    s( 5) = ( -0.5000000 -0.8660254  0.0000000 )    f =(  0.0000000 )
                  ( -0.8660254  0.5000000  0.0000000 )       (  0.0000000 )
                  (  0.0000000  0.0000000 -1.0000000 )       ( -1.5000000 )


      isym =  6     180 deg rotation - cryst. axis [1,1,0]       

 cryst.   s( 6) = (     0          1          0      )    f =(  0.0000000 )
                  (     1          0          0      )       (  0.0000000 )
                  (     0          0         -1      )       ( -0.2500000 )

 cart.    s( 6) = ( -0.5000000  0.8660254  0.0000000 )    f =(  0.0000000 )
                  (  0.8660254  0.5000000  0.0000000 )       (  0.0000000 )
                  (  0.0000000  0.0000000 -1.0000000 )       ( -1.5000000 )


      isym =  7     inversion                                    

 cryst.   s( 7) = (    -1          0          0      )    f =(  0.0000000 )
                  (     0         -1          0      )       (  0.0000000 )
                  (     0          0         -1      )       ( -0.2500000 )

 cart.    s( 7) = ( -1.0000000  0.0000000  0.0000000 )    f =(  0.0000000 )
                  (  0.0000000 -1.0000000  0.0000000 )       (  0.0000000 )
                  (  0.0000000  0.0000000 -1.0000000 )       ( -1.5000000 )


      isym =  8     inv. 180 deg rotation - cart. axis [1,0,0]   

 cryst.   s( 8) = (    -1          0          0      )
                  (     1          1          0      )
                  (     0          0          1      )

 cart.    s( 8) = ( -1.0000000  0.0000000  0.0000000 )
                  (  0.0000000  1.0000000  0.0000000 )
                  (  0.0000000  0.0000000  1.0000000 )


      isym =  9     inv. 120 deg rotation - cryst. axis [0,0,1]  

 cryst.   s( 9) = (     0         -1          0      )    f =(  0.0000000 )
                  (     1          1          0      )       (  0.0000000 )
                  (     0          0         -1      )       ( -0.2500000 )

 cart.    s( 9) = (  0.5000000  0.8660254  0.0000000 )    f =(  0.0000000 )
                  ( -0.8660254  0.5000000  0.0000000 )       (  0.0000000 )
                  (  0.0000000  0.0000000 -1.0000000 )       ( -1.5000000 )


      isym = 10     inv. 120 deg rotation - cryst. axis [0,0,-1] 

 cryst.   s(10) = (     1          1          0      )    f =(  0.0000000 )
                  (    -1          0          0      )       (  0.0000000 )
                  (     0          0         -1      )       ( -0.2500000 )

 cart.    s(10) = (  0.5000000 -0.8660254  0.0000000 )    f =(  0.0000000 )
                  (  0.8660254  0.5000000  0.0000000 )       (  0.0000000 )
                  (  0.0000000  0.0000000 -1.0000000 )       ( -1.5000000 )


      isym = 11     inv. 180 deg rotation - cryst. axis [0,1,0]  

 cryst.   s(11) = (     1          1          0      )
                  (     0         -1          0      )
                  (     0          0          1      )

 cart.    s(11) = (  0.5000000  0.8660254  0.0000000 )
                  (  0.8660254 -0.5000000  0.0000000 )
                  (  0.0000000  0.0000000  1.0000000 )


      isym = 12     inv. 180 deg rotation - cryst. axis [1,1,0]  

 cryst.   s(12) = (     0         -1          0      )
                  (    -1          0          0      )
                  (     0          0          1      )

 cart.    s(12) = (  0.5000000 -0.8660254  0.0000000 )
                  ( -0.8660254 -0.5000000  0.0000000 )
                  (  0.0000000  0.0000000  1.0000000 )


     point group D_3d (-3m) 
     there are  6 classes
     the character table:

       E     2C3   3C2'  i     2S6   3s_d 
A_1g   1.00  1.00  1.00  1.00  1.00  1.00
A_2g   1.00  1.00 -1.00  1.00  1.00 -1.00
E_g    2.00 -1.00  0.00  2.00 -1.00  0.00
A_1u   1.00  1.00  1.00 -1.00 -1.00 -1.00
A_2u   1.00  1.00 -1.00 -1.00 -1.00  1.00
E_u    2.00 -1.00  0.00 -2.00  1.00  0.00

     the symmetry operations in each class and the name of the first element:

     E        1
          identity                                               
     2C3      3    4
          120 deg rotation - cryst. axis [0,0,1]                 
     3C2'     2    5    6
          180 deg rotation - cart. axis [1,0,0]                  
     i        7
          inversion                                              
     2S6      9   10
          inv. 120 deg rotation - cryst. axis [0,0,1]            
     3s_d     8   11   12
          inv. 180 deg rotation - cart. axis [1,0,0]             

   Cartesian axes

     site n.     atom                  positions (alat units)
         1           N   tau(   1) = (   0.0000000   0.0000000   0.0000000  )
         2           B   tau(   2) = (  -0.0000000   0.5773503   0.0000000  )
         3           N   tau(   3) = (   0.0000000   0.0000000   1.5000000  )
         4           B   tau(   4) = (   0.5000000   0.2886751   1.5000000  )

   Crystallographic axes

     site n.     atom                  positions (cryst. coord.)
         1           N   tau(   1) = (  0.0000000  0.0000000  0.0000000  )
         2           B   tau(   2) = (  0.3333333  0.6666667  0.0000000  )
         3           N   tau(   3) = (  0.0000000  0.0000000  0.2500000  )
         4           B   tau(   4) = (  0.6666667  0.3333333  0.2500000  )

     number of k points=    19  Marzari-Vanderbilt smearing, width (Ry)=  0.0100
                       cart. coord. in units 2pi/alat
        k(    1) = (   0.0000000   0.0000000   0.0000000), wk =   0.0138889
        k(    2) = (   0.0000000   0.0962250   0.0000000), wk =   0.0833333
        k(    3) = (   0.0000000   0.1924501   0.0000000), wk =   0.0833333
        k(    4) = (   0.0000000   0.2886751   0.0000000), wk =   0.0833333
        k(    5) = (   0.0000000   0.3849002   0.0000000), wk =   0.0833333
        k(    6) = (   0.0000000   0.4811252   0.0000000), wk =   0.0833333
        k(    7) = (   0.0000000  -0.5773503   0.0000000), wk =   0.0416667
        k(    8) = (   0.0833333   0.1443376   0.0000000), wk =   0.0833333
        k(    9) = (   0.0833333   0.2405626   0.0000000), wk =   0.1666667
        k(   10) = (   0.0833333   0.3367877   0.0000000), wk =   0.1666667
        k(   11) = (   0.0833333   0.4330127   0.0000000), wk =   0.1666667
        k(   12) = (   0.0833333   0.5292377   0.0000000), wk =   0.1666667
        k(   13) = (   0.1666667   0.2886751   0.0000000), wk =   0.0833333
        k(   14) = (   0.1666667   0.3849002   0.0000000), wk =   0.1666667
        k(   15) = (   0.1666667   0.4811252   0.0000000), wk =   0.1666667
        k(   16) = (   0.1666667   0.5773503   0.0000000), wk =   0.0833333
        k(   17) = (   0.2500000   0.4330127   0.0000000), wk =   0.0833333
        k(   18) = (   0.2500000   0.5292377   0.0000000), wk =   0.1666667
        k(   19) = (   0.3333333   0.5773503   0.0000000), wk =   0.0277778

                       cryst. coord.
        k(    1) = (   0.0000000   0.0000000   0.0000000), wk =   0.0138889
        k(    2) = (   0.0000000   0.0833333   0.0000000), wk =   0.0833333
        k(    3) = (   0.0000000   0.1666667   0.0000000), wk =   0.0833333
        k(    4) = (   0.0000000   0.2500000   0.0000000), wk =   0.0833333
        k(    5) = (   0.0000000   0.3333333   0.0000000), wk =   0.0833333
        k(    6) = (   0.0000000   0.4166667   0.0000000), wk =   0.0833333
        k(    7) = (   0.0000000  -0.5000000   0.0000000), wk =   0.0416667
        k(    8) = (   0.0833333   0.0833333   0.0000000), wk =   0.0833333
        k(    9) = (   0.0833333   0.1666667   0.0000000), wk =   0.1666667
        k(   10) = (   0.0833333   0.2500000   0.0000000), wk =   0.1666667
        k(   11) = (   0.0833333   0.3333333   0.0000000), wk =   0.1666667
        k(   12) = (   0.0833333   0.4166667   0.0000000), wk =   0.1666667
        k(   13) = (   0.1666667   0.1666667   0.0000000), wk =   0.0833333
        k(   14) = (   0.1666667   0.2500000   0.0000000), wk =   0.1666667
        k(   15) = (   0.1666667   0.3333333   0.0000000), wk =   0.1666667
        k(   16) = (   0.1666667   0.4166667   0.0000000), wk =   0.0833333
        k(   17) = (   0.2500000   0.2500000   0.0000000), wk =   0.0833333
        k(   18) = (   0.2500000   0.3333333   0.0000000), wk =   0.1666667
        k(   19) = (   0.3333333   0.3333333   0.0000000), wk =   0.0277778

     Dense  grid:    50025 G-vectors     FFT dimensions: (  27,  27, 160)

     Dynamical RAM for                 wfc:       0.11 MB

     Dynamical RAM for     wfc (w. buffer):       1.20 MB

     Dynamical RAM for           str. fact:       0.22 MB

     Dynamical RAM for           local pot:       0.00 MB

     Dynamical RAM for          nlocal pot:       0.44 MB

     Dynamical RAM for                qrad:       1.64 MB

     Dynamical RAM for          rho,v,vnew:       0.71 MB

     Dynamical RAM for               rhoin:       0.24 MB

     Dynamical RAM for            rho*nmix:       1.75 MB

     Dynamical RAM for           G-vectors:       0.46 MB

     Dynamical RAM for          h,s,v(r/c):       0.01 MB

     Dynamical RAM for          <psi|beta>:       0.00 MB

     Dynamical RAM for                 psi:       0.22 MB

     Dynamical RAM for                hpsi:       0.22 MB

     Dynamical RAM for      wfcinit/wfcrot:       0.44 MB

     Estimated static dynamical RAM per process >       5.87 MB

     Estimated max dynamical RAM per process >       8.07 MB

     Estimated total dynamical RAM >     100.78 MB

     Initial potential from superposition of free atoms

     starting charge      15.9995, renormalised to      16.0000

     negative rho (up, down):  4.566E-06 0.000E+00
     Starting wfcs are   16 randomized atomic wfcs

     total cpu time spent up to now is        1.0 secs

     Self-consistent Calculation

     iteration #  1     ecut=    80.00 Ry     beta= 0.70
     Davidson diagonalization with overlap

---- Real-time Memory Report at c_bands before calling an iterative solver
           132 MiB given to the printing process from OS
             0 MiB allocation reported by mallinfo(arena+hblkhd)
        250064 MiB available memory on the node where the printing process lives
------------------
     ethr =  1.00E-02,  avg # of iterations =  2.0

     total cpu time spent up to now is        1.4 secs

     total energy              =     -53.33526861 Ry
     estimated scf accuracy    <       0.85393896 Ry

     iteration #  2     ecut=    80.00 Ry     beta= 0.70
     Davidson diagonalization with overlap

---- Real-time Memory Report at c_bands before calling an iterative solver
           134 MiB given to the printing process from OS
             0 MiB allocation reported by mallinfo(arena+hblkhd)
        250030 MiB available memory on the node where the printing process lives
------------------
     ethr =  5.34E-03,  avg # of iterations =  2.8

     total cpu time spent up to now is        1.8 secs

     total energy              =     -53.59659942 Ry
     estimated scf accuracy    <       0.23811974 Ry

     iteration #  3     ecut=    80.00 Ry     beta= 0.70
     Davidson diagonalization with overlap

---- Real-time Memory Report at c_bands before calling an iterative solver
           135 MiB given to the printing process from OS
             0 MiB allocation reported by mallinfo(arena+hblkhd)
        250029 MiB available memory on the node where the printing process lives
------------------
     ethr =  1.49E-03,  avg # of iterations =  2.0

     total cpu time spent up to now is        2.1 secs

     total energy              =     -53.60624677 Ry
     estimated scf accuracy    <       0.02002706 Ry

     iteration #  4     ecut=    80.00 Ry     beta= 0.70
     Davidson diagonalization with overlap

---- Real-time Memory Report at c_bands before calling an iterative solver
           136 MiB given to the printing process from OS
             0 MiB allocation reported by mallinfo(arena+hblkhd)
        250028 MiB available memory on the node where the printing process lives
------------------
     ethr =  1.25E-04,  avg # of iterations =  4.6

     total cpu time spent up to now is        2.5 secs

     total energy              =     -53.62351129 Ry
     estimated scf accuracy    <       0.04509803 Ry

     iteration #  5     ecut=    80.00 Ry     beta= 0.70
     Davidson diagonalization with overlap

---- Real-time Memory Report at c_bands before calling an iterative solver
           136 MiB given to the printing process from OS
             0 MiB allocation reported by mallinfo(arena+hblkhd)
        250026 MiB available memory on the node where the printing process lives
------------------
     ethr =  1.25E-04,  avg # of iterations =  1.8

     total cpu time spent up to now is        2.7 secs

     total energy              =     -53.62507502 Ry
     estimated scf accuracy    <       0.01388093 Ry

     iteration #  6     ecut=    80.00 Ry     beta= 0.70
     Davidson diagonalization with overlap

---- Real-time Memory Report at c_bands before calling an iterative solver
           136 MiB given to the printing process from OS
             0 MiB allocation reported by mallinfo(arena+hblkhd)
        250024 MiB available memory on the node where the printing process lives
------------------
     ethr =  8.68E-05,  avg # of iterations =  1.0

     negative rho (up, down):  7.321E-07 0.000E+00

     total cpu time spent up to now is        3.0 secs

     total energy              =     -53.62316043 Ry
     estimated scf accuracy    <       0.01196587 Ry

     iteration #  7     ecut=    80.00 Ry     beta= 0.70
     Davidson diagonalization with overlap

---- Real-time Memory Report at c_bands before calling an iterative solver
           136 MiB given to the printing process from OS
             0 MiB allocation reported by mallinfo(arena+hblkhd)
        250023 MiB available memory on the node where the printing process lives
------------------
     ethr =  7.48E-05,  avg # of iterations =  1.0

     negative rho (up, down):  6.930E-06 0.000E+00

     total cpu time spent up to now is        3.2 secs

     total energy              =     -53.62154612 Ry
     estimated scf accuracy    <       0.00564035 Ry

     iteration #  8     ecut=    80.00 Ry     beta= 0.70
     Davidson diagonalization with overlap

---- Real-time Memory Report at c_bands before calling an iterative solver
           136 MiB given to the printing process from OS
             0 MiB allocation reported by mallinfo(arena+hblkhd)
        250021 MiB available memory on the node where the printing process lives
------------------
     ethr =  3.53E-05,  avg # of iterations =  2.6

     negative rho (up, down):  4.470E-06 0.000E+00

     total cpu time spent up to now is        3.5 secs

     total energy              =     -53.62254750 Ry
     estimated scf accuracy    <       0.00053683 Ry

     iteration #  9     ecut=    80.00 Ry     beta= 0.70
     Davidson diagonalization with overlap

---- Real-time Memory Report at c_bands before calling an iterative solver
           137 MiB given to the printing process from OS
             0 MiB allocation reported by mallinfo(arena+hblkhd)
        250019 MiB available memory on the node where the printing process lives
------------------
     ethr =  3.36E-06,  avg # of iterations =  3.4

     negative rho (up, down):  4.376E-06 0.000E+00

     total cpu time spent up to now is        3.8 secs

     total energy              =     -53.62268411 Ry
     estimated scf accuracy    <       0.00027696 Ry

     iteration # 10     ecut=    80.00 Ry     beta= 0.70
     Davidson diagonalization with overlap

---- Real-time Memory Report at c_bands before calling an iterative solver
           137 MiB given to the printing process from OS
             0 MiB allocation reported by mallinfo(arena+hblkhd)
        250018 MiB available memory on the node where the printing process lives
------------------
     ethr =  1.73E-06,  avg # of iterations =  1.1

     negative rho (up, down):  3.837E-06 0.000E+00

     total cpu time spent up to now is        4.0 secs

     total energy              =     -53.62269523 Ry
     estimated scf accuracy    <       0.00024363 Ry

     iteration # 11     ecut=    80.00 Ry     beta= 0.70
     Davidson diagonalization with overlap

---- Real-time Memory Report at c_bands before calling an iterative solver
           137 MiB given to the printing process from OS
             0 MiB allocation reported by mallinfo(arena+hblkhd)
        250018 MiB available memory on the node where the printing process lives
------------------
     ethr =  1.52E-06,  avg # of iterations =  1.0

     negative rho (up, down):  1.365E-06 0.000E+00

     total cpu time spent up to now is        4.3 secs

     total energy              =     -53.62264118 Ry
     estimated scf accuracy    <       0.00023948 Ry

     iteration # 12     ecut=    80.00 Ry     beta= 0.70
     Davidson diagonalization with overlap

---- Real-time Memory Report at c_bands before calling an iterative solver
           137 MiB given to the printing process from OS
             0 MiB allocation reported by mallinfo(arena+hblkhd)
        250016 MiB available memory on the node where the printing process lives
------------------
     ethr =  1.50E-06,  avg # of iterations =  1.1

     negative rho (up, down):  6.045E-07 0.000E+00

     total cpu time spent up to now is        4.5 secs

     total energy              =     -53.62264147 Ry
     estimated scf accuracy    <       0.00008690 Ry

     iteration # 13     ecut=    80.00 Ry     beta= 0.70
     Davidson diagonalization with overlap

---- Real-time Memory Report at c_bands before calling an iterative solver
           137 MiB given to the printing process from OS
             0 MiB allocation reported by mallinfo(arena+hblkhd)
        250016 MiB available memory on the node where the printing process lives
------------------
     ethr =  5.43E-07,  avg # of iterations =  1.2

     negative rho (up, down):  1.383E-07 0.000E+00

     total cpu time spent up to now is        4.7 secs

     total energy              =     -53.62263832 Ry
     estimated scf accuracy    <       0.00006160 Ry

     iteration # 14     ecut=    80.00 Ry     beta= 0.70
     Davidson diagonalization with overlap

---- Real-time Memory Report at c_bands before calling an iterative solver
           137 MiB given to the printing process from OS
             0 MiB allocation reported by mallinfo(arena+hblkhd)
        250016 MiB available memory on the node where the printing process lives
------------------
     ethr =  3.85E-07,  avg # of iterations =  1.1

     total cpu time spent up to now is        5.0 secs

     total energy              =     -53.62263991 Ry
     estimated scf accuracy    <       0.00003791 Ry

     iteration # 15     ecut=    80.00 Ry     beta= 0.70
     Davidson diagonalization with overlap

---- Real-time Memory Report at c_bands before calling an iterative solver
           137 MiB given to the printing process from OS
             0 MiB allocation reported by mallinfo(arena+hblkhd)
        250016 MiB available memory on the node where the printing process lives
------------------
     ethr =  2.37E-07,  avg # of iterations =  1.1

     total cpu time spent up to now is        5.2 secs

     total energy              =     -53.62263696 Ry
     estimated scf accuracy    <       0.00003487 Ry

     iteration # 16     ecut=    80.00 Ry     beta= 0.70
     Davidson diagonalization with overlap

---- Real-time Memory Report at c_bands before calling an iterative solver
           137 MiB given to the printing process from OS
             0 MiB allocation reported by mallinfo(arena+hblkhd)
        250016 MiB available memory on the node where the printing process lives
------------------
     ethr =  2.18E-07,  avg # of iterations =  1.0

     total cpu time spent up to now is        5.4 secs

     total energy              =     -53.62264825 Ry
     estimated scf accuracy    <       0.00002128 Ry

     iteration # 17     ecut=    80.00 Ry     beta= 0.70
     Davidson diagonalization with overlap

---- Real-time Memory Report at c_bands before calling an iterative solver
           137 MiB given to the printing process from OS
             0 MiB allocation reported by mallinfo(arena+hblkhd)
        250016 MiB available memory on the node where the printing process lives
------------------
     ethr =  1.33E-07,  avg # of iterations =  1.0

     total cpu time spent up to now is        5.6 secs

     total energy              =     -53.62261672 Ry
     estimated scf accuracy    <       0.00004360 Ry

     iteration # 18     ecut=    80.00 Ry     beta= 0.70
     Davidson diagonalization with overlap

---- Real-time Memory Report at c_bands before calling an iterative solver
           137 MiB given to the printing process from OS
             0 MiB allocation reported by mallinfo(arena+hblkhd)
        250016 MiB available memory on the node where the printing process lives
------------------
     ethr =  1.33E-07,  avg # of iterations =  3.6

     total cpu time spent up to now is        6.0 secs

     total energy              =     -53.62263184 Ry
     estimated scf accuracy    <       0.00003201 Ry

     iteration # 19     ecut=    80.00 Ry     beta= 0.70
     Davidson diagonalization with overlap

---- Real-time Memory Report at c_bands before calling an iterative solver
           137 MiB given to the printing process from OS
             0 MiB allocation reported by mallinfo(arena+hblkhd)
        250017 MiB available memory on the node where the printing process lives
------------------
     ethr =  1.33E-07,  avg # of iterations =  1.7

     total cpu time spent up to now is        6.2 secs

     total energy              =     -53.62263220 Ry
     estimated scf accuracy    <       0.00000621 Ry

     iteration # 20     ecut=    80.00 Ry     beta= 0.70
     Davidson diagonalization with overlap

---- Real-time Memory Report at c_bands before calling an iterative solver
           137 MiB given to the printing process from OS
             0 MiB allocation reported by mallinfo(arena+hblkhd)
        250030 MiB available memory on the node where the printing process lives
------------------
     ethr =  3.88E-08,  avg # of iterations =  2.0

     total cpu time spent up to now is        6.5 secs

     total energy              =     -53.62263257 Ry
     estimated scf accuracy    <       0.00000113 Ry

     iteration # 21     ecut=    80.00 Ry     beta= 0.70
     Davidson diagonalization with overlap

---- Real-time Memory Report at c_bands before calling an iterative solver
           137 MiB given to the printing process from OS
             0 MiB allocation reported by mallinfo(arena+hblkhd)
        249614 MiB available memory on the node where the printing process lives
------------------
     ethr =  7.04E-09,  avg # of iterations =  3.9

     total cpu time spent up to now is        6.9 secs

     End of self-consistent calculation

          k = 0.0000 0.0000 0.0000 (  6307 PWs)   bands (ev):

   -18.8915 -18.8289  -6.7087  -6.1059  -2.1122  -2.1122  -2.1075  -2.1075

     occupation numbers 
     1.0000   1.0000   1.0000   1.0000   1.0000   1.0000   1.0000   1.0000

          k = 0.0000 0.0962 0.0000 (  6319 PWs)   bands (ev):

   -18.7512 -18.6896  -6.5166  -5.9198  -2.6881  -2.6761  -2.3891  -2.3834

     occupation numbers 
     1.0000   1.0000   1.0000   1.0000   1.0000   1.0000   1.0000   1.0000

          k = 0.0000 0.1925 0.0000 (  6291 PWs)   bands (ev):

   -18.3374 -18.2790  -5.9482  -5.3708  -4.1451  -4.1222  -3.0614  -3.0541

     occupation numbers 
     1.0000   1.0000   1.0000   1.0000   1.0000   1.0000   1.0000   1.0000

          k = 0.0000 0.2887 0.0000 (  6279 PWs)   bands (ev):

   -17.6767 -17.6235  -6.0043  -5.9724  -5.0292  -4.4881  -3.8385  -3.8297

     occupation numbers 
     1.0000   1.0000   1.0000   1.0000   1.0000   1.0000   1.0000   1.0000

          k = 0.0000 0.3849 0.0000 (  6254 PWs)   bands (ev):

   -16.8371 -16.7913  -7.8658  -7.8259  -4.5045  -4.4949  -3.8419  -3.3609

     occupation numbers 
     1.0000   1.0000   1.0000   1.0000   1.0000   1.0000   1.0000   1.0000

          k = 0.0000 0.4811 0.0000 (  6236 PWs)   bands (ev):

   -15.9997 -15.9628  -9.3737  -9.3246  -4.9409  -4.9307  -2.5989  -2.2153

     occupation numbers 
     1.0000   1.0000   1.0000   1.0000   1.0000   1.0000   1.0000   1.0000

          k = 0.0000-0.5774 0.0000 (  6230 PWs)   bands (ev):

   -15.5976 -15.5662 -10.0077  -9.9533  -5.0918  -5.0815  -1.9542  -1.6520

     occupation numbers 
     1.0000   1.0000   1.0000   1.0000   1.0000   1.0000   1.0000   1.0000

          k = 0.0833 0.1443 0.0000 (  6309 PWs)   bands (ev):

   -18.4740 -18.4145  -6.1362  -5.5520  -3.6336  -3.6137  -2.9342  -2.9271

     occupation numbers 
     1.0000   1.0000   1.0000   1.0000   1.0000   1.0000   1.0000   1.0000

          k = 0.0833 0.2406 0.0000 (  6260 PWs)   bands (ev):

   -17.9354 -17.8801  -5.3990  -5.1696  -5.1538  -4.8299  -3.7732  -3.7634

     occupation numbers 
     1.0000   1.0000   1.0000   1.0000   1.0000   1.0000   1.0000   1.0000

          k = 0.0833 0.3368 0.0000 (  6252 PWs)   bands (ev):

   -17.1786 -17.1296  -6.9723  -6.9372  -4.5635  -4.5516  -4.3303  -3.8213

     occupation numbers 
     1.0000   1.0000   1.0000   1.0000   1.0000   1.0000   1.0000   1.0000

          k = 0.0833 0.4330 0.0000 (  6232 PWs)   bands (ev):

   -16.3143 -16.2735  -8.6481  -8.6044  -5.1456  -5.1322  -3.0813  -2.6500

     occupation numbers 
     1.0000   1.0000   1.0000   1.0000   1.0000   1.0000   1.0000   1.0000

          k = 0.0833 0.5292 0.0000 (  6221 PWs)   bands (ev):

   -15.6337 -15.6012  -9.7657  -9.7139  -5.4506  -5.4366  -2.0279  -1.7030

     occupation numbers 
     1.0000   1.0000   1.0000   1.0000   1.0000   1.0000   1.0000   1.0000

          k = 0.1667 0.2887 0.0000 (  6261 PWs)   bands (ev):

   -17.2965 -17.2464  -6.4440  -6.4117  -4.8419  -4.8278  -4.4977  -3.9797

     occupation numbers 
     1.0000   1.0000   1.0000   1.0000   1.0000   1.0000   1.0000   1.0000

          k = 0.1667 0.3849 0.0000 (  6247 PWs)   bands (ev):

   -16.4918 -16.4489  -7.8751  -7.8374  -5.7432  -5.7244  -3.3496  -2.8938

     occupation numbers 
     1.0000   1.0000   1.0000   1.0000   1.0000   1.0000   1.0000   1.0000

          k = 0.1667 0.4811 0.0000 (  6231 PWs)   bands (ev):

   -15.7026 -15.6681  -9.1498  -9.1045  -6.2828  -6.2615  -2.1632  -1.8016

     occupation numbers 
     1.0000   1.0000   1.0000   1.0000   1.0000   1.0000   1.0000   1.0000

          k = 0.1667 0.5774 0.0000 (  6230 PWs)   bands (ev):

   -15.3315 -15.3018  -9.7010  -9.6511  -6.4603  -6.4382  -1.5589  -1.2693

     occupation numbers 
     1.0000   1.0000   1.0000   1.0000   1.0000   1.0000   1.0000   1.0000

          k = 0.2500 0.4330 0.0000 (  6237 PWs)   bands (ev):

   -15.7355 -15.7001  -8.6771  -8.6384  -6.8545  -6.8302  -2.2258  -1.8490

     occupation numbers 
     1.0000   1.0000   1.0000   1.0000   1.0000   1.0000   1.0000   1.0000

          k = 0.2500 0.5292 0.0000 (  6245 PWs)   bands (ev):

   -15.1735 -15.1448  -9.2672  -9.2270  -7.4644  -7.4378  -1.3255  -1.0360

     occupation numbers 
     1.0000   1.0000   1.0000   1.0000   1.0000   1.0000   1.0000   1.0000

          k = 0.3333 0.5774 0.0000 (  6234 PWs)   bands (ev):

   -14.9567 -14.9304  -9.1199  -9.1199  -8.0760  -8.0760  -0.9623  -0.7054

     occupation numbers 
     1.0000   1.0000   1.0000   1.0000   1.0000   1.0000   1.0000   1.0000

     the Fermi energy is     0.0018 ev

!    total energy              =     -53.62263304 Ry
     estimated scf accuracy    <       0.00000080 Ry
     smearing contrib. (-TS)   =       0.00000000 Ry
     internal energy E=F+TS    =     -53.62263304 Ry

     The total energy is F=E-TS. E is the sum of the following terms:
     one-electron contribution =    -269.60087206 Ry
     hartree contribution      =     139.94486718 Ry
     xc contribution           =     -17.50221281 Ry
     ewald contribution        =      93.53558464 Ry

     convergence has been achieved in  21 iterations

     Forces acting on atoms (cartesian axes, Ry/au):

     atom    1 type  1   force =     0.00000000    0.00000000   -0.00104209
     atom    2 type  2   force =     0.00000000    0.00000000   -0.00096366
     atom    3 type  1   force =     0.00000000    0.00000000    0.00104209
     atom    4 type  2   force =    -0.00000000   -0.00000000    0.00096366
     The non-local contrib.  to forces
     atom    1 type  1   force =     0.00000000    0.00000000   -0.00189568
     atom    2 type  2   force =     0.00000000    0.00000000   -0.00064210
     atom    3 type  1   force =     0.00000000    0.00000000    0.00189568
     atom    4 type  2   force =     0.00000000   -0.00000000    0.00064210
     The ionic contribution  to forces
     atom    1 type  1   force =    -0.00000001    0.00000000  -13.50991447
     atom    2 type  2   force =     0.00000001   -0.00000000   -8.10423637
     atom    3 type  1   force =     0.00000001   -0.00000000   13.50991447
     atom    4 type  2   force =    -0.00000001    0.00000000    8.10423637
     The local contribution  to forces
     atom    1 type  1   force =     0.00000000   -0.00000000   13.51075817
     atom    2 type  2   force =    -0.00000000    0.00000000    8.10392057
     atom    3 type  1   force =    -0.00000000    0.00000000  -13.51075817
     atom    4 type  2   force =     0.00000000   -0.00000000   -8.10392057
     The core correction contribution to forces
     atom    1 type  1   force =    -0.00000000    0.00000000    0.00008625
     atom    2 type  2   force =    -0.00000000    0.00000000    0.00002673
     atom    3 type  1   force =     0.00000000   -0.00000000   -0.00008625
     atom    4 type  2   force =     0.00000000   -0.00000000   -0.00002673
     The Hubbard contrib.    to forces
     atom    1 type  1   force =     0.00000000    0.00000000    0.00000000
     atom    2 type  2   force =     0.00000000    0.00000000    0.00000000
     atom    3 type  1   force =     0.00000000    0.00000000    0.00000000
     atom    4 type  2   force =     0.00000000    0.00000000    0.00000000
     The SCF correction term to forces
     atom    1 type  1   force =     0.00000000   -0.00000000   -0.00007636
     atom    2 type  2   force =     0.00000000   -0.00000000   -0.00003250
     atom    3 type  1   force =    -0.00000000    0.00000000    0.00007636
     atom    4 type  2   force =    -0.00000000    0.00000000    0.00003250

     Total force =     0.002007     Total SCF correction =     0.000117


     Computing stress (Cartesian axis) and pressure

          total   stress  (Ry/bohr**3)                   (kbar)     P=       84.27
   0.00084507  -0.00000000   0.00000000          124.31       -0.00        0.00
  -0.00000000   0.00084507   0.00000000           -0.00      124.31        0.00
   0.00000000   0.00000000   0.00002839            0.00        0.00        4.18

     kinetic stress (kbar)   7031.39      0.00      0.00
                                0.00   7031.39      0.00
                                0.00      0.00   7597.26

     local   stress (kbar) -81125.47      0.00      0.00
                                0.00 -81125.47     -0.00
                                0.00     -0.00  82380.09

     nonloc. stress (kbar)  -1176.31     -0.00      0.00
                               -0.00  -1176.31      0.00
                                0.00      0.00  -1122.47

     hartree stress (kbar)  38645.32     -0.00     -0.00
                               -0.00  38645.32      0.00
                               -0.00      0.00 -37502.51

     exc-cor stress (kbar)   -697.89     -0.00     -0.00
                               -0.00   -697.89      0.00
                               -0.00      0.00   -749.81

     corecor stress (kbar)   -771.08      0.00     -0.00
                                0.00   -771.08      0.00
                               -0.00      0.00   -755.08

     ewald   stress (kbar)  38218.34     -0.00     -0.00
                               -0.00  38218.34      0.00
                               -0.00      0.00 -49843.31

     hubbard stress (kbar)      0.00      0.00      0.00
                                0.00      0.00      0.00
                                0.00      0.00      0.00

     DFT-D   stress (kbar)      0.00      0.00      0.00
                                0.00      0.00      0.00
                                0.00      0.00      0.00

     XDM     stress (kbar)      0.00      0.00      0.00
                                0.00      0.00      0.00
                                0.00      0.00      0.00

     dft-nl  stress (kbar)      0.00      0.00      0.00
                                0.00      0.00      0.00
                                0.00      0.00      0.00

     TS-vdW  stress (kbar)      0.00      0.00      0.00
                                0.00      0.00      0.00
                                0.00      0.00      0.00

     MDB     stress (kbar)      0.00      0.00      0.00
                                0.00      0.00      0.00
                                0.00      0.00      0.00

     3D-RISM stress (kbar)      0.00      0.00      0.00
                                0.00      0.00      0.00
                                0.00      0.00      0.00


     BFGS Geometry Optimization
     Energy error            =      0.0E+00 Ry
     Gradient error          =      1.0E-03 Ry/Bohr
     Cell gradient error     =      1.2E+02 kbar

     number of scf cycles    =   1
     number of bfgs steps    =   0

     enthalpy           new  =     -53.6226330449 Ry

     new trust radius        =       0.0961118847 bohr
     new conv_thr            =       0.0000010000 Ry

     new unit-cell volume =    539.88149 a.u.^3 (    80.00218 Ang^3 )
     density =      1.02983 g/cm^3

CELL_PARAMETERS (alat=  4.63500000)
   1.021126694  -0.000000000   0.000000000
  -0.510563347   0.884321658   0.000000000
   0.000000000   0.000000000   6.004257767

ATOMIC_POSITIONS (crystal)
N             0.0000000000        0.0000000000       -0.0000374718
B             0.3333333330        0.6666666670       -0.0000346517
N             0.0000000000        0.0000000000        0.2500374718
B             0.6666666670        0.3333333330        0.2500346517



     Writing config-only to output data dir ./graphene.save/
     NEW-OLD atomic charge density approx. for the potential

     negative rho (up, down):  2.570E-06 0.000E+00
     extrapolated charge   16.66608, renormalised to   16.00000

     total cpu time spent up to now is        8.7 secs

     Self-consistent Calculation

     iteration #  1     ecut=    80.00 Ry     beta= 0.70
     Davidson diagonalization with overlap

---- Real-time Memory Report at c_bands before calling an iterative solver
           216 MiB given to the printing process from OS
             0 MiB allocation reported by mallinfo(arena+hblkhd)
        250037 MiB available memory on the node where the printing process lives
------------------
     c_bands:  4 eigenvalues not converged
     c_bands:  1 eigenvalues not converged
     c_bands:  5 eigenvalues not converged
     c_bands:  4 eigenvalues not converged
     c_bands:  1 eigenvalues not converged
     c_bands:  1 eigenvalues not converged
     c_bands:  2 eigenvalues not converged
     c_bands:  3 eigenvalues not converged
     c_bands:  4 eigenvalues not converged
     c_bands:  5 eigenvalues not converged
     ethr =  1.00E-06,  avg # of iterations = 25.9

     total cpu time spent up to now is       10.3 secs

     total energy              =      -8.88391756 Ry
     estimated scf accuracy    <      46.66042171 Ry

     iteration #  2     ecut=    80.00 Ry     beta= 0.70
     Davidson diagonalization with overlap

---- Real-time Memory Report at c_bands before calling an iterative solver
           216 MiB given to the printing process from OS
             0 MiB allocation reported by mallinfo(arena+hblkhd)
        250029 MiB available memory on the node where the printing process lives
------------------
     c_bands:  1 eigenvalues not converged
     ethr =  1.00E-02,  avg # of iterations = 13.3

     total cpu time spent up to now is       11.0 secs

     total energy              =     -57.75850014 Ry
     estimated scf accuracy    <      44.17934529 Ry

     iteration #  3     ecut=    80.00 Ry     beta= 0.70
     Davidson diagonalization with overlap

---- Real-time Memory Report at c_bands before calling an iterative solver
           216 MiB given to the printing process from OS
             0 MiB allocation reported by mallinfo(arena+hblkhd)
        250026 MiB available memory on the node where the printing process lives
------------------
     ethr =  1.00E-02,  avg # of iterations =  5.8

     total cpu time spent up to now is       11.3 secs

     total energy              =     -57.55658298 Ry
     estimated scf accuracy    <      10.79580694 Ry

     iteration #  4     ecut=    80.00 Ry     beta= 0.70
     Davidson diagonalization with overlap

---- Real-time Memory Report at c_bands before calling an iterative solver
           216 MiB given to the printing process from OS
             0 MiB allocation reported by mallinfo(arena+hblkhd)
        250025 MiB available memory on the node where the printing process lives
------------------
     ethr =  1.00E-02,  avg # of iterations =  1.9

     total cpu time spent up to now is       11.6 secs

     total energy              =     -54.43622440 Ry
     estimated scf accuracy    <       6.11953535 Ry

     iteration #  5     ecut=    80.00 Ry     beta= 0.70
     Davidson diagonalization with overlap

---- Real-time Memory Report at c_bands before calling an iterative solver
           216 MiB given to the printing process from OS
             0 MiB allocation reported by mallinfo(arena+hblkhd)
        250024 MiB available memory on the node where the printing process lives
------------------
     ethr =  1.00E-02,  avg # of iterations =  2.0

     total cpu time spent up to now is       11.8 secs

     total energy              =     -54.30947556 Ry
     estimated scf accuracy    <       2.30844042 Ry

     iteration #  6     ecut=    80.00 Ry     beta= 0.70
     Davidson diagonalization with overlap

---- Real-time Memory Report at c_bands before calling an iterative solver
           216 MiB given to the printing process from OS
             0 MiB allocation reported by mallinfo(arena+hblkhd)
        250023 MiB available memory on the node where the printing process lives
------------------
     ethr =  1.00E-02,  avg # of iterations =  1.0

     total cpu time spent up to now is       12.0 secs

     total energy              =     -53.67533457 Ry
     estimated scf accuracy    <       1.90237744 Ry

     iteration #  7     ecut=    80.00 Ry     beta= 0.70
     Davidson diagonalization with overlap

---- Real-time Memory Report at c_bands before calling an iterative solver
           216 MiB given to the printing process from OS
             0 MiB allocation reported by mallinfo(arena+hblkhd)
        250021 MiB available memory on the node where the printing process lives
------------------
     ethr =  1.00E-02,  avg # of iterations =  1.0

     total cpu time spent up to now is       12.2 secs

     total energy              =     -53.24644767 Ry
     estimated scf accuracy    <       1.04565222 Ry

     iteration #  8     ecut=    80.00 Ry     beta= 0.70
     Davidson diagonalization with overlap

---- Real-time Memory Report at c_bands before calling an iterative solver
           216 MiB given to the printing process from OS
             0 MiB allocation reported by mallinfo(arena+hblkhd)
        250028 MiB available memory on the node where the printing process lives
------------------
     ethr =  6.54E-03,  avg # of iterations =  1.9

     total cpu time spent up to now is       12.5 secs

     total energy              =     -53.74111508 Ry
     estimated scf accuracy    <       0.43847726 Ry

     iteration #  9     ecut=    80.00 Ry     beta= 0.70
     Davidson diagonalization with overlap

---- Real-time Memory Report at c_bands before calling an iterative solver
           216 MiB given to the printing process from OS
             0 MiB allocation reported by mallinfo(arena+hblkhd)
        250019 MiB available memory on the node where the printing process lives
------------------
     ethr =  2.74E-03,  avg # of iterations =  1.9

     total cpu time spent up to now is       12.7 secs

     total energy              =     -53.83875695 Ry
     estimated scf accuracy    <       0.94828784 Ry

     iteration # 10     ecut=    80.00 Ry     beta= 0.70
     Davidson diagonalization with overlap

---- Real-time Memory Report at c_bands before calling an iterative solver
           216 MiB given to the printing process from OS
             0 MiB allocation reported by mallinfo(arena+hblkhd)
        249776 MiB available memory on the node where the printing process lives
------------------
     ethr =  2.74E-03,  avg # of iterations =  1.0

     negative rho (up, down):  2.384E-04 0.000E+00

     total cpu time spent up to now is       12.9 secs

     total energy              =     -52.97662393 Ry
     estimated scf accuracy    <       1.02623822 Ry

     iteration # 11     ecut=    80.00 Ry     beta= 0.70
     Davidson diagonalization with overlap

---- Real-time Memory Report at c_bands before calling an iterative solver
           216 MiB given to the printing process from OS
             0 MiB allocation reported by mallinfo(arena+hblkhd)
        250021 MiB available memory on the node where the printing process lives
------------------
     ethr =  2.74E-03,  avg # of iterations =  5.2

     total cpu time spent up to now is       13.1 secs

     total energy              =     -53.55620916 Ry
     estimated scf accuracy    <       0.12036959 Ry

     iteration # 12     ecut=    80.00 Ry     beta= 0.70
     Davidson diagonalization with overlap

---- Real-time Memory Report at c_bands before calling an iterative solver
           216 MiB given to the printing process from OS
             0 MiB allocation reported by mallinfo(arena+hblkhd)
        250021 MiB available memory on the node where the printing process lives
------------------
     ethr =  7.52E-04,  avg # of iterations =  1.5

     total cpu time spent up to now is       13.3 secs

     total energy              =     -53.56430404 Ry
     estimated scf accuracy    <       0.09897830 Ry

     iteration # 13     ecut=    80.00 Ry     beta= 0.70
     Davidson diagonalization with overlap

---- Real-time Memory Report at c_bands before calling an iterative solver
           216 MiB given to the printing process from OS
             0 MiB allocation reported by mallinfo(arena+hblkhd)
        250021 MiB available memory on the node where the printing process lives
------------------
     ethr =  6.19E-04,  avg # of iterations =  1.0

     negative rho (up, down):  6.260E-04 0.000E+00

     total cpu time spent up to now is       13.5 secs

     total energy              =     -53.53316395 Ry
     estimated scf accuracy    <       0.10082310 Ry

     iteration # 14     ecut=    80.00 Ry     beta= 0.70
     Davidson diagonalization with overlap

---- Real-time Memory Report at c_bands before calling an iterative solver
           216 MiB given to the printing process from OS
             0 MiB allocation reported by mallinfo(arena+hblkhd)
        250022 MiB available memory on the node where the printing process lives
------------------
     ethr =  6.19E-04,  avg # of iterations =  2.6

     negative rho (up, down):  2.787E-02 0.000E+00

     total cpu time spent up to now is       13.7 secs

     total energy              =     -53.60404099 Ry
     estimated scf accuracy    <       0.02210201 Ry

     iteration # 15     ecut=    80.00 Ry     beta= 0.70
     Davidson diagonalization with overlap

---- Real-time Memory Report at c_bands before calling an iterative solver
           216 MiB given to the printing process from OS
             0 MiB allocation reported by mallinfo(arena+hblkhd)
        250022 MiB available memory on the node where the printing process lives
------------------
     ethr =  1.38E-04,  avg # of iterations =  2.3

     total cpu time spent up to now is       13.9 secs

     total energy              =     -53.58448296 Ry
     estimated scf accuracy    <       0.04877350 Ry

     iteration # 16     ecut=    80.00 Ry     beta= 0.70
     Davidson diagonalization with overlap

---- Real-time Memory Report at c_bands before calling an iterative solver
           216 MiB given to the printing process from OS
             0 MiB allocation reported by mallinfo(arena+hblkhd)
        250022 MiB available memory on the node where the printing process lives
------------------
     ethr =  1.38E-04,  avg # of iterations =  3.7

     total cpu time spent up to now is       14.2 secs

     total energy              =     -53.76294182 Ry
     estimated scf accuracy    <       0.13405210 Ry

     iteration # 17     ecut=    80.00 Ry     beta= 0.70
     Davidson diagonalization with overlap

---- Real-time Memory Report at c_bands before calling an iterative solver
           216 MiB given to the printing process from OS
             0 MiB allocation reported by mallinfo(arena+hblkhd)
        250022 MiB available memory on the node where the printing process lives
------------------
     ethr =  1.38E-04,  avg # of iterations =  2.2

     total cpu time spent up to now is       14.5 secs

     total energy              =     -53.65356611 Ry
     estimated scf accuracy    <       0.23866150 Ry

     iteration # 18     ecut=    80.00 Ry     beta= 0.70
     Davidson diagonalization with overlap

---- Real-time Memory Report at c_bands before calling an iterative solver
           216 MiB given to the printing process from OS
             0 MiB allocation reported by mallinfo(arena+hblkhd)
        250022 MiB available memory on the node where the printing process lives
------------------
     ethr =  1.38E-04,  avg # of iterations =  2.1

     total cpu time spent up to now is       14.7 secs

     total energy              =     -53.63701825 Ry
     estimated scf accuracy    <       0.05810344 Ry

     iteration # 19     ecut=    80.00 Ry     beta= 0.70
     Davidson diagonalization with overlap

---- Real-time Memory Report at c_bands before calling an iterative solver
           216 MiB given to the printing process from OS
             0 MiB allocation reported by mallinfo(arena+hblkhd)
        250022 MiB available memory on the node where the printing process lives
------------------
     ethr =  1.38E-04,  avg # of iterations =  2.0

     negative rho (up, down):  1.632E-02 0.000E+00

     total cpu time spent up to now is       14.9 secs

     total energy              =     -53.63257732 Ry
     estimated scf accuracy    <       0.01620262 Ry

     iteration # 20     ecut=    80.00 Ry     beta= 0.70
     Davidson diagonalization with overlap

---- Real-time Memory Report at c_bands before calling an iterative solver
           216 MiB given to the printing process from OS
             0 MiB allocation reported by mallinfo(arena+hblkhd)
        250022 MiB available memory on the node where the printing process lives
------------------
     ethr =  1.01E-04,  avg # of iterations =  2.0

     negative rho (up, down):  8.489E-04 0.000E+00

     total cpu time spent up to now is       15.1 secs

     total energy              =     -53.63750376 Ry
     estimated scf accuracy    <       0.00474327 Ry

     iteration # 21     ecut=    80.00 Ry     beta= 0.70
     Davidson diagonalization with overlap

---- Real-time Memory Report at c_bands before calling an iterative solver
           216 MiB given to the printing process from OS
             0 MiB allocation reported by mallinfo(arena+hblkhd)
        250022 MiB available memory on the node where the printing process lives
------------------
     ethr =  2.96E-05,  avg # of iterations =  2.2

     total cpu time spent up to now is       15.3 secs

     total energy              =     -53.63310288 Ry
     estimated scf accuracy    <       0.01744884 Ry

     iteration # 22     ecut=    80.00 Ry     beta= 0.70
     Davidson diagonalization with overlap

---- Real-time Memory Report at c_bands before calling an iterative solver
           216 MiB given to the printing process from OS
             0 MiB allocation reported by mallinfo(arena+hblkhd)
        250022 MiB available memory on the node where the printing process lives
------------------
     ethr =  2.96E-05,  avg # of iterations =  2.0

     total cpu time spent up to now is       15.6 secs

     total energy              =     -53.63415727 Ry
     estimated scf accuracy    <       0.00608402 Ry

     iteration # 23     ecut=    80.00 Ry     beta= 0.70
     Davidson diagonalization with overlap

---- Real-time Memory Report at c_bands before calling an iterative solver
           216 MiB given to the printing process from OS
             0 MiB allocation reported by mallinfo(arena+hblkhd)
        250021 MiB available memory on the node where the printing process lives
------------------
     ethr =  2.96E-05,  avg # of iterations =  2.0

     negative rho (up, down):  2.537E-03 0.000E+00

     total cpu time spent up to now is       15.8 secs

     total energy              =     -53.63108027 Ry
     estimated scf accuracy    <       0.00734126 Ry

     iteration # 24     ecut=    80.00 Ry     beta= 0.70
     Davidson diagonalization with overlap

---- Real-time Memory Report at c_bands before calling an iterative solver
           216 MiB given to the printing process from OS
             0 MiB allocation reported by mallinfo(arena+hblkhd)
        250021 MiB available memory on the node where the printing process lives
------------------
     ethr =  2.96E-05,  avg # of iterations =  2.0

     negative rho (up, down):  1.677E-04 0.000E+00

     total cpu time spent up to now is       16.1 secs

     total energy              =     -53.63249748 Ry
     estimated scf accuracy    <       0.00043278 Ry

     iteration # 25     ecut=    80.00 Ry     beta= 0.70
     Davidson diagonalization with overlap

---- Real-time Memory Report at c_bands before calling an iterative solver
           216 MiB given to the printing process from OS
             0 MiB allocation reported by mallinfo(arena+hblkhd)
        250019 MiB available memory on the node where the printing process lives
------------------
     ethr =  2.70E-06,  avg # of iterations =  2.2

     total cpu time spent up to now is       16.3 secs

     total energy              =     -53.63243017 Ry
     estimated scf accuracy    <       0.00037614 Ry

     iteration # 26     ecut=    80.00 Ry     beta= 0.70
     Davidson diagonalization with overlap

---- Real-time Memory Report at c_bands before calling an iterative solver
           216 MiB given to the printing process from OS
             0 MiB allocation reported by mallinfo(arena+hblkhd)
        250018 MiB available memory on the node where the printing process lives
------------------
     ethr =  2.35E-06,  avg # of iterations =  2.0

     total cpu time spent up to now is       16.5 secs

     total energy              =     -53.63248971 Ry
     estimated scf accuracy    <       0.00001198 Ry

     iteration # 27     ecut=    80.00 Ry     beta= 0.70
     Davidson diagonalization with overlap

---- Real-time Memory Report at c_bands before calling an iterative solver
           216 MiB given to the printing process from OS
             0 MiB allocation reported by mallinfo(arena+hblkhd)
        250016 MiB available memory on the node where the printing process lives
------------------
     ethr =  7.49E-08,  avg # of iterations =  3.1

     total cpu time spent up to now is       16.8 secs

     End of self-consistent calculation

          k = 0.0000 0.0000 0.0000 (  6307 PWs)   bands (ev):

   -18.7353 -18.6715  -6.6036  -5.9869  -2.4074  -2.4074  -2.4020  -2.4020

     occupation numbers 
     1.0000   1.0000   1.0000   1.0000   1.0000   1.0000   1.0000   1.0000

          k = 0.0000 0.0942 0.0000 (  6319 PWs)   bands (ev):

   -18.6013 -18.5384  -6.4211  -5.8106  -2.9687  -2.9555  -2.6666  -2.6603

     occupation numbers 
     1.0000   1.0000   1.0000   1.0000   1.0000   1.0000   1.0000   1.0000

          k = 0.0000 0.1885 0.0000 (  6291 PWs)   bands (ev):

   -18.2063 -18.1467  -5.8815  -5.2915  -4.3811  -4.3558  -3.2980  -3.2899

     occupation numbers 
     1.0000   1.0000   1.0000   1.0000   1.0000   1.0000   1.0000   1.0000

          k = 0.0000 0.2827 0.0000 (  6279 PWs)   bands (ev):

   -17.5776 -17.5232  -6.1727  -6.1379  -5.0095  -4.4569  -4.0302  -4.0205

     occupation numbers 
     1.0000   1.0000   1.0000   1.0000   1.0000   1.0000   1.0000   1.0000

          k = 0.0000 0.3769 0.0000 (  6254 PWs)   bands (ev):

   -16.7835 -16.7365  -7.9547  -7.9114  -4.6594  -4.6486  -3.8861  -3.3956

     occupation numbers 
     1.0000   1.0000   1.0000   1.0000   1.0000   1.0000   1.0000   1.0000

          k = 0.0000 0.4712 0.0000 (  6236 PWs)   bands (ev):

   -16.0011 -15.9630  -9.3841  -9.3313  -5.0722  -5.0609  -2.7165  -2.3248

     occupation numbers 
     1.0000   1.0000   1.0000   1.0000   1.0000   1.0000   1.0000   1.0000

          k =-0.0000-0.5654 0.0000 (  6230 PWs)   bands (ev):

   -15.6314 -15.5986  -9.9775  -9.9194  -5.2150  -5.2035  -2.1146  -1.8036

     occupation numbers 
     1.0000   1.0000   1.0000   1.0000   1.0000   1.0000   1.0000   1.0000

          k = 0.0816 0.1414 0.0000 (  6309 PWs)   bands (ev):

   -18.3366 -18.2759  -6.0598  -5.4626  -3.8877  -3.8658  -3.1796  -3.1715

     occupation numbers 
     1.0000   1.0000   1.0000   1.0000   1.0000   1.0000   1.0000   1.0000

          k = 0.0816 0.2356 0.0000 (  6260 PWs)   bands (ev):

   -17.8234 -17.7669  -5.4104  -5.3510  -5.3203  -4.7810  -3.9735  -3.9624

     occupation numbers 
     1.0000   1.0000   1.0000   1.0000   1.0000   1.0000   1.0000   1.0000

          k = 0.0816 0.3298 0.0000 (  6252 PWs)   bands (ev):

   -17.1056 -17.0554  -7.0997  -7.0612  -4.7244  -4.7110  -4.3477  -3.8283

     occupation numbers 
     1.0000   1.0000   1.0000   1.0000   1.0000   1.0000   1.0000   1.0000

          k = 0.0816 0.4241 0.0000 (  6232 PWs)   bands (ev):

   -16.2933 -16.2514  -8.6941  -8.6467  -5.2786  -5.2636  -3.1689  -2.7291

     occupation numbers 
     1.0000   1.0000   1.0000   1.0000   1.0000   1.0000   1.0000   1.0000

          k = 0.0816 0.5183 0.0000 (  6221 PWs)   bands (ev):

   -15.6638 -15.6300  -9.7445  -9.6889  -5.5691  -5.5535  -2.1820  -1.8488

     occupation numbers 
     1.0000   1.0000   1.0000   1.0000   1.0000   1.0000   1.0000   1.0000

          k = 0.1632 0.2827 0.0000 (  6261 PWs)   bands (ev):

   -17.2170 -17.1658  -6.5943  -6.5587  -4.9959  -4.9796  -4.5061  -3.9773

     occupation numbers 
     1.0000   1.0000   1.0000   1.0000   1.0000   1.0000   1.0000   1.0000

          k = 0.1632 0.3769 0.0000 (  6247 PWs)   bands (ev):

   -16.4590 -16.4150  -7.9519  -7.9104  -5.8660  -5.8447  -3.4209  -2.9563

     occupation numbers 
     1.0000   1.0000   1.0000   1.0000   1.0000   1.0000   1.0000   1.0000

          k = 0.1632 0.4712 0.0000 (  6231 PWs)   bands (ev):

   -15.7257 -15.6901  -9.1480  -9.0987  -6.3891  -6.3651  -2.3060  -1.9366

     occupation numbers 
     1.0000   1.0000   1.0000   1.0000   1.0000   1.0000   1.0000   1.0000

          k = 0.1632 0.5654 0.0000 (  6230 PWs)   bands (ev):

   -15.3868 -15.3559  -9.6587  -9.6048  -6.5613  -6.5365  -1.7428  -1.4445

     occupation numbers 
     1.0000   1.0000   1.0000   1.0000   1.0000   1.0000   1.0000   1.0000

          k = 0.2448 0.4241 0.0000 (  6237 PWs)   bands (ev):

   -15.7554 -15.7190  -8.6848  -8.6412  -6.9551  -6.9268  -2.3636  -1.9791

     occupation numbers 
     1.0000   1.0000   1.0000   1.0000   1.0000   1.0000   1.0000   1.0000

          k = 0.2448 0.5183 0.0000 (  6245 PWs)   bands (ev):

   -15.2421 -15.2122  -9.2058  -9.1603  -7.5642  -7.5328  -1.5228  -1.2250

     occupation numbers 
     1.0000   1.0000   1.0000   1.0000   1.0000   1.0000   1.0000   1.0000

          k = 0.3264 0.5654 0.0000 (  6234 PWs)   bands (ev):

   -15.0464 -15.0189  -8.9765  -8.9765  -8.2235  -8.2235  -1.1849  -0.9190

     occupation numbers 
     1.0000   1.0000   1.0000   1.0000   1.0000   1.0000   1.0000   1.0000

     the Fermi energy is    -0.2002 ev

!    total energy              =     -53.63249445 Ry
     estimated scf accuracy    <       0.00000046 Ry
     smearing contrib. (-TS)   =       0.00000000 Ry
     internal energy E=F+TS    =     -53.63249445 Ry

     The total energy is F=E-TS. E is the sum of the following terms:
     one-electron contribution =    -258.84111171 Ry
     hartree contribution      =     134.41557250 Ry
     xc contribution           =     -17.33255839 Ry
     ewald contribution        =      88.12560315 Ry

     convergence has been achieved in  27 iterations

     Forces acting on atoms (cartesian axes, Ry/au):

     atom    1 type  1   force =    -0.00000000    0.00000000   -0.00129904
     atom    2 type  2   force =     0.00000000    0.00000000   -0.00117949
     atom    3 type  1   force =     0.00000000    0.00000000    0.00129904
     atom    4 type  2   force =     0.00000000    0.00000000    0.00117949
     The non-local contrib.  to forces
     atom    1 type  1   force =     0.00000000    0.00000000   -0.00169655
     atom    2 type  2   force =    -0.00000000   -0.00000000   -0.00041098
     atom    3 type  1   force =     0.00000000    0.00000000    0.00169655
     atom    4 type  2   force =    -0.00000000   -0.00000000    0.00041098
     The ionic contribution  to forces
     atom    1 type  1   force =    -0.00000001    0.00000000  -12.95360452
     atom    2 type  2   force =     0.00000001   -0.00000000   -7.76948047
     atom    3 type  1   force =     0.00000001   -0.00000000   12.95360452
     atom    4 type  2   force =    -0.00000001    0.00000000    7.76948047
     The local contribution  to forces
     atom    1 type  1   force =     0.00000000   -0.00000000   12.95513986
     atom    2 type  2   force =    -0.00000000    0.00000000    7.76927177
     atom    3 type  1   force =    -0.00000000    0.00000000  -12.95513986
     atom    4 type  2   force =     0.00000000   -0.00000000   -7.76927177
     The core correction contribution to forces
     atom    1 type  1   force =    -0.00000000    0.00000000    0.00008588
     atom    2 type  2   force =    -0.00000000    0.00000000    0.00001501
     atom    3 type  1   force =     0.00000000   -0.00000000   -0.00008588
     atom    4 type  2   force =     0.00000000   -0.00000000   -0.00001501
     The Hubbard contrib.    to forces
     atom    1 type  1   force =     0.00000000    0.00000000    0.00000000
     atom    2 type  2   force =     0.00000000    0.00000000    0.00000000
     atom    3 type  1   force =     0.00000000    0.00000000    0.00000000
     atom    4 type  2   force =     0.00000000    0.00000000    0.00000000
     The SCF correction term to forces
     atom    1 type  1   force =    -0.00000000    0.00000000   -0.00122372
     atom    2 type  2   force =    -0.00000000    0.00000000   -0.00057482
     atom    3 type  1   force =     0.00000000   -0.00000000    0.00122372
     atom    4 type  2   force =     0.00000000   -0.00000000    0.00057482

     Total force =     0.002481     Total SCF correction =     0.001912
     SCF correction compared to forces is large: reduce conv_thr to get better values


     Computing stress (Cartesian axis) and pressure

          total   stress  (Ry/bohr**3)                   (kbar)     P=        8.54
   0.00007557   0.00000000  -0.00000000           11.12        0.00       -0.00
   0.00000000   0.00007557  -0.00000000            0.00       11.12       -0.00
  -0.00000000  -0.00000000   0.00002294           -0.00       -0.00        3.37

     kinetic stress (kbar)   6597.67      0.00      0.00
                                0.00   6597.67      0.00
                                0.00      0.00   7204.16

     local   stress (kbar) -74519.49      0.00      0.00
                                0.00 -74519.49     -0.00
                                0.00     -0.00  75469.30

     nonloc. stress (kbar)  -1087.73      0.00      0.00
                                0.00  -1087.73      0.00
                                0.00      0.00  -1055.29

     hartree stress (kbar)  35490.00      0.00     -0.00
                                0.00  35490.00      0.00
                               -0.00      0.00 -34354.91

     exc-cor stress (kbar)   -656.48     -0.00     -0.00
                               -0.00   -656.48      0.00
                               -0.00      0.00   -705.02

     corecor stress (kbar)   -735.44      0.00      0.00
                                0.00   -735.44     -0.00
                                0.00     -0.00   -721.89

     ewald   stress (kbar)  34922.58     -0.00     -0.00
                               -0.00  34922.58      0.00
                               -0.00      0.00 -45832.99

     hubbard stress (kbar)      0.00      0.00      0.00
                                0.00      0.00      0.00
                                0.00      0.00      0.00

     DFT-D   stress (kbar)      0.00      0.00      0.00
                                0.00      0.00      0.00
                                0.00      0.00      0.00

     XDM     stress (kbar)      0.00      0.00      0.00
                                0.00      0.00      0.00
                                0.00      0.00      0.00

     dft-nl  stress (kbar)      0.00      0.00      0.00
                                0.00      0.00      0.00
                                0.00      0.00      0.00

     TS-vdW  stress (kbar)      0.00      0.00      0.00
                                0.00      0.00      0.00
                                0.00      0.00      0.00

     MDB     stress (kbar)      0.00      0.00      0.00
                                0.00      0.00      0.00
                                0.00      0.00      0.00

     3D-RISM stress (kbar)      0.00      0.00      0.00
                                0.00      0.00      0.00
                                0.00      0.00      0.00

     Energy error            =      9.9E-03 Ry
     Gradient error          =      1.3E-03 Ry/Bohr
     Cell gradient error     =      1.1E+01 kbar

     number of scf cycles    =   2
     number of bfgs steps    =   1

     enthalpy           old  =     -53.6226330449 Ry
     enthalpy           new  =     -53.6324944548 Ry

     CASE: enthalpy          _new < enthalpy          _old

     new trust radius        =       0.0097462540 bohr
     new conv_thr            =       0.0000000130 Ry

     new unit-cell volume =    542.50554 a.u.^3 (    80.39103 Ang^3 )
     density =      1.02484 g/cm^3

CELL_PARAMETERS (alat=  4.63500000)
   1.023268293  -0.000000000  -0.000000000
  -0.511634147   0.886176337   0.000000000
  -0.000000000  -0.000000000   6.008212704

ATOMIC_POSITIONS (crystal)
N            -0.0000000000        0.0000000000       -0.0000889824
B             0.3333333330        0.6666666670       -0.0000814224
N             0.0000000000        0.0000000000        0.2500889824
B             0.6666666670        0.3333333330        0.2500814224



     Writing config-only to output data dir ./graphene.save/
     NEW-OLD atomic charge density approx. for the potential

     negative rho (up, down):  1.744E-07 0.000E+00
     extrapolated charge   16.07739, renormalised to   16.00000

     total cpu time spent up to now is       18.4 secs

     Self-consistent Calculation

     iteration #  1     ecut=    80.00 Ry     beta= 0.70
     Davidson diagonalization with overlap

---- Real-time Memory Report at c_bands before calling an iterative solver
           219 MiB given to the printing process from OS
             0 MiB allocation reported by mallinfo(arena+hblkhd)
        250031 MiB available memory on the node where the printing process lives
------------------
     ethr =  1.00E-06,  avg # of iterations =  5.9

     total cpu time spent up to now is       18.9 secs

     total energy              =     -53.62671982 Ry
     estimated scf accuracy    <       0.00447629 Ry

     iteration #  2     ecut=    80.00 Ry     beta= 0.70
     Davidson diagonalization with overlap

---- Real-time Memory Report at c_bands before calling an iterative solver
           219 MiB given to the printing process from OS
             0 MiB allocation reported by mallinfo(arena+hblkhd)
        250020 MiB available memory on the node where the printing process lives
------------------
     ethr =  2.80E-05,  avg # of iterations =  3.1

     total cpu time spent up to now is       19.3 secs

     total energy              =     -53.63201235 Ry
     estimated scf accuracy    <       0.01510014 Ry

     iteration #  3     ecut=    80.00 Ry     beta= 0.70
     Davidson diagonalization with overlap

---- Real-time Memory Report at c_bands before calling an iterative solver
           219 MiB given to the printing process from OS
             0 MiB allocation reported by mallinfo(arena+hblkhd)
        250020 MiB available memory on the node where the printing process lives
------------------
     ethr =  2.80E-05,  avg # of iterations =  2.0

     total cpu time spent up to now is       19.5 secs

     total energy              =     -53.63280463 Ry
     estimated scf accuracy    <       0.00253053 Ry

     iteration #  4     ecut=    80.00 Ry     beta= 0.70
     Davidson diagonalization with overlap

---- Real-time Memory Report at c_bands before calling an iterative solver
           219 MiB given to the printing process from OS
             0 MiB allocation reported by mallinfo(arena+hblkhd)
        250021 MiB available memory on the node where the printing process lives
------------------
     ethr =  1.58E-05,  avg # of iterations =  1.0

     total cpu time spent up to now is       19.7 secs

     total energy              =     -53.63252606 Ry
     estimated scf accuracy    <       0.00123888 Ry

     iteration #  5     ecut=    80.00 Ry     beta= 0.70
     Davidson diagonalization with overlap

---- Real-time Memory Report at c_bands before calling an iterative solver
           219 MiB given to the printing process from OS
             0 MiB allocation reported by mallinfo(arena+hblkhd)
        250020 MiB available memory on the node where the printing process lives
------------------
     ethr =  7.74E-06,  avg # of iterations =  1.9

     total cpu time spent up to now is       19.9 secs

     total energy              =     -53.63253136 Ry
     estimated scf accuracy    <       0.00031082 Ry

     iteration #  6     ecut=    80.00 Ry     beta= 0.70
     Davidson diagonalization with overlap

---- Real-time Memory Report at c_bands before calling an iterative solver
           219 MiB given to the printing process from OS
             0 MiB allocation reported by mallinfo(arena+hblkhd)
        250021 MiB available memory on the node where the printing process lives
------------------
     ethr =  1.94E-06,  avg # of iterations =  2.3

     total cpu time spent up to now is       20.2 secs

     total energy              =     -53.63260666 Ry
     estimated scf accuracy    <       0.00003150 Ry

     iteration #  7     ecut=    80.00 Ry     beta= 0.70
     Davidson diagonalization with overlap

---- Real-time Memory Report at c_bands before calling an iterative solver
           219 MiB given to the printing process from OS
             0 MiB allocation reported by mallinfo(arena+hblkhd)
        250020 MiB available memory on the node where the printing process lives
------------------
     ethr =  1.97E-07,  avg # of iterations =  3.4

     total cpu time spent up to now is       20.5 secs

     total energy              =     -53.63261486 Ry
     estimated scf accuracy    <       0.00004279 Ry

     iteration #  8     ecut=    80.00 Ry     beta= 0.70
     Davidson diagonalization with overlap

---- Real-time Memory Report at c_bands before calling an iterative solver
           219 MiB given to the printing process from OS
             0 MiB allocation reported by mallinfo(arena+hblkhd)
        250019 MiB available memory on the node where the printing process lives
------------------
     ethr =  1.97E-07,  avg # of iterations =  1.0

     total cpu time spent up to now is       20.7 secs

     total energy              =     -53.63261665 Ry
     estimated scf accuracy    <       0.00004340 Ry

     iteration #  9     ecut=    80.00 Ry     beta= 0.70
     Davidson diagonalization with overlap

---- Real-time Memory Report at c_bands before calling an iterative solver
           219 MiB given to the printing process from OS
             0 MiB allocation reported by mallinfo(arena+hblkhd)
        250018 MiB available memory on the node where the printing process lives
------------------
     ethr =  1.97E-07,  avg # of iterations =  1.0

     total cpu time spent up to now is       20.9 secs

     total energy              =     -53.63259180 Ry
     estimated scf accuracy    <       0.00004769 Ry

     iteration # 10     ecut=    80.00 Ry     beta= 0.70
     Davidson diagonalization with overlap

---- Real-time Memory Report at c_bands before calling an iterative solver
           219 MiB given to the printing process from OS
             0 MiB allocation reported by mallinfo(arena+hblkhd)
        250016 MiB available memory on the node where the printing process lives
------------------
     ethr =  1.97E-07,  avg # of iterations =  2.0

     total cpu time spent up to now is       21.1 secs

     total energy              =     -53.63260308 Ry
     estimated scf accuracy    <       0.00000065 Ry

     iteration # 11     ecut=    80.00 Ry     beta= 0.70
     Davidson diagonalization with overlap

---- Real-time Memory Report at c_bands before calling an iterative solver
           219 MiB given to the printing process from OS
             0 MiB allocation reported by mallinfo(arena+hblkhd)
        250016 MiB available memory on the node where the printing process lives
------------------
     ethr =  4.05E-09,  avg # of iterations =  7.2

     total cpu time spent up to now is       21.6 secs

     total energy              =     -53.63260562 Ry
     estimated scf accuracy    <       0.00001384 Ry

     iteration # 12     ecut=    80.00 Ry     beta= 0.70
     Davidson diagonalization with overlap

---- Real-time Memory Report at c_bands before calling an iterative solver
           219 MiB given to the printing process from OS
             0 MiB allocation reported by mallinfo(arena+hblkhd)
        250014 MiB available memory on the node where the printing process lives
------------------
     ethr =  4.05E-09,  avg # of iterations =  1.0

     total cpu time spent up to now is       21.7 secs

     total energy              =     -53.63260657 Ry
     estimated scf accuracy    <       0.00001216 Ry

     iteration # 13     ecut=    80.00 Ry     beta= 0.70
     Davidson diagonalization with overlap

---- Real-time Memory Report at c_bands before calling an iterative solver
           219 MiB given to the printing process from OS
             0 MiB allocation reported by mallinfo(arena+hblkhd)
        250014 MiB available memory on the node where the printing process lives
------------------
     ethr =  4.05E-09,  avg # of iterations =  1.0

     total cpu time spent up to now is       21.9 secs

     total energy              =     -53.63261044 Ry
     estimated scf accuracy    <       0.00001496 Ry

     iteration # 14     ecut=    80.00 Ry     beta= 0.70
     Davidson diagonalization with overlap

---- Real-time Memory Report at c_bands before calling an iterative solver
           219 MiB given to the printing process from OS
             0 MiB allocation reported by mallinfo(arena+hblkhd)
        250013 MiB available memory on the node where the printing process lives
------------------
     ethr =  4.05E-09,  avg # of iterations =  3.1

     total cpu time spent up to now is       22.2 secs

     total energy              =     -53.63260338 Ry
     estimated scf accuracy    <       0.00003004 Ry

     iteration # 15     ecut=    80.00 Ry     beta= 0.70
     Davidson diagonalization with overlap

---- Real-time Memory Report at c_bands before calling an iterative solver
           219 MiB given to the printing process from OS
             0 MiB allocation reported by mallinfo(arena+hblkhd)
        250012 MiB available memory on the node where the printing process lives
------------------
     ethr =  4.05E-09,  avg # of iterations =  4.3

     total cpu time spent up to now is       22.5 secs

     total energy              =     -53.63259860 Ry
     estimated scf accuracy    <       0.00000819 Ry

     iteration # 16     ecut=    80.00 Ry     beta= 0.70
     Davidson diagonalization with overlap

---- Real-time Memory Report at c_bands before calling an iterative solver
           219 MiB given to the printing process from OS
             0 MiB allocation reported by mallinfo(arena+hblkhd)
        250010 MiB available memory on the node where the printing process lives
------------------
     ethr =  4.05E-09,  avg # of iterations =  6.7

[...]
             0 MiB allocation reported by mallinfo(arena+hblkhd)
        251534 MiB available memory on the node where the printing process lives
------------------
     ethr =  1.41E-03,  avg # of iterations =  2.0

     total cpu time spent up to now is      156.6 secs

     total energy              =     -53.62107963 Ry
     estimated scf accuracy    <       0.01443444 Ry

     iteration #  4     ecut=    80.00 Ry     beta= 0.70
     Davidson diagonalization with overlap

---- Real-time Memory Report at c_bands before calling an iterative solver
           222 MiB given to the printing process from OS
             0 MiB allocation reported by mallinfo(arena+hblkhd)
        251534 MiB available memory on the node where the printing process lives
------------------
     ethr =  9.02E-05,  avg # of iterations =  5.2

     total cpu time spent up to now is      156.9 secs

     total energy              =     -53.63449686 Ry
     estimated scf accuracy    <       0.03599155 Ry

     iteration #  5     ecut=    80.00 Ry     beta= 0.70
     Davidson diagonalization with overlap

---- Real-time Memory Report at c_bands before calling an iterative solver
           222 MiB given to the printing process from OS
             0 MiB allocation reported by mallinfo(arena+hblkhd)
        251533 MiB available memory on the node where the printing process lives
------------------
     ethr =  9.02E-05,  avg # of iterations =  1.8

     total cpu time spent up to now is      157.1 secs

     total energy              =     -53.63224092 Ry
     estimated scf accuracy    <       0.01127761 Ry

     iteration #  6     ecut=    80.00 Ry     beta= 0.70
     Davidson diagonalization with overlap

---- Real-time Memory Report at c_bands before calling an iterative solver
           222 MiB given to the printing process from OS
             0 MiB allocation reported by mallinfo(arena+hblkhd)
        251532 MiB available memory on the node where the printing process lives
------------------
     ethr =  7.05E-05,  avg # of iterations =  1.9

     total cpu time spent up to now is      157.4 secs

     total energy              =     -53.63233523 Ry
     estimated scf accuracy    <       0.00192034 Ry

     iteration #  7     ecut=    80.00 Ry     beta= 0.70
     Davidson diagonalization with overlap

---- Real-time Memory Report at c_bands before calling an iterative solver
           222 MiB given to the printing process from OS
             0 MiB allocation reported by mallinfo(arena+hblkhd)
        251531 MiB available memory on the node where the printing process lives
------------------
     ethr =  1.20E-05,  avg # of iterations =  4.5

     total cpu time spent up to now is      157.7 secs

     total energy              =     -53.63368084 Ry
     estimated scf accuracy    <       0.00095944 Ry

     iteration #  8     ecut=    80.00 Ry     beta= 0.70
     Davidson diagonalization with overlap

---- Real-time Memory Report at c_bands before calling an iterative solver
           222 MiB given to the printing process from OS
             0 MiB allocation reported by mallinfo(arena+hblkhd)
        251530 MiB available memory on the node where the printing process lives
------------------
     ethr =  6.00E-06,  avg # of iterations =  1.0

     total cpu time spent up to now is      157.9 secs

     total energy              =     -53.63348360 Ry
     estimated scf accuracy    <       0.00046905 Ry

     iteration #  9     ecut=    80.00 Ry     beta= 0.70
     Davidson diagonalization with overlap

---- Real-time Memory Report at c_bands before calling an iterative solver
           222 MiB given to the printing process from OS
             0 MiB allocation reported by mallinfo(arena+hblkhd)
        251529 MiB available memory on the node where the printing process lives
------------------
     ethr =  2.93E-06,  avg # of iterations =  2.0

     total cpu time spent up to now is      158.1 secs

     total energy              =     -53.63357777 Ry
     estimated scf accuracy    <       0.00000432 Ry

     iteration # 10     ecut=    80.00 Ry     beta= 0.70
     Davidson diagonalization with overlap

---- Real-time Memory Report at c_bands before calling an iterative solver
           222 MiB given to the printing process from OS
             0 MiB allocation reported by mallinfo(arena+hblkhd)
        251528 MiB available memory on the node where the printing process lives
------------------
     ethr =  2.70E-08,  avg # of iterations =  6.5

     total cpu time spent up to now is      158.5 secs

     total energy              =     -53.63359184 Ry
     estimated scf accuracy    <       0.00001568 Ry

     iteration # 11     ecut=    80.00 Ry     beta= 0.70
     Davidson diagonalization with overlap

---- Real-time Memory Report at c_bands before calling an iterative solver
           222 MiB given to the printing process from OS
             0 MiB allocation reported by mallinfo(arena+hblkhd)
        251528 MiB available memory on the node where the printing process lives
------------------
     ethr =  2.70E-08,  avg # of iterations =  1.0

     total cpu time spent up to now is      158.6 secs

     total energy              =     -53.63358632 Ry
     estimated scf accuracy    <       0.00001225 Ry

     iteration # 12     ecut=    80.00 Ry     beta= 0.70
     Davidson diagonalization with overlap

---- Real-time Memory Report at c_bands before calling an iterative solver
           222 MiB given to the printing process from OS
             0 MiB allocation reported by mallinfo(arena+hblkhd)
        251527 MiB available memory on the node where the printing process lives
------------------
     ethr =  2.70E-08,  avg # of iterations =  2.5

     total cpu time spent up to now is      158.9 secs

     total energy              =     -53.63358810 Ry
     estimated scf accuracy    <       0.00000033 Ry

     iteration # 13     ecut=    80.00 Ry     beta= 0.70
     Davidson diagonalization with overlap

---- Real-time Memory Report at c_bands before calling an iterative solver
           222 MiB given to the printing process from OS
             0 MiB allocation reported by mallinfo(arena+hblkhd)
        251527 MiB available memory on the node where the printing process lives
------------------
     ethr =  2.05E-09,  avg # of iterations =  4.4

     total cpu time spent up to now is      159.2 secs

     End of self-consistent calculation

          k = 0.0000 0.0000 0.0000 (  6013 PWs)   bands (ev):

   -18.2158 -18.1979  -5.9431  -5.6675  -1.9611  -1.9611  -1.9601  -1.9601

     occupation numbers 
     1.0000   1.0000   1.0000   1.0000   1.0000   1.0000   1.0000   1.0000

          k =-0.0000 0.0940 0.0000 (  5975 PWs)   bands (ev):

   -18.0829 -18.0653  -5.7629  -5.4906  -2.5186  -2.5142  -2.2179  -2.2167

     occupation numbers 
     1.0000   1.0000   1.0000   1.0000   1.0000   1.0000   1.0000   1.0000

          k =-0.0000 0.1880 0.0000 (  5966 PWs)   bands (ev):

   -17.6913 -17.6747  -5.2303  -4.9687  -3.9225  -3.9139  -2.8439  -2.8422

     occupation numbers 
     1.0000   1.0000   1.0000   1.0000   1.0000   1.0000   1.0000   1.0000

          k =-0.0000 0.2820 0.0000 (  5932 PWs)   bands (ev):

   -17.0681 -17.0533  -5.7001  -5.6894  -4.3739  -4.1321  -3.5703  -3.5682

     occupation numbers 
     1.0000   1.0000   1.0000   1.0000   1.0000   1.0000   1.0000   1.0000

          k =-0.0000 0.3760 0.0000 (  5966 PWs)   bands (ev):

   -16.2821 -16.2697  -7.4700  -7.4572  -4.1948  -4.1925  -3.2711  -3.0617

     occupation numbers 
     1.0000   1.0000   1.0000   1.0000   1.0000   1.0000   1.0000   1.0000

          k =-0.0000 0.4700 0.0000 (  5982 PWs)   bands (ev):

   -15.5094 -15.4997  -8.8867  -8.8714  -4.6047  -4.6023  -2.1333  -1.9741

     occupation numbers 
     1.0000   1.0000   1.0000   1.0000   1.0000   1.0000   1.0000   1.0000

          k = 0.0000-0.5641-0.0000 (  5970 PWs)   bands (ev):

   -15.1454 -15.1374  -9.4733  -9.4565  -4.7465  -4.7441  -1.5564  -1.4376

     occupation numbers 
     1.0000   1.0000   1.0000   1.0000   1.0000   1.0000   1.0000   1.0000

          k = 0.0814 0.1410 0.0000 (  5955 PWs)   bands (ev):

   -17.8204 -17.8036  -5.4063  -5.1411  -3.4321  -3.4244  -2.7264  -2.7248

     occupation numbers 
     1.0000   1.0000   1.0000   1.0000   1.0000   1.0000   1.0000   1.0000

          k = 0.0814 0.2350 0.0000 (  5955 PWs)   bands (ev):

   -17.3117 -17.2962  -4.9143  -4.9033  -4.7085  -4.4594  -3.5139  -3.5116

     occupation numbers 
     1.0000   1.0000   1.0000   1.0000   1.0000   1.0000   1.0000   1.0000

          k = 0.0814 0.3290 0.0000 (  5950 PWs)   bands (ev):

   -16.6007 -16.5873  -6.6214  -6.6098  -4.2591  -4.2561  -3.7234  -3.4990

     occupation numbers 
     1.0000   1.0000   1.0000   1.0000   1.0000   1.0000   1.0000   1.0000

          k = 0.0814 0.4230 0.0000 (  5968 PWs)   bands (ev):

   -15.7976 -15.7867  -8.2029  -8.1892  -4.8096  -4.8061  -2.5708  -2.3874

     occupation numbers 
     1.0000   1.0000   1.0000   1.0000   1.0000   1.0000   1.0000   1.0000

          k = 0.0814 0.5170 0.0000 (  5968 PWs)   bands (ev):

   -15.1769 -15.1686  -9.2424  -9.2264  -5.0982  -5.0946  -1.6176  -1.4878

     occupation numbers 
     1.0000   1.0000   1.0000   1.0000   1.0000   1.0000   1.0000   1.0000

          k = 0.1628 0.2820 0.0000 (  5937 PWs)   bands (ev):

   -16.7111 -16.6972  -6.1199  -6.1089  -4.5283  -4.5246  -3.8788  -3.6495

     occupation numbers 
     1.0000   1.0000   1.0000   1.0000   1.0000   1.0000   1.0000   1.0000

          k = 0.1628 0.3760 0.0000 (  5948 PWs)   bands (ev):

   -15.9611 -15.9496  -7.4669  -7.4547  -5.3929  -5.3877  -2.8152  -2.6191

     occupation numbers 
     1.0000   1.0000   1.0000   1.0000   1.0000   1.0000   1.0000   1.0000

          k = 0.1628 0.4700 0.0000 (  5959 PWs)   bands (ev):

   -15.2374 -15.2285  -8.6508  -8.6367  -5.9131  -5.9070  -1.7315  -1.5837

     occupation numbers 
     1.0000   1.0000   1.0000   1.0000   1.0000   1.0000   1.0000   1.0000

          k = 0.1628 0.5641 0.0000 (  5968 PWs)   bands (ev):

   -14.9040 -14.8965  -9.1551  -9.1397  -6.0844  -6.0780  -1.1909  -1.0787

     occupation numbers 
     1.0000   1.0000   1.0000   1.0000   1.0000   1.0000   1.0000   1.0000

          k = 0.2442 0.4230 0.0000 (  5937 PWs)   bands (ev):

   -15.2664 -15.2573  -8.1913  -8.1788  -6.4761  -6.4689  -1.7848  -1.6295

     occupation numbers 
     1.0000   1.0000   1.0000   1.0000   1.0000   1.0000   1.0000   1.0000

          k = 0.2442 0.5170 0.0000 (  5956 PWs)   bands (ev):

   -14.7610 -14.7539  -8.7038  -8.6909  -7.0837  -7.0753  -0.9728  -0.8612

     occupation numbers 
     1.0000   1.0000   1.0000   1.0000   1.0000   1.0000   1.0000   1.0000

          k = 0.3257 0.5641 0.0000 (  5973 PWs)   bands (ev):

   -14.5686 -14.5622  -8.4809  -8.4809  -7.7610  -7.7610  -0.6462  -0.5508

     occupation numbers 
     1.0000   1.0000   1.0000   1.0000   1.0000   1.0000   1.0000   1.0000

     the Fermi energy is     0.1727 ev

!    total energy              =     -53.63358829 Ry
     estimated scf accuracy    <          7.4E-09 Ry
     smearing contrib. (-TS)   =       0.00000000 Ry
     internal energy E=F+TS    =     -53.63358829 Ry

     The total energy is F=E-TS. E is the sum of the following terms:
     one-electron contribution =    -168.29330761 Ry
     hartree contribution      =      89.40459771 Ry
     xc contribution           =     -17.31110249 Ry
     ewald contribution        =      42.56622410 Ry

     convergence has been achieved in  13 iterations

     Forces acting on atoms (cartesian axes, Ry/au):

     atom    1 type  1   force =    -0.00000000   -0.00000000   -0.00027083
     atom    2 type  2   force =     0.00000000    0.00000000    0.00007597
     atom    3 type  1   force =     0.00000000    0.00000000    0.00027083
     atom    4 type  2   force =    -0.00000000   -0.00000000   -0.00007597
     The non-local contrib.  to forces
     atom    1 type  1   force =    -0.00000000   -0.00000000   -0.00131666
     atom    2 type  2   force =    -0.00000000   -0.00000000   -0.00011633
     atom    3 type  1   force =     0.00000000    0.00000000    0.00131666
     atom    4 type  2   force =     0.00000000    0.00000000    0.00011633
     The ionic contribution  to forces
     atom    1 type  1   force =    -0.00000001    0.00000000   -9.50445481
     atom    2 type  2   force =     0.00000001   -0.00000000   -5.70689531
     atom    3 type  1   force =     0.00000001   -0.00000000    9.50445481
     atom    4 type  2   force =    -0.00000001    0.00000000    5.70689531
     The local contribution  to forces
     atom    1 type  1   force =    -0.00000000    0.00000000    9.50540354
     atom    2 type  2   force =    -0.00000000    0.00000000    5.70705139
     atom    3 type  1   force =     0.00000000   -0.00000000   -9.50540354
     atom    4 type  2   force =     0.00000000   -0.00000000   -5.70705139
     The core correction contribution to forces
     atom    1 type  1   force =    -0.00000000    0.00000000    0.00004023
     atom    2 type  2   force =    -0.00000000    0.00000000    0.00001113
     atom    3 type  1   force =     0.00000000   -0.00000000   -0.00004023
     atom    4 type  2   force =     0.00000000   -0.00000000   -0.00001113
     The Hubbard contrib.    to forces
     atom    1 type  1   force =     0.00000000    0.00000000    0.00000000
     atom    2 type  2   force =     0.00000000    0.00000000    0.00000000
     atom    3 type  1   force =     0.00000000    0.00000000    0.00000000
     atom    4 type  2   force =     0.00000000    0.00000000    0.00000000
     The SCF correction term to forces
     atom    1 type  1   force =    -0.00000000    0.00000000    0.00005688
     atom    2 type  2   force =    -0.00000000    0.00000000    0.00002509
     atom    3 type  1   force =     0.00000000   -0.00000000   -0.00005688
     atom    4 type  2   force =     0.00000000   -0.00000000   -0.00002509

     Total force =     0.000398     Total SCF correction =     0.000088
     SCF correction compared to forces is large: reduce conv_thr to get better values


     Computing stress (Cartesian axis) and pressure

          total   stress  (Ry/bohr**3)                   (kbar)     P=        0.42
   0.00000364   0.00000000   0.00000000            0.54        0.00        0.00
   0.00000000   0.00000364   0.00000000            0.00        0.54        0.00
  -0.00000000  -0.00000000   0.00000138           -0.00       -0.00        0.20

     kinetic stress (kbar)   7205.95      0.00      0.00
                                0.00   7205.95     -0.00
                                0.00      0.00   7873.52

     local   stress (kbar) -54532.10      0.00      0.00
                                0.00 -54532.10     -0.00
                                0.00     -0.00  55542.53

     nonloc. stress (kbar)  -1185.82     -0.00     -0.00
                               -0.00  -1185.82     -0.00
                               -0.00     -0.00  -1152.26

     hartree stress (kbar)  25421.42     -0.00      0.00
                               -0.00  25421.42     -0.00
                                0.00     -0.00 -24174.87

     exc-cor stress (kbar)   -716.74     -0.00     -0.00
                               -0.00   -716.74      0.00
                               -0.00      0.00   -770.50

     corecor stress (kbar)   -804.68      0.00      0.00
                                0.00   -804.68     -0.00
                                0.00     -0.00   -790.03

     ewald   stress (kbar)  24612.51     -0.00     -0.00
                               -0.00  24612.51      0.00
                               -0.00      0.00 -36528.19

     hubbard stress (kbar)      0.00      0.00      0.00
                                0.00      0.00      0.00
                                0.00      0.00      0.00

     DFT-D   stress (kbar)      0.00      0.00      0.00
                                0.00      0.00      0.00
                                0.00      0.00      0.00

     XDM     stress (kbar)      0.00      0.00      0.00
                                0.00      0.00      0.00
                                0.00      0.00      0.00

     dft-nl  stress (kbar)      0.00      0.00      0.00
                                0.00      0.00      0.00
                                0.00      0.00      0.00

     TS-vdW  stress (kbar)      0.00      0.00      0.00
                                0.00      0.00      0.00
                                0.00      0.00      0.00

     MDB     stress (kbar)      0.00      0.00      0.00
                                0.00      0.00      0.00
                                0.00      0.00      0.00

     3D-RISM stress (kbar)      0.00      0.00      0.00
                                0.00      0.00      0.00
                                0.00      0.00      0.00


     Writing all to output data dir ./graphene.save/
 
     init_run     :      1.18s CPU      1.43s WALL (       2 calls)
     electrons    :    109.96s CPU    118.42s WALL (      28 calls)
     update_pot   :     12.23s CPU     13.18s WALL (      26 calls)
     forces       :      7.49s CPU      9.06s WALL (      28 calls)
     stress       :     15.56s CPU     17.23s WALL (      28 calls)

     Called by init_run:
     wfcinit      :      0.27s CPU      0.28s WALL (       2 calls)
     wfcinit:atom :      0.00s CPU      0.00s WALL (      20 calls)
     wfcinit:wfcr :      0.25s CPU      0.26s WALL (      20 calls)
     potinit      :      0.31s CPU      0.42s WALL (       2 calls)
     hinit0       :      0.48s CPU      0.54s WALL (       2 calls)

     Called by electrons:
     c_bands      :     90.47s CPU     92.66s WALL (     446 calls)
     sum_band     :     12.35s CPU     12.82s WALL (     446 calls)
     v_of_rho     :      5.49s CPU     11.44s WALL (     473 calls)
     v_h          :      0.46s CPU      0.88s WALL (     473 calls)
     v_xc         :      5.57s CPU     11.82s WALL (     529 calls)
     mix_rho      :      0.98s CPU      1.08s WALL (     446 calls)

     Called by c_bands:
     init_us_2    :      2.42s CPU      2.49s WALL (    9500 calls)
     init_us_2:cp :      2.38s CPU      2.47s WALL (    9500 calls)
     cegterg      :     80.96s CPU     82.22s WALL (    4464 calls)

     Called by sum_band:
     sum_band:wei :      0.03s CPU      0.03s WALL (     446 calls)
     sum_band:loo :     11.35s CPU     11.52s WALL (     446 calls)
     sum_band:buf :      0.14s CPU      0.15s WALL (    4460 calls)
     sum_band:ini :      1.22s CPU      1.24s WALL (    4460 calls)

     Called by *egterg:
     cdiaghg      :      1.77s CPU      1.79s WALL (   16815 calls)
     cegterg:over :      4.64s CPU      4.70s WALL (   12625 calls)
     cegterg:upda :      1.02s CPU      1.04s WALL (   12625 calls)
     cegterg:last :      1.80s CPU      1.83s WALL (   11130 calls)
     h_psi        :     69.68s CPU     70.81s WALL (   17109 calls)
     g_psi        :      0.38s CPU      0.38s WALL (   12625 calls)

     Called by h_psi:
     h_psi:calbec :      4.83s CPU      4.89s WALL (   17109 calls)
     vloc_psi     :     58.83s CPU     59.82s WALL (   17109 calls)
     add_vuspsi   :      5.59s CPU      5.69s WALL (   17109 calls)

     General routines
     calbec       :      4.98s CPU      5.08s WALL (   18509 calls)
     fft          :      4.63s CPU     12.49s WALL (    5429 calls)
     ffts         :      0.21s CPU      0.28s WALL (     446 calls)
     fftw         :     62.00s CPU     62.98s WALL (  259498 calls)
 
     Parallel routines
 
     PWSCF        :   2m26.99s CPU   2m40.30s WALL

 
   This run was terminated on:  12:21:12   8Apr2024            

=------------------------------------------------------------------------------=
   JOB DONE.
=------------------------------------------------------------------------------=
