
     Program PWSCF v.7.2 starts on  8Apr2024 at 10:55:25 

     This program is part of the open-source Quantum ESPRESSO suite
     for quantum simulation of materials; please cite
         "P. Giannozzi et al., J. Phys.:Condens. Matter 21 395502 (2009);
         "P. Giannozzi et al., J. Phys.:Condens. Matter 29 465901 (2017);
         "P. Giannozzi et al., J. Chem. Phys. 152 154105 (2020);
          URL http://www.quantum-espresso.org", 
     in publications or presentations arising from this work. More details at
     http://www.quantum-espresso.org/quote

     Parallel version (MPI & OpenMP), running on       1 processor cores
     Number of MPI processes:                 1
     Threads/MPI process:                     1

     MPI processes distributed on     1 nodes
     0 MiB available memory on the printing compute node when the environment starts

     Waiting for input...
     Reading input from standard input
Warning: card &CELL ignored
Warning: card CELL_DOFREE = 'ALL' ignored
Warning: card / ignored

     Current dimensions of program PWSCF are:
     Max number of different atomic species (ntypx) = 10
     Max number of k-points (npk) =  40000
     Max angular momentum in pseudopotentials (lmaxx) =  4

     IMPORTANT: XC functional enforced from input :
     Exchange-correlation= VDW-DF2-B86R
                           (   1   4  26   0   2   0   0)
     Any further DFT definition will be discarded
     Please, verify this is what you really want


     Subspace diagonalization in iterative solution of the eigenvalue problem:
     a serial algorithm will be used


     G-vector sticks info
     --------------------
     sticks:   dense  smooth     PW     G-vecs:    dense   smooth      PW
     Sum         361     361    109                33235    33235    5693

     Using Slab Decomposition



     bravais-lattice index     =            4
     lattice parameter (alat)  =       4.6651  a.u.
     unit-cell volume          =     527.5649 (a.u.)^3
     number of atoms/cell      =            4
     number of atomic types    =            1
     number of electrons       =        16.00
     number of Kohn-Sham states=           12
     kinetic-energy cutoff     =      60.0000  Ry
     charge density cutoff     =     240.0000  Ry
     scf convergence threshold =      1.0E-06
     mixing beta               =       0.7000
     number of iterations used =            8  plain     mixing
     Exchange-correlation= VDW-DF2-B86R
                           (   1   4  26   0   2   0   0)

     celldm(1)=   4.665140  celldm(2)=   0.000000  celldm(3)=   6.000000
     celldm(4)=   0.000000  celldm(5)=   0.000000  celldm(6)=   0.000000

     crystal axes: (cart. coord. in units of alat)
               a(1) = (   1.000000   0.000000   0.000000 )  
               a(2) = (  -0.500000   0.866025   0.000000 )  
               a(3) = (   0.000000   0.000000   6.000000 )  

     reciprocal axes: (cart. coord. in units 2 pi/alat)
               b(1) = (  1.000000  0.577350 -0.000000 )  
               b(2) = (  0.000000  1.154701  0.000000 )  
               b(3) = (  0.000000 -0.000000  0.166667 )  


     PseudoPot. # 1 for C  read from file:
     ../../../../Pseudo/PBE/C.upf
     MD5 check sum: 34a24e64c0a39f27c6c36b90a16ac686
     Pseudo is Norm-conserving + core correction, Zval =  4.0
     Generated using ONCVPSP code by D. R. Hamann
     Using radial grid of 1248 points,  4 beta functions with: 
                l(1) =   0
                l(2) =   0
                l(3) =   1
                l(4) =   1

     atomic species   valence    mass     pseudopotential
        C              4.00    12.01100     C ( 1.00)

     12 Sym. Ops. (no inversion) found ( 6 have fractional translation)


                                    s                        frac. trans.

      isym =  1     identity                                     

 cryst.   s( 1) = (     1          0          0      )
                  (     0          1          0      )
                  (     0          0          1      )

 cart.    s( 1) = (  1.0000000  0.0000000  0.0000000 )
                  (  0.0000000  1.0000000  0.0000000 )
                  (  0.0000000  0.0000000  1.0000000 )


      isym =  2     180 deg rotation - cart. axis [0,0,1]        

 cryst.   s( 2) = (    -1          0          0      )    f =(  0.3333330 )
                  (     0         -1          0      )       ( -0.3333330 )
                  (     0          0          1      )       (  0.0000000 )

 cart.    s( 2) = ( -1.0000000  0.0000000  0.0000000 )    f =(  0.4999995 )
                  (  0.0000000 -1.0000000  0.0000000 )       ( -0.2886748 )
                  (  0.0000000  0.0000000  1.0000000 )       (  0.0000000 )


      isym =  3      60 deg rotation - cryst. axis [0,0,1]       

 cryst.   s( 3) = (     1          1          0      )    f =(  0.3333340 )
                  (    -1          0          0      )       ( -0.3333330 )
                  (     0          0          1      )       (  0.0000000 )

 cart.    s( 3) = (  0.5000000 -0.8660254  0.0000000 )    f =(  0.5000005 )
                  (  0.8660254  0.5000000  0.0000000 )       ( -0.2886748 )
                  (  0.0000000  0.0000000  1.0000000 )       (  0.0000000 )


      isym =  4      60 deg rotation - cryst. axis [0,0,-1]      

 cryst.   s( 4) = (     0         -1          0      )    f =(  0.3333330 )
                  (     1          1          0      )       ( -0.3333340 )
                  (     0          0          1      )       (  0.0000000 )

 cart.    s( 4) = (  0.5000000  0.8660254  0.0000000 )    f =(  0.5000000 )
                  ( -0.8660254  0.5000000  0.0000000 )       ( -0.2886757 )
                  (  0.0000000  0.0000000  1.0000000 )       (  0.0000000 )


      isym =  5     120 deg rotation - cryst. axis [0,0,1]       

 cryst.   s( 5) = (     0          1          0      )
                  (    -1         -1          0      )
                  (     0          0          1      )

 cart.    s( 5) = ( -0.5000000 -0.8660254  0.0000000 )
                  (  0.8660254 -0.5000000  0.0000000 )
                  (  0.0000000  0.0000000  1.0000000 )


      isym =  6     120 deg rotation - cryst. axis [0,0,-1]      

 cryst.   s( 6) = (    -1         -1          0      )
                  (     1          0          0      )
                  (     0          0          1      )

 cart.    s( 6) = ( -0.5000000  0.8660254  0.0000000 )
                  ( -0.8660254 -0.5000000  0.0000000 )
                  (  0.0000000  0.0000000  1.0000000 )


      isym =  7     inv. 180 deg rotation - cart. axis [0,1,0]   

 cryst.   s( 7) = (     1          0          0      )    f =(  0.3333340 )
                  (    -1         -1          0      )       ( -0.3333330 )
                  (     0          0          1      )       (  0.0000000 )

 cart.    s( 7) = (  1.0000000  0.0000000  0.0000000 )    f =(  0.5000005 )
                  (  0.0000000 -1.0000000  0.0000000 )       ( -0.2886748 )
                  (  0.0000000  0.0000000  1.0000000 )       (  0.0000000 )


      isym =  8     inv. 180 deg rotation - cart. axis [1,0,0]   

 cryst.   s( 8) = (    -1          0          0      )
                  (     1          1          0      )
                  (     0          0          1      )

 cart.    s( 8) = ( -1.0000000  0.0000000  0.0000000 )
                  (  0.0000000  1.0000000  0.0000000 )
                  (  0.0000000  0.0000000  1.0000000 )


      isym =  9     inv. 180 deg rotation - cryst. axis [1,-1,0] 

 cryst.   s( 9) = (     0          1          0      )    f =(  0.3333330 )
                  (     1          0          0      )       ( -0.3333330 )
                  (     0          0          1      )       (  0.0000000 )

 cart.    s( 9) = ( -0.5000000  0.8660254  0.0000000 )    f =(  0.4999995 )
                  (  0.8660254  0.5000000  0.0000000 )       ( -0.2886748 )
                  (  0.0000000  0.0000000  1.0000000 )       (  0.0000000 )


      isym = 10     inv. 180 deg rotation - cryst. axis [2,1,0]  

 cryst.   s(10) = (    -1         -1          0      )    f =(  0.3333330 )
                  (     0          1          0      )       ( -0.3333340 )
                  (     0          0          1      )       (  0.0000000 )

 cart.    s(10) = ( -0.5000000 -0.8660254  0.0000000 )    f =(  0.5000000 )
                  ( -0.8660254  0.5000000  0.0000000 )       ( -0.2886757 )
                  (  0.0000000  0.0000000  1.0000000 )       (  0.0000000 )


      isym = 11     inv. 180 deg rotation - cryst. axis [0,1,0]  

 cryst.   s(11) = (     1          1          0      )
                  (     0         -1          0      )
                  (     0          0          1      )

 cart.    s(11) = (  0.5000000  0.8660254  0.0000000 )
                  (  0.8660254 -0.5000000  0.0000000 )
                  (  0.0000000  0.0000000  1.0000000 )


      isym = 12     inv. 180 deg rotation - cryst. axis [1,1,0]  

 cryst.   s(12) = (     0         -1          0      )
                  (    -1          0          0      )
                  (     0          0          1      )

 cart.    s(12) = (  0.5000000 -0.8660254  0.0000000 )
                  ( -0.8660254 -0.5000000  0.0000000 )
                  (  0.0000000  0.0000000  1.0000000 )


     point group C_6v (6mm) 
     there are  6 classes
     the character table:

       E     2C6   2C3   C2    3s_v  3s_d 
A_1    1.00  1.00  1.00  1.00  1.00  1.00
A_2    1.00  1.00  1.00  1.00 -1.00 -1.00
B_1    1.00 -1.00  1.00 -1.00  1.00 -1.00
B_2    1.00 -1.00  1.00 -1.00 -1.00  1.00
E_1    2.00  1.00 -1.00 -2.00  0.00  0.00
E_2    2.00 -1.00 -1.00  2.00  0.00  0.00

     the symmetry operations in each class and the name of the first element:

     E        1
          identity                                               
     2C6      3    4
           60 deg rotation - cryst. axis [0,0,1]                 
     2C3      5    6
          120 deg rotation - cryst. axis [0,0,1]                 
     C2       2
          180 deg rotation - cart. axis [0,0,1]                  
     3s_v     8   12   11
          inv. 180 deg rotation - cart. axis [1,0,0]             
     3s_d     7    9   10
          inv. 180 deg rotation - cart. axis [0,1,0]             

   Cartesian axes

     site n.     atom                  positions (alat units)
         1           C   tau(   1) = (   0.0000000   0.0000000   0.0000000  )
         2           C   tau(   2) = (   0.5000005   0.2886748   0.0000000  )
         3           C   tau(   3) = (   0.0000000   0.0000000   1.4090509  )
         4           C   tau(   4) = (   0.5000005   0.2886748   1.4090509  )

   Crystallographic axes

     site n.     atom                  positions (cryst. coord.)
         1           C   tau(   1) = (  0.0000000  0.0000000  0.0000000  )
         2           C   tau(   2) = (  0.6666670  0.3333330  0.0000000  )
         3           C   tau(   3) = (  0.0000000  0.0000000  0.2348418  )
         4           C   tau(   4) = (  0.6666670  0.3333330  0.2348418  )

     number of k points=    19  Marzari-Vanderbilt smearing, width (Ry)=  0.0050
                       cart. coord. in units 2pi/alat
        k(    1) = (   0.0000000   0.0000000   0.0000000), wk =   0.0138889
        k(    2) = (   0.0000000   0.0962250   0.0000000), wk =   0.0833333
        k(    3) = (   0.0000000   0.1924501   0.0000000), wk =   0.0833333
        k(    4) = (   0.0000000   0.2886751   0.0000000), wk =   0.0833333
        k(    5) = (   0.0000000   0.3849002   0.0000000), wk =   0.0833333
        k(    6) = (   0.0000000   0.4811252   0.0000000), wk =   0.0833333
        k(    7) = (   0.0000000  -0.5773503   0.0000000), wk =   0.0416667
        k(    8) = (   0.0833333   0.1443376   0.0000000), wk =   0.0833333
        k(    9) = (   0.0833333   0.2405626   0.0000000), wk =   0.1666667
        k(   10) = (   0.0833333   0.3367877   0.0000000), wk =   0.1666667
        k(   11) = (   0.0833333   0.4330127   0.0000000), wk =   0.1666667
        k(   12) = (   0.0833333   0.5292377   0.0000000), wk =   0.1666667
        k(   13) = (   0.1666667   0.2886751   0.0000000), wk =   0.0833333
        k(   14) = (   0.1666667   0.3849002   0.0000000), wk =   0.1666667
        k(   15) = (   0.1666667   0.4811252   0.0000000), wk =   0.1666667
        k(   16) = (   0.1666667   0.5773503   0.0000000), wk =   0.0833333
        k(   17) = (   0.2500000   0.4330127   0.0000000), wk =   0.0833333
        k(   18) = (   0.2500000   0.5292377   0.0000000), wk =   0.1666667
        k(   19) = (   0.3333333   0.5773503   0.0000000), wk =   0.0277778

                       cryst. coord.
        k(    1) = (   0.0000000   0.0000000   0.0000000), wk =   0.0138889
        k(    2) = (   0.0000000   0.0833333   0.0000000), wk =   0.0833333
        k(    3) = (   0.0000000   0.1666667   0.0000000), wk =   0.0833333
        k(    4) = (   0.0000000   0.2500000   0.0000000), wk =   0.0833333
        k(    5) = (   0.0000000   0.3333333   0.0000000), wk =   0.0833333
        k(    6) = (   0.0000000   0.4166667   0.0000000), wk =   0.0833333
        k(    7) = (   0.0000000  -0.5000000   0.0000000), wk =   0.0416667
        k(    8) = (   0.0833333   0.0833333   0.0000000), wk =   0.0833333
        k(    9) = (   0.0833333   0.1666667   0.0000000), wk =   0.1666667
        k(   10) = (   0.0833333   0.2500000   0.0000000), wk =   0.1666667
        k(   11) = (   0.0833333   0.3333333   0.0000000), wk =   0.1666667
        k(   12) = (   0.0833333   0.4166667   0.0000000), wk =   0.1666667
        k(   13) = (   0.1666667   0.1666667   0.0000000), wk =   0.0833333
        k(   14) = (   0.1666667   0.2500000   0.0000000), wk =   0.1666667
        k(   15) = (   0.1666667   0.3333333   0.0000000), wk =   0.1666667
        k(   16) = (   0.1666667   0.4166667   0.0000000), wk =   0.0833333
        k(   17) = (   0.2500000   0.2500000   0.0000000), wk =   0.0833333
        k(   18) = (   0.2500000   0.3333333   0.0000000), wk =   0.1666667
        k(   19) = (   0.3333333   0.3333333   0.0000000), wk =   0.0277778

     Dense  grid:    33235 G-vectors     FFT dimensions: (  24,  24, 144)

     Dynamical RAM for                 wfc:       0.76 MB

     Dynamical RAM for     wfc (w. buffer):      15.16 MB

     Dynamical RAM for           str. fact:       0.51 MB

     Dynamical RAM for           local pot:       0.00 MB

     Dynamical RAM for          nlocal pot:       2.02 MB

     Dynamical RAM for                qrad:       0.36 MB

     Dynamical RAM for          rho,v,vnew:       3.42 MB

     Dynamical RAM for               rhoin:       1.14 MB

     Dynamical RAM for            rho*nmix:       8.11 MB

     Dynamical RAM for           G-vectors:       2.16 MB

     Dynamical RAM for          h,s,v(r/c):       0.03 MB

     Dynamical RAM for          <psi|beta>:       0.01 MB

     Dynamical RAM for                 psi:       1.52 MB

     Dynamical RAM for                hpsi:       1.52 MB

     Dynamical RAM for      wfcinit/wfcrot:       2.03 MB

     Estimated static dynamical RAM per process >      28.94 MB

     Estimated max dynamical RAM per process >      40.12 MB

     Initial potential from superposition of free atoms

     starting charge      15.9998, renormalised to      16.0000

     negative rho (up, down):  5.876E-06 0.000E+00


     %%%%%%%%%%%%%%%%%%%%%%%%%%%%%%%%%%%%%%%%%%%%%%%%%%%%%%%%%%%%%%%%%%%%%%%%
     %                                                                      %
     % You are using vdW-DF, which was implemented by the Thonhauser group. %
     % Please cite the following two papers that made this development      %
     % possible and the two reviews that describe the various versions:     %
     %                                                                      %
     %   T. Thonhauser et al., PRL 115, 136402 (2015).                      %
     %   T. Thonhauser et al., PRB 76, 125112 (2007).                       %
     %   K. Berland et al., Rep. Prog. Phys. 78, 066501 (2015).             %
     %   D.C. Langreth et al., J. Phys.: Condens. Matter 21, 084203 (2009). %
     %                                                                      %
     % If you are calculating stress with vdW-DF, please also cite:         %
     %                                                                      %
     %   R. Sabatini et al., J. Phys.: Condens. Matter 24, 424209 (2012).   %
     %                                                                      %
     %%%%%%%%%%%%%%%%%%%%%%%%%%%%%%%%%%%%%%%%%%%%%%%%%%%%%%%%%%%%%%%%%%%%%%%%

     %%%%%%%%%%%%%%%%%%%%%%%%%%%%%%%%%%%%%%%%%%%%%%%%%%%%%%%%%%%%%%%%%%%%%%%%
     %                                                                      %
     %  vdW-DF NEWS:                                                        %
     %                                                                      %
     %  * vdW-DF3 is now available. DOI: 10.1021/acs.jctc.0c00471           %
     %    use with input_dft = 'vdW-DF3-opt1' or 'vdW-DF3-opt2'             %
     %                                                                      %
     %  * Unscreened and range-separated hybrid vdW-DF-cx functionals       %
     %    DOI: 10.1063/1.4986522 and 10.1088/1361-648X/ac2ad2               %
     %    use with input_dft = 'vdW-DF-cx0'    and 'vdW-DF-ahcx'            %
     %  * Unscreened and range-separated hybrid vdW-DF2-b86r functionals    %
     %    DOI: 10.1063/1.4986522 and DOI: 10.1103/PhysRevX.12.041003        %
     %    use with input_dft = 'vdW-DF2-br0' and 'vdW-DF2-ahbr'             %
     %                                                                      %
     %%%%%%%%%%%%%%%%%%%%%%%%%%%%%%%%%%%%%%%%%%%%%%%%%%%%%%%%%%%%%%%%%%%%%%%%


     Carrying out vdW-DF run using the following parameters:
     Nqs    =  20  Npoints =  1024  r_max =  100.000
     q_mesh =  0.00001000  0.04494208  0.09755937  0.15916263
               0.23128650  0.31572767  0.41458969  0.53033537
               0.66584808  0.82450364  1.01025438  1.22772762
               1.48234092  1.78043706  2.12944203  2.53805004
               3.01644009  3.57652955  4.23227104  5.00000000


     -----------------------------------------------
     Non-local corr. energy    =       0.17263083 Ry
     -----------------------------------------------

     Starting wfcs are   16 randomized atomic wfcs

     total cpu time spent up to now is       55.4 secs

     Self-consistent Calculation

     iteration #  1     ecut=    60.00 Ry     beta= 0.70
     Davidson diagonalization with overlap

---- Real-time Memory Report at c_bands before calling an iterative solver
             0 MiB given to the printing process from OS
             0 MiB allocation reported by mallinfo(arena+hblkhd)
             0 MiB available memory on the node where the printing process lives
------------------
     ethr =  1.00E-02,  avg # of iterations =  3.3


     -----------------------------------------------
     Non-local corr. energy    =       0.19590548 Ry
     -----------------------------------------------


     total cpu time spent up to now is       56.7 secs

     WARNING: integrated charge=    16.00000217, expected=    16.00000000

     total energy              =     -48.19743255 Ry
     estimated scf accuracy    <       0.34719024 Ry

     iteration #  2     ecut=    60.00 Ry     beta= 0.70
     Davidson diagonalization with overlap

---- Real-time Memory Report at c_bands before calling an iterative solver
             0 MiB given to the printing process from OS
             0 MiB allocation reported by mallinfo(arena+hblkhd)
             0 MiB available memory on the node where the printing process lives
------------------
     ethr =  2.17E-03,  avg # of iterations =  4.2


     -----------------------------------------------
     Non-local corr. energy    =       0.19651991 Ry
     -----------------------------------------------


     total cpu time spent up to now is       57.8 secs

     total energy              =     -48.24054280 Ry
     estimated scf accuracy    <       0.00510154 Ry

     iteration #  3     ecut=    60.00 Ry     beta= 0.70
     Davidson diagonalization with overlap

---- Real-time Memory Report at c_bands before calling an iterative solver
             0 MiB given to the printing process from OS
             0 MiB allocation reported by mallinfo(arena+hblkhd)
             0 MiB available memory on the node where the printing process lives
------------------
     ethr =  3.19E-05,  avg # of iterations = 10.9


     -----------------------------------------------
     Non-local corr. energy    =       0.19616759 Ry
     -----------------------------------------------


     total cpu time spent up to now is       59.6 secs

     total energy              =     -48.24182677 Ry
     estimated scf accuracy    <       0.00094979 Ry

     iteration #  4     ecut=    60.00 Ry     beta= 0.70
     Davidson diagonalization with overlap

---- Real-time Memory Report at c_bands before calling an iterative solver
             0 MiB given to the printing process from OS
             0 MiB allocation reported by mallinfo(arena+hblkhd)
             0 MiB available memory on the node where the printing process lives
------------------
     ethr =  5.94E-06,  avg # of iterations =  4.1


     -----------------------------------------------
     Non-local corr. energy    =       0.19616424 Ry
     -----------------------------------------------


     total cpu time spent up to now is       60.9 secs

     total energy              =     -48.24203426 Ry
     estimated scf accuracy    <       0.00067769 Ry

     iteration #  5     ecut=    60.00 Ry     beta= 0.70
     Davidson diagonalization with overlap

---- Real-time Memory Report at c_bands before calling an iterative solver
             0 MiB given to the printing process from OS
             0 MiB allocation reported by mallinfo(arena+hblkhd)
             0 MiB available memory on the node where the printing process lives
------------------
     ethr =  4.24E-06,  avg # of iterations =  2.8


     -----------------------------------------------
     Non-local corr. energy    =       0.19623131 Ry
     -----------------------------------------------


     total cpu time spent up to now is       62.0 secs

     total energy              =     -48.24216385 Ry
     estimated scf accuracy    <       0.00001748 Ry

     iteration #  6     ecut=    60.00 Ry     beta= 0.70
     Davidson diagonalization with overlap

---- Real-time Memory Report at c_bands before calling an iterative solver
             0 MiB given to the printing process from OS
             0 MiB allocation reported by mallinfo(arena+hblkhd)
             0 MiB available memory on the node where the printing process lives
------------------
     ethr =  1.09E-07,  avg # of iterations =  2.2


     -----------------------------------------------
     Non-local corr. energy    =       0.19631810 Ry
     -----------------------------------------------


     total cpu time spent up to now is       63.0 secs

     total energy              =     -48.24216733 Ry
     estimated scf accuracy    <       0.00000540 Ry

     iteration #  7     ecut=    60.00 Ry     beta= 0.70
     Davidson diagonalization with overlap

---- Real-time Memory Report at c_bands before calling an iterative solver
             0 MiB given to the printing process from OS
             0 MiB allocation reported by mallinfo(arena+hblkhd)
             0 MiB available memory on the node where the printing process lives
------------------
     ethr =  3.38E-08,  avg # of iterations =  2.0


     -----------------------------------------------
     Non-local corr. energy    =       0.19629463 Ry
     -----------------------------------------------


     total cpu time spent up to now is       64.0 secs

     End of self-consistent calculation

          k = 0.0000 0.0000 0.0000 (  4101 PWs)   bands (ev):

   -18.8233 -18.7053  -7.3182  -6.4678  -2.3389  -2.3388  -2.3287  -2.3286
     3.7514   4.3851   5.7564   7.7618

     occupation numbers 
     1.0000   1.0000   1.0000   1.0000   1.0000   1.0000   1.0000   1.0000
     0.0000   0.0000   0.0000   0.0000

          k = 0.0000 0.0962 0.0000 (  4130 PWs)   bands (ev):

   -18.6594 -18.5426  -7.1199  -6.2745  -2.9925  -2.9765  -2.6775  -2.6663
     3.9717   4.6059   5.9737   7.9621

     occupation numbers 
     1.0000   1.0000   1.0000   1.0000   1.0000   1.0000   1.0000   1.0000
     0.0000   0.0000   0.0000   0.0000

          k = 0.0000 0.1925 0.0000 (  4132 PWs)   bands (ev):

   -18.1690 -18.0559  -6.5289  -5.6996  -4.6326  -4.6033  -3.4703  -3.4547
     4.6325   5.2669   6.6247   8.5437

     occupation numbers 
     1.0000   1.0000   1.0000   1.0000   1.0000   1.0000   1.0000   1.0000
     0.0000   0.0000   0.0000   0.0000

          k = 0.0000 0.2887 0.0000 (  4124 PWs)   bands (ev):

   -17.3582 -17.2509  -6.7314  -6.6906  -5.5646  -4.7637  -4.3493  -4.3322
     5.7304   6.3552   7.6088   7.8293

     occupation numbers 
     1.0000   1.0000   1.0000   1.0000   1.0000   1.0000   1.0000   1.0000
     0.0000   0.0000   0.0000   0.0000

          k = 0.0000 0.3849 0.0000 (  4166 PWs)   bands (ev):

   -16.2402 -16.1402  -8.9353  -8.8824  -5.0843  -5.0654  -4.2745  -3.5198
     5.3592   5.9000   7.2555   7.9281

     occupation numbers 
     1.0000   1.0000   1.0000   1.0000   1.0000   1.0000   1.0000   1.0000
     0.0000   0.0000   0.0000   0.0000

          k = 0.0000 0.4811 0.0000 (  4154 PWs)   bands (ev):

   -14.8458 -14.7545 -11.0341 -10.9699  -5.5583  -5.5377  -2.8150  -2.1338
     3.1578   3.8389   8.1663   8.3302

     occupation numbers 
     1.0000   1.0000   1.0000   1.0000   1.0000   1.0000   1.0000   1.0000
     0.0000   0.0000   0.0000   0.0000

          k = 0.0000-0.5774 0.0000 (  4148 PWs)   bands (ev):

   -13.5903 -13.5042 -12.5326 -12.4613  -5.7208  -5.6998  -1.9337  -1.3227
     2.0132   2.7874   8.0874   8.2474

     occupation numbers 
     1.0000   1.0000   1.0000   1.0000   1.0000   1.0000   1.0000   1.0000
     0.0000   0.0000   0.0000   0.0000

          k = 0.0833 0.1443 0.0000 (  4133 PWs)   bands (ev):

   -18.3322 -18.2180  -6.7253  -5.8902  -4.0288  -4.0053  -3.3534  -3.3377
     4.4125   5.0472   6.4087   8.3605

     occupation numbers 
     1.0000   1.0000   1.0000   1.0000   1.0000   1.0000   1.0000   1.0000
     0.0000   0.0000   0.0000   0.0000

          k = 0.0833 0.2406 0.0000 (  4145 PWs)   bands (ev):

   -17.6818 -17.5721  -5.9465  -5.7407  -5.7057  -5.1342  -4.3515  -4.3302
     5.2929   5.9256   7.2740   8.6150

     occupation numbers 
     1.0000   1.0000   1.0000   1.0000   1.0000   1.0000   1.0000   1.0000
     0.0000   0.0000   0.0000   0.0000

          k = 0.0833 0.3368 0.0000 (  4137 PWs)   bands (ev):

   -16.7171 -16.6140  -7.8131  -7.7669  -5.2387  -5.2145  -4.8126  -4.0371
     6.4186   6.6121   6.8344   7.3056

     occupation numbers 
     1.0000   1.0000   1.0000   1.0000   1.0000   1.0000   1.0000   1.0000
     0.0000   0.0000   0.0000   0.0000

          k = 0.0833 0.4330 0.0000 (  4161 PWs)   bands (ev):

   -15.4577 -15.3627  -9.9352  -9.8777  -5.8744  -5.8493  -3.4049  -2.6872
     4.1523   4.7392   8.3329   9.0108

     occupation numbers 
     1.0000   1.0000   1.0000   1.0000   1.0000   1.0000   1.0000   1.0000
     0.0000   0.0000   0.0000   0.0000

          k = 0.0833 0.5292 0.0000 (  4157 PWs)   bands (ev):

   -13.9814 -13.8952 -11.8738 -11.8051  -6.2030  -6.1778  -2.0523  -1.4194
     2.3212   3.0343   8.8137   8.9865

     occupation numbers 
     1.0000   1.0000   1.0000   1.0000   1.0000   1.0000   1.0000   1.0000
     0.0000   0.0000   0.0000   0.0000

          k = 0.1667 0.2887 0.0000 (  4130 PWs)   bands (ev):

   -16.8773 -16.7731  -7.0741  -7.0333  -5.7095  -5.6799  -4.9944  -4.2123
     6.3903   6.9015   7.0171   7.3020

     occupation numbers 
     1.0000   1.0000   1.0000   1.0000   1.0000   1.0000   1.0000   1.0000
     0.0000   0.0000   0.0000   0.0000

          k = 0.1667 0.3849 0.0000 (  4141 PWs)   bands (ev):

   -15.7698 -15.6730  -8.8011  -8.7505  -6.7663  -6.7319  -3.7190  -2.9829
     4.9183   5.3974   7.9142   8.5275

     occupation numbers 
     1.0000   1.0000   1.0000   1.0000   1.0000   1.0000   1.0000   1.0000
     0.0000   0.0000   0.0000   0.0000

          k = 0.1667 0.4811 0.0000 (  4152 PWs)   bands (ev):

   -14.3955 -14.3074 -10.7093 -10.6472  -7.3443  -7.3079  -2.2577  -1.5911
     2.9553   3.5376   9.8330  10.6788

     occupation numbers 
     1.0000   1.0000   1.0000   1.0000   1.0000   1.0000   1.0000   1.0000
     0.0000   0.0000   0.0000   0.0000

          k = 0.1667 0.5774 0.0000 (  4138 PWs)   bands (ev):

   -13.1684 -13.0862 -12.1357 -12.0675  -7.5297  -7.4928  -1.3297  -0.7303
     1.8452   2.5097  10.5600  10.8068

     occupation numbers 
     1.0000   1.0000   1.0000   1.0000   1.0000   1.0000   1.0000   1.0000
     0.0000   0.0000   0.0000   0.0000

          k = 0.2500 0.4330 0.0000 (  4124 PWs)   bands (ev):

   -14.5424 -14.4535  -9.8417  -9.7844  -8.2436  -8.1999  -2.3491  -1.6687
     3.2949   3.8005   9.6247  10.1571

     occupation numbers 
     1.0000   1.0000   1.0000   1.0000   1.0000   1.0000   1.0000   1.0000
     0.0000   0.0000   0.0000   0.0000

          k = 0.2500 0.5292 0.0000 (  4119 PWs)   bands (ev):

   -13.1231 -13.0431 -11.2585 -11.1932  -8.9517  -8.9052  -0.9272  -0.3170
     1.7476   2.3102  10.7555  11.6492

     occupation numbers 
     1.0000   1.0000   1.0000   1.0000   1.0000   1.0000   1.0000   1.0000
     0.0000   0.0000   0.0000   0.0000

          k = 0.3333 0.5774 0.0000 (  4116 PWs)   bands (ev):

   -11.9088 -11.9088 -11.8367 -11.8366  -9.8375  -9.7868   0.4495   0.4495
     1.0171   1.0171  10.3157  12.0535

     occupation numbers 
     1.0000   1.0000   1.0000   1.0000   1.0000   1.0000   1.0000   1.0000
     0.0000   0.0000   0.0000   0.0000

     the Fermi energy is     0.7693 ev

!    total energy              =     -48.24216845 Ry
     estimated scf accuracy    <       0.00000021 Ry
     smearing contrib. (-TS)   =       0.00000000 Ry
     internal energy E=F+TS    =     -48.24216845 Ry

     The total energy is F=E-TS. E is the sum of the following terms:
     one-electron contribution =    -280.03686827 Ry
     hartree contribution      =     144.44851607 Ry
     xc contribution           =     -17.20350118 Ry
     ewald contribution        =     104.54968493 Ry

     convergence has been achieved in   7 iterations


     -----------------------------------------------
     Non-local corr. energy    =       0.19629463 Ry
     -----------------------------------------------


     Forces acting on atoms (cartesian axes, Ry/au):

     atom    1 type  1   force =     0.00000000    0.00000000   -0.00013462
     atom    2 type  1   force =     0.00000000    0.00000000   -0.00013462
     atom    3 type  1   force =     0.00000000    0.00000000    0.00013462
     atom    4 type  1   force =     0.00000000    0.00000000    0.00013462
     The non-local contrib.  to forces
     atom    1 type  1   force =     0.00000000   -0.00000000   -0.00045056
     atom    2 type  1   force =     0.00000000    0.00000000   -0.00045056
     atom    3 type  1   force =     0.00000000    0.00000000    0.00047944
     atom    4 type  1   force =     0.00000000   -0.00000000    0.00047944
     The ionic contribution  to forces
     atom    1 type  1   force =     0.00000851   -0.00000491  -11.31565272
     atom    2 type  1   force =    -0.00000851    0.00000491  -11.31565272
     atom    3 type  1   force =     0.00000851   -0.00000491   11.31565272
     atom    4 type  1   force =    -0.00000851    0.00000491   11.31565272
     The local contribution  to forces
     atom    1 type  1   force =     0.00000000   -0.00000000   11.31631715
     atom    2 type  1   force =    -0.00000677    0.00000391   11.31631715
     atom    3 type  1   force =     0.00000000   -0.00000000  -11.31615830
     atom    4 type  1   force =    -0.00000677    0.00000391  -11.31615829
     The core correction contribution to forces
     atom    1 type  1   force =    -0.00000000    0.00000000   -0.00003176
     atom    2 type  1   force =     0.00000056   -0.00000033   -0.00003176
     atom    3 type  1   force =    -0.00000000    0.00000000    0.00003384
     atom    4 type  1   force =     0.00000056   -0.00000033    0.00003384
     The Hubbard contrib.    to forces
     atom    1 type  1   force =     0.00000000    0.00000000    0.00000000
     atom    2 type  1   force =     0.00000000    0.00000000    0.00000000
     atom    3 type  1   force =     0.00000000    0.00000000    0.00000000
     atom    4 type  1   force =     0.00000000    0.00000000    0.00000000
     The SCF correction term to forces
     atom    1 type  1   force =     0.00000000   -0.00000000   -0.00000000
     atom    2 type  1   force =    -0.00000000    0.00000000   -0.00000000
     atom    3 type  1   force =     0.00000000   -0.00000000    0.00016933
     atom    4 type  1   force =    -0.00000000    0.00000000    0.00016933

     Total force =     0.000190     Total SCF correction =     0.000239
     SCF correction compared to forces is large: reduce conv_thr to get better values


     Computing stress (Cartesian axis) and pressure



     -----------------------------------------------
     Non-local corr. energy    =       0.19629463 Ry
     -----------------------------------------------

          total   stress  (Ry/bohr**3)                   (kbar)     P=      -20.90
  -0.00014053  -0.00000000   0.00000000          -20.67       -0.00        0.00
  -0.00000000  -0.00014053   0.00000000           -0.00      -20.67        0.00
   0.00000000   0.00000000  -0.00014526            0.00        0.00      -21.37

     kinetic stress (kbar)   6018.59      0.00     -0.00
                                0.00   6018.59      0.00
                               -0.00      0.00   6627.28

     local   stress (kbar) -84000.80      0.01      0.00
                                0.01 -84000.79     -0.00
                                0.00     -0.00  85787.39

     nonloc. stress (kbar)   -617.71      0.00      0.00
                                0.00   -617.71     -0.00
                                0.00     -0.00   -516.56

     hartree stress (kbar)  39812.12     -0.00     -0.00
                               -0.00  39812.12      0.00
                               -0.00      0.00 -39346.52

     exc-cor stress (kbar)   -480.25     -0.00      0.00
                               -0.00   -480.25     -0.00
                                0.00     -0.00   -560.33

     corecor stress (kbar)   -915.37      0.00     -0.00
                                0.00   -915.37      0.00
                               -0.00      0.00   -890.29

     ewald   stress (kbar)  40158.64     -0.01      0.00
                               -0.01  40158.63      0.00
                                0.00      0.00 -51164.86

     hubbard stress (kbar)      0.00      0.00      0.00
                                0.00      0.00      0.00
                                0.00      0.00      0.00

     DFT-D   stress (kbar)      0.00      0.00      0.00
                                0.00      0.00      0.00
                                0.00      0.00      0.00

     XDM     stress (kbar)      0.00      0.00      0.00
                                0.00      0.00      0.00
                                0.00      0.00      0.00

     dft-nl  stress (kbar)      4.11      0.00     -0.00
                                0.00      4.11      0.00
                               -0.00      0.00     42.51

     TS-vdW  stress (kbar)      0.00      0.00      0.00
                                0.00      0.00      0.00
                                0.00      0.00      0.00

     MDB     stress (kbar)      0.00      0.00      0.00
                                0.00      0.00      0.00
                                0.00      0.00      0.00

     3D-RISM stress (kbar)      0.00      0.00      0.00
                                0.00      0.00      0.00
                                0.00      0.00      0.00


     Writing all to output data dir ./tmp/C2L_AA_PBE_vdW.save/

     init_run     :     55.31s CPU     55.34s WALL (       1 calls)
     electrons    :      9.54s CPU      8.68s WALL (       1 calls)
     forces       :      0.27s CPU      0.29s WALL (       1 calls)
     stress       :      1.41s CPU      1.45s WALL (       1 calls)

     Called by init_run:
     wfcinit      :      0.74s CPU      0.72s WALL (       1 calls)
     wfcinit:atom :      0.01s CPU      0.01s WALL (      19 calls)
     wfcinit:wfcr :      0.69s CPU      0.66s WALL (      19 calls)
     potinit      :     54.05s CPU     54.10s WALL (       1 calls)
     hinit0       :      0.49s CPU      0.49s WALL (       1 calls)

     Called by electrons:
     c_bands      :      7.56s CPU      6.56s WALL (       7 calls)
     sum_band     :      0.89s CPU      0.89s WALL (       7 calls)
     v_of_rho     :     55.10s CPU     55.27s WALL (       8 calls)
     v_h          :      0.01s CPU      0.01s WALL (       8 calls)
     v_xc         :     55.38s CPU     55.59s WALL (      10 calls)
     mix_rho      :      0.02s CPU      0.04s WALL (       7 calls)
     vdW_kernel   :     53.89s CPU     53.93s WALL (       1 calls)

     Called by c_bands:
     init_us_2    :      0.16s CPU      0.16s WALL (     323 calls)
     init_us_2:cp :      0.16s CPU      0.16s WALL (     323 calls)
     cegterg      :      7.30s CPU      6.29s WALL (     133 calls)

     Called by sum_band:
     sum_band:wei :      0.00s CPU      0.00s WALL (       7 calls)
     sum_band:loo :      0.86s CPU      0.87s WALL (       7 calls)
     sum_band:buf :      0.01s CPU      0.01s WALL (     133 calls)
     sum_band:ini :      0.06s CPU      0.06s WALL (     133 calls)

     Called by *egterg:
     cdiaghg      :      0.09s CPU      0.09s WALL (     693 calls)
     cegterg:over :      0.36s CPU      0.36s WALL (     560 calls)
     cegterg:upda :      0.45s CPU      0.19s WALL (     560 calls)
     cegterg:last :      0.54s CPU      0.16s WALL (     337 calls)
     h_psi        :      6.33s CPU      5.94s WALL (     712 calls)
     g_psi        :      0.06s CPU      0.06s WALL (     560 calls)

     Called by h_psi:
     h_psi:calbec :      0.38s CPU      0.38s WALL (     712 calls)
     vloc_psi     :      5.32s CPU      5.35s WALL (     712 calls)
     add_vuspsi   :      0.60s CPU      0.17s WALL (     712 calls)

     General routines
     calbec       :      0.46s CPU      0.46s WALL (     807 calls)
     fft          :      0.90s CPU      0.91s WALL (     648 calls)
     ffts         :      0.00s CPU      0.00s WALL (       7 calls)
     fftw         :      5.39s CPU      5.41s WALL (   11520 calls)

     Parallel routines

     PWSCF        :   1m 6.56s CPU   1m 5.81s WALL


   This run was terminated on:  10:56:31   8Apr2024            

=------------------------------------------------------------------------------=
   JOB DONE.
=------------------------------------------------------------------------------=
