
     Program PWSCF v.7.2 starts on 14Apr2024 at 16:24:30 

     This program is part of the open-source Quantum ESPRESSO suite
     for quantum simulation of materials; please cite
         "P. Giannozzi et al., J. Phys.:Condens. Matter 21 395502 (2009);
         "P. Giannozzi et al., J. Phys.:Condens. Matter 29 465901 (2017);
         "P. Giannozzi et al., J. Chem. Phys. 152 154105 (2020);
          URL http://www.quantum-espresso.org", 
     in publications or presentations arising from this work. More details at
     http://www.quantum-espresso.org/quote

     Parallel version (MPI & OpenMP), running on       8 processor cores
     Number of MPI processes:                 8
     Threads/MPI process:                     1

     MPI processes distributed on     1 nodes
     0 MiB available memory on the printing compute node when the environment starts

     Waiting for input...
     Reading input from standard input
Warning: card &IONS ignored
Warning: card / ignored
Warning: card &CELL ignored
Warning: card CELL_DOFREE = 'ALL' ignored
Warning: card / ignored

     Current dimensions of program PWSCF are:
     Max number of different atomic species (ntypx) = 10
     Max number of k-points (npk) =  40000
     Max angular momentum in pseudopotentials (lmaxx) =  4

     Atomic positions and unit cell read from directory:
     ./tmp/C2L_AA_PBE_vdW.save/
     Atomic positions from file used, from input discarded


     IMPORTANT: XC functional enforced from input :
     Exchange-correlation= VDW-DF2-B86R
                           (   1   4  26   0   2   0   0)
     Any further DFT definition will be discarded
     Please, verify this is what you really want


     R & G space division:  proc/nbgrp/npool/nimage =       8
     Subspace diagonalization in iterative solution of the eigenvalue problem:
     a serial algorithm will be used


     Parallelization info
     --------------------
     sticks:   dense  smooth     PW     G-vecs:    dense   smooth      PW
     Min          45      45     13                 5519     5519     941
     Max          46      46     14                 5546     5546     968
     Sum         361     361    109                44285    44285    7663

     Using Slab Decomposition



     bravais-lattice index     =            4
     lattice parameter (alat)  =       4.6650  a.u.
     unit-cell volume          =     703.3340 (a.u.)^3
     number of atoms/cell      =            4
     number of atomic types    =            1
     number of electrons       =        16.00
     number of Kohn-Sham states=           16
     kinetic-energy cutoff     =      60.0000  Ry
     charge density cutoff     =     240.0000  Ry
     Exchange-correlation= VDW-DF2-B86R
                           (   1   4  26   0   2   0   0)

     celldm(1)=   4.664950  celldm(2)=   0.000000  celldm(3)=   8.000000
     celldm(4)=   0.000000  celldm(5)=   0.000000  celldm(6)=   0.000000

     crystal axes: (cart. coord. in units of alat)
               a(1) = (   1.000000   0.000000   0.000000 )  
               a(2) = (  -0.500000   0.866025   0.000000 )  
               a(3) = (   0.000000   0.000000   8.000000 )  

     reciprocal axes: (cart. coord. in units 2 pi/alat)
               b(1) = (  1.000000  0.577350 -0.000000 )  
               b(2) = (  0.000000  1.154701  0.000000 )  
               b(3) = (  0.000000 -0.000000  0.125000 )  


     PseudoPot. # 1 for C  read from file:
     ../../../../Pseudo/PBE/C.upf
     MD5 check sum: 34a24e64c0a39f27c6c36b90a16ac686
     Pseudo is Norm-conserving + core correction, Zval =  4.0
     Generated using ONCVPSP code by D. R. Hamann
     Using radial grid of 1248 points,  4 beta functions with: 
                l(1) =   0
                l(2) =   0
                l(3) =   1
                l(4) =   1

     atomic species   valence    mass     pseudopotential
        C              4.00    12.01100     C ( 1.00)

     12 Sym. Ops. (no inversion) found ( 6 have fractional translation)


                                    s                        frac. trans.

      isym =  1     identity                                     

 cryst.   s( 1) = (     1          0          0      )
                  (     0          1          0      )
                  (     0          0          1      )

 cart.    s( 1) = (  1.0000000  0.0000000  0.0000000 )
                  (  0.0000000  1.0000000  0.0000000 )
                  (  0.0000000  0.0000000  1.0000000 )


      isym =  2     180 deg rotation - cart. axis [0,0,1]        

 cryst.   s( 2) = (    -1          0          0      )    f =(  0.3333330 )
                  (     0         -1          0      )       ( -0.3333330 )
                  (     0          0          1      )       (  0.0000000 )

 cart.    s( 2) = ( -1.0000000  0.0000000  0.0000000 )    f =(  0.4999995 )
                  (  0.0000000 -1.0000000  0.0000000 )       ( -0.2886748 )
                  (  0.0000000  0.0000000  1.0000000 )       (  0.0000000 )


      isym =  3      60 deg rotation - cryst. axis [0,0,1]       

 cryst.   s( 3) = (     1          1          0      )    f =(  0.3333340 )
                  (    -1          0          0      )       ( -0.3333330 )
                  (     0          0          1      )       (  0.0000000 )

 cart.    s( 3) = (  0.5000000 -0.8660254  0.0000000 )    f =(  0.5000005 )
                  (  0.8660254  0.5000000  0.0000000 )       ( -0.2886748 )
                  (  0.0000000  0.0000000  1.0000000 )       (  0.0000000 )


      isym =  4      60 deg rotation - cryst. axis [0,0,-1]      

 cryst.   s( 4) = (     0         -1          0      )    f =(  0.3333330 )
                  (     1          1          0      )       ( -0.3333340 )
                  (     0          0          1      )       (  0.0000000 )

 cart.    s( 4) = (  0.5000000  0.8660254  0.0000000 )    f =(  0.5000000 )
                  ( -0.8660254  0.5000000  0.0000000 )       ( -0.2886757 )
                  (  0.0000000  0.0000000  1.0000000 )       (  0.0000000 )


      isym =  5     120 deg rotation - cryst. axis [0,0,1]       

 cryst.   s( 5) = (     0          1          0      )
                  (    -1         -1          0      )
                  (     0          0          1      )

 cart.    s( 5) = ( -0.5000000 -0.8660254  0.0000000 )
                  (  0.8660254 -0.5000000  0.0000000 )
                  (  0.0000000  0.0000000  1.0000000 )


      isym =  6     120 deg rotation - cryst. axis [0,0,-1]      

 cryst.   s( 6) = (    -1         -1          0      )
                  (     1          0          0      )
                  (     0          0          1      )

 cart.    s( 6) = ( -0.5000000  0.8660254  0.0000000 )
                  ( -0.8660254 -0.5000000  0.0000000 )
                  (  0.0000000  0.0000000  1.0000000 )


      isym =  7     inv. 180 deg rotation - cart. axis [0,1,0]   

 cryst.   s( 7) = (     1          0          0      )    f =(  0.3333340 )
                  (    -1         -1          0      )       ( -0.3333330 )
                  (     0          0          1      )       (  0.0000000 )

 cart.    s( 7) = (  1.0000000  0.0000000  0.0000000 )    f =(  0.5000005 )
                  (  0.0000000 -1.0000000  0.0000000 )       ( -0.2886748 )
                  (  0.0000000  0.0000000  1.0000000 )       (  0.0000000 )


      isym =  8     inv. 180 deg rotation - cart. axis [1,0,0]   

 cryst.   s( 8) = (    -1          0          0      )
                  (     1          1          0      )
                  (     0          0          1      )

 cart.    s( 8) = ( -1.0000000  0.0000000  0.0000000 )
                  (  0.0000000  1.0000000  0.0000000 )
                  (  0.0000000  0.0000000  1.0000000 )


      isym =  9     inv. 180 deg rotation - cryst. axis [1,-1,0] 

 cryst.   s( 9) = (     0          1          0      )    f =(  0.3333330 )
                  (     1          0          0      )       ( -0.3333330 )
                  (     0          0          1      )       (  0.0000000 )

 cart.    s( 9) = ( -0.5000000  0.8660254  0.0000000 )    f =(  0.4999995 )
                  (  0.8660254  0.5000000  0.0000000 )       ( -0.2886748 )
                  (  0.0000000  0.0000000  1.0000000 )       (  0.0000000 )


      isym = 10     inv. 180 deg rotation - cryst. axis [2,1,0]  

 cryst.   s(10) = (    -1         -1          0      )    f =(  0.3333330 )
                  (     0          1          0      )       ( -0.3333340 )
                  (     0          0          1      )       (  0.0000000 )

 cart.    s(10) = ( -0.5000000 -0.8660254  0.0000000 )    f =(  0.5000000 )
                  ( -0.8660254  0.5000000  0.0000000 )       ( -0.2886757 )
                  (  0.0000000  0.0000000  1.0000000 )       (  0.0000000 )


      isym = 11     inv. 180 deg rotation - cryst. axis [0,1,0]  

 cryst.   s(11) = (     1          1          0      )
                  (     0         -1          0      )
                  (     0          0          1      )

 cart.    s(11) = (  0.5000000  0.8660254  0.0000000 )
                  (  0.8660254 -0.5000000  0.0000000 )
                  (  0.0000000  0.0000000  1.0000000 )


      isym = 12     inv. 180 deg rotation - cryst. axis [1,1,0]  

 cryst.   s(12) = (     0         -1          0      )
                  (    -1          0          0      )
                  (     0          0          1      )

 cart.    s(12) = (  0.5000000 -0.8660254  0.0000000 )
                  ( -0.8660254 -0.5000000  0.0000000 )
                  (  0.0000000  0.0000000  1.0000000 )


     point group C_6v (6mm) 
     there are  6 classes
     the character table:

       E     2C6   2C3   C2    3s_v  3s_d 
A_1    1.00  1.00  1.00  1.00  1.00  1.00
A_2    1.00  1.00  1.00  1.00 -1.00 -1.00
B_1    1.00 -1.00  1.00 -1.00  1.00 -1.00
B_2    1.00 -1.00  1.00 -1.00 -1.00  1.00
E_1    2.00  1.00 -1.00 -2.00  0.00  0.00
E_2    2.00 -1.00 -1.00  2.00  0.00  0.00

     the symmetry operations in each class and the name of the first element:

     E        1
          identity                                               
     2C6      3    4
           60 deg rotation - cryst. axis [0,0,1]                 
     2C3      5    6
          120 deg rotation - cryst. axis [0,0,1]                 
     C2       2
          180 deg rotation - cart. axis [0,0,1]                  
     3s_v     8   12   11
          inv. 180 deg rotation - cart. axis [1,0,0]             
     3s_d     7    9   10
          inv. 180 deg rotation - cart. axis [0,1,0]             

   Cartesian axes

     site n.     atom                  positions (alat units)
         1           C   tau(   1) = (   0.0000000   0.0000000   0.0000000  )
         2           C   tau(   2) = (   0.5000005   0.2886748   0.0000000  )
         3           C   tau(   3) = (   0.0000000   0.0000000   1.4125120  )
         4           C   tau(   4) = (   0.5000005   0.2886748   1.4125120  )

   Crystallographic axes

     site n.     atom                  positions (cryst. coord.)
         1           C   tau(   1) = (  0.0000000  0.0000000  0.0000000  )
         2           C   tau(   2) = (  0.6666670  0.3333330  0.0000000  )
         3           C   tau(   3) = (  0.0000000  0.0000000  0.1765640  )
         4           C   tau(   4) = (  0.6666670  0.3333330  0.1765640  )

     number of k points=   151  Marzari-Vanderbilt smearing, width (Ry)=  0.0050
                       cart. coord. in units 2pi/alat
        k(    1) = (   0.0000000   0.0000000   0.0000000), wk =   0.0132450
        k(    2) = (  -0.0066666   0.0115471   0.0000000), wk =   0.0132450
        k(    3) = (  -0.0133332   0.0230941   0.0000000), wk =   0.0132450
        k(    4) = (  -0.0199998   0.0346412   0.0000000), wk =   0.0132450
        k(    5) = (  -0.0266664   0.0461882   0.0000000), wk =   0.0132450
        k(    6) = (  -0.0333330   0.0577353   0.0000000), wk =   0.0132450
        k(    7) = (  -0.0399996   0.0692823   0.0000000), wk =   0.0132450
        k(    8) = (  -0.0466662   0.0808294   0.0000000), wk =   0.0132450
        k(    9) = (  -0.0533328   0.0923764   0.0000000), wk =   0.0132450
        k(   10) = (  -0.0599994   0.1039235   0.0000000), wk =   0.0132450
        k(   11) = (  -0.0666660   0.1154705   0.0000000), wk =   0.0132450
        k(   12) = (  -0.0733326   0.1270176   0.0000000), wk =   0.0132450
        k(   13) = (  -0.0799992   0.1385646   0.0000000), wk =   0.0132450
        k(   14) = (  -0.0866658   0.1501117   0.0000000), wk =   0.0132450
        k(   15) = (  -0.0933324   0.1616587   0.0000000), wk =   0.0132450
        k(   16) = (  -0.0999990   0.1732058   0.0000000), wk =   0.0132450
        k(   17) = (  -0.1066656   0.1847528   0.0000000), wk =   0.0132450
        k(   18) = (  -0.1133322   0.1962999   0.0000000), wk =   0.0132450
        k(   19) = (  -0.1199988   0.2078469   0.0000000), wk =   0.0132450
        k(   20) = (  -0.1266654   0.2193940   0.0000000), wk =   0.0132450
        k(   21) = (  -0.1333320   0.2309410   0.0000000), wk =   0.0132450
        k(   22) = (  -0.1399986   0.2424881   0.0000000), wk =   0.0132450
        k(   23) = (  -0.1466652   0.2540351   0.0000000), wk =   0.0132450
        k(   24) = (  -0.1533318   0.2655822   0.0000000), wk =   0.0132450
        k(   25) = (  -0.1599984   0.2771292   0.0000000), wk =   0.0132450
        k(   26) = (  -0.1666650   0.2886763   0.0000000), wk =   0.0132450
        k(   27) = (  -0.1733316   0.3002233   0.0000000), wk =   0.0132450
        k(   28) = (  -0.1799982   0.3117704   0.0000000), wk =   0.0132450
        k(   29) = (  -0.1866648   0.3233174   0.0000000), wk =   0.0132450
        k(   30) = (  -0.1933314   0.3348645   0.0000000), wk =   0.0132450
        k(   31) = (  -0.1999980   0.3464115   0.0000000), wk =   0.0132450
        k(   32) = (  -0.2066646   0.3579586   0.0000000), wk =   0.0132450
        k(   33) = (  -0.2133312   0.3695057   0.0000000), wk =   0.0132450
        k(   34) = (  -0.2199978   0.3810527   0.0000000), wk =   0.0132450
        k(   35) = (  -0.2266644   0.3925998   0.0000000), wk =   0.0132450
        k(   36) = (  -0.2333310   0.4041468   0.0000000), wk =   0.0132450
        k(   37) = (  -0.2399976   0.4156939   0.0000000), wk =   0.0132450
        k(   38) = (  -0.2466642   0.4272409   0.0000000), wk =   0.0132450
        k(   39) = (  -0.2533308   0.4387880   0.0000000), wk =   0.0132450
        k(   40) = (  -0.2599974   0.4503350   0.0000000), wk =   0.0132450
        k(   41) = (  -0.2666640   0.4618821   0.0000000), wk =   0.0132450
        k(   42) = (  -0.2733306   0.4734291   0.0000000), wk =   0.0132450
        k(   43) = (  -0.2799972   0.4849762   0.0000000), wk =   0.0132450
        k(   44) = (  -0.2866638   0.4965232   0.0000000), wk =   0.0132450
        k(   45) = (  -0.2933304   0.5080703   0.0000000), wk =   0.0132450
        k(   46) = (  -0.2999970   0.5196173   0.0000000), wk =   0.0132450
        k(   47) = (  -0.3066636   0.5311644   0.0000000), wk =   0.0132450
        k(   48) = (  -0.3133302   0.5427114   0.0000000), wk =   0.0132450
        k(   49) = (  -0.3199968   0.5542585   0.0000000), wk =   0.0132450
        k(   50) = (  -0.3266634   0.5658055   0.0000000), wk =   0.0132450
        k(   51) = (  -0.3333300   0.5773526   0.0000000), wk =   0.0132450
        k(   52) = (  -0.3266634   0.5773525   0.0000000), wk =   0.0132450
        k(   53) = (  -0.3199968   0.5773525   0.0000000), wk =   0.0132450
        k(   54) = (  -0.3133302   0.5773524   0.0000000), wk =   0.0132450
        k(   55) = (  -0.3066636   0.5773524   0.0000000), wk =   0.0132450
        k(   56) = (  -0.2999970   0.5773523   0.0000000), wk =   0.0132450
        k(   57) = (  -0.2933304   0.5773523   0.0000000), wk =   0.0132450
        k(   58) = (  -0.2866638   0.5773523   0.0000000), wk =   0.0132450
        k(   59) = (  -0.2799972   0.5773522   0.0000000), wk =   0.0132450
        k(   60) = (  -0.2733306   0.5773522   0.0000000), wk =   0.0132450
        k(   61) = (  -0.2666640   0.5773521   0.0000000), wk =   0.0132450
        k(   62) = (  -0.2599974   0.5773521   0.0000000), wk =   0.0132450
        k(   63) = (  -0.2533308   0.5773520   0.0000000), wk =   0.0132450
        k(   64) = (  -0.2466642   0.5773520   0.0000000), wk =   0.0132450
        k(   65) = (  -0.2399976   0.5773519   0.0000000), wk =   0.0132450
        k(   66) = (  -0.2333310   0.5773519   0.0000000), wk =   0.0132450
        k(   67) = (  -0.2266644   0.5773518   0.0000000), wk =   0.0132450
        k(   68) = (  -0.2199978   0.5773518   0.0000000), wk =   0.0132450
        k(   69) = (  -0.2133312   0.5773517   0.0000000), wk =   0.0132450
        k(   70) = (  -0.2066646   0.5773517   0.0000000), wk =   0.0132450
        k(   71) = (  -0.1999980   0.5773517   0.0000000), wk =   0.0132450
        k(   72) = (  -0.1933314   0.5773516   0.0000000), wk =   0.0132450
        k(   73) = (  -0.1866648   0.5773516   0.0000000), wk =   0.0132450
        k(   74) = (  -0.1799982   0.5773515   0.0000000), wk =   0.0132450
        k(   75) = (  -0.1733316   0.5773515   0.0000000), wk =   0.0132450
        k(   76) = (  -0.1666650   0.5773514   0.0000000), wk =   0.0132450
        k(   77) = (  -0.1599984   0.5773514   0.0000000), wk =   0.0132450
        k(   78) = (  -0.1533318   0.5773513   0.0000000), wk =   0.0132450
        k(   79) = (  -0.1466652   0.5773513   0.0000000), wk =   0.0132450
        k(   80) = (  -0.1399986   0.5773512   0.0000000), wk =   0.0132450
        k(   81) = (  -0.1333320   0.5773512   0.0000000), wk =   0.0132450
        k(   82) = (  -0.1266654   0.5773511   0.0000000), wk =   0.0132450
        k(   83) = (  -0.1199988   0.5773511   0.0000000), wk =   0.0132450
        k(   84) = (  -0.1133322   0.5773511   0.0000000), wk =   0.0132450
        k(   85) = (  -0.1066656   0.5773510   0.0000000), wk =   0.0132450
        k(   86) = (  -0.0999990   0.5773510   0.0000000), wk =   0.0132450
        k(   87) = (  -0.0933324   0.5773509   0.0000000), wk =   0.0132450
        k(   88) = (  -0.0866658   0.5773509   0.0000000), wk =   0.0132450
        k(   89) = (  -0.0799992   0.5773508   0.0000000), wk =   0.0132450
        k(   90) = (  -0.0733326   0.5773508   0.0000000), wk =   0.0132450
        k(   91) = (  -0.0666660   0.5773507   0.0000000), wk =   0.0132450
        k(   92) = (  -0.0599994   0.5773507   0.0000000), wk =   0.0132450
        k(   93) = (  -0.0533328   0.5773506   0.0000000), wk =   0.0132450
        k(   94) = (  -0.0466662   0.5773506   0.0000000), wk =   0.0132450
        k(   95) = (  -0.0399996   0.5773505   0.0000000), wk =   0.0132450
        k(   96) = (  -0.0333330   0.5773505   0.0000000), wk =   0.0132450
        k(   97) = (  -0.0266664   0.5773505   0.0000000), wk =   0.0132450
        k(   98) = (  -0.0199998   0.5773504   0.0000000), wk =   0.0132450
        k(   99) = (  -0.0133332   0.5773504   0.0000000), wk =   0.0132450
        k(  100) = (  -0.0066666   0.5773503   0.0000000), wk =   0.0132450
        k(  101) = (   0.0000000   0.5773503   0.0000000), wk =   0.0132450
        k(  102) = (   0.0000000   0.5658033   0.0000000), wk =   0.0132450
        k(  103) = (   0.0000000   0.5542563   0.0000000), wk =   0.0132450
        k(  104) = (   0.0000000   0.5427093   0.0000000), wk =   0.0132450
        k(  105) = (   0.0000000   0.5311622   0.0000000), wk =   0.0132450
        k(  106) = (   0.0000000   0.5196152   0.0000000), wk =   0.0132450
        k(  107) = (   0.0000000   0.5080682   0.0000000), wk =   0.0132450
        k(  108) = (   0.0000000   0.4965212   0.0000000), wk =   0.0132450
        k(  109) = (   0.0000000   0.4849742   0.0000000), wk =   0.0132450
        k(  110) = (   0.0000000   0.4734272   0.0000000), wk =   0.0132450
        k(  111) = (   0.0000000   0.4618802   0.0000000), wk =   0.0132450
        k(  112) = (   0.0000000   0.4503332   0.0000000), wk =   0.0132450
        k(  113) = (   0.0000000   0.4387862   0.0000000), wk =   0.0132450
        k(  114) = (   0.0000000   0.4272392   0.0000000), wk =   0.0132450
        k(  115) = (   0.0000000   0.4156922   0.0000000), wk =   0.0132450
        k(  116) = (   0.0000000   0.4041452   0.0000000), wk =   0.0132450
        k(  117) = (   0.0000000   0.3925982   0.0000000), wk =   0.0132450
        k(  118) = (   0.0000000   0.3810512   0.0000000), wk =   0.0132450
        k(  119) = (   0.0000000   0.3695042   0.0000000), wk =   0.0132450
        k(  120) = (   0.0000000   0.3579572   0.0000000), wk =   0.0132450
        k(  121) = (   0.0000000   0.3464102   0.0000000), wk =   0.0132450
        k(  122) = (   0.0000000   0.3348632   0.0000000), wk =   0.0132450
        k(  123) = (   0.0000000   0.3233162   0.0000000), wk =   0.0132450
        k(  124) = (   0.0000000   0.3117691   0.0000000), wk =   0.0132450
        k(  125) = (   0.0000000   0.3002221   0.0000000), wk =   0.0132450
        k(  126) = (   0.0000000   0.2886751   0.0000000), wk =   0.0132450
        k(  127) = (   0.0000000   0.2771281   0.0000000), wk =   0.0132450
        k(  128) = (   0.0000000   0.2655811   0.0000000), wk =   0.0132450
        k(  129) = (   0.0000000   0.2540341   0.0000000), wk =   0.0132450
        k(  130) = (   0.0000000   0.2424871   0.0000000), wk =   0.0132450
        k(  131) = (   0.0000000   0.2309401   0.0000000), wk =   0.0132450
        k(  132) = (   0.0000000   0.2193931   0.0000000), wk =   0.0132450
        k(  133) = (   0.0000000   0.2078461   0.0000000), wk =   0.0132450
        k(  134) = (   0.0000000   0.1962991   0.0000000), wk =   0.0132450
        k(  135) = (   0.0000000   0.1847521   0.0000000), wk =   0.0132450
        k(  136) = (   0.0000000   0.1732051   0.0000000), wk =   0.0132450
        k(  137) = (   0.0000000   0.1616581   0.0000000), wk =   0.0132450
        k(  138) = (   0.0000000   0.1501111   0.0000000), wk =   0.0132450
        k(  139) = (   0.0000000   0.1385641   0.0000000), wk =   0.0132450
        k(  140) = (   0.0000000   0.1270171   0.0000000), wk =   0.0132450
        k(  141) = (   0.0000000   0.1154701   0.0000000), wk =   0.0132450
        k(  142) = (   0.0000000   0.1039230   0.0000000), wk =   0.0132450
        k(  143) = (   0.0000000   0.0923760   0.0000000), wk =   0.0132450
        k(  144) = (   0.0000000   0.0808290   0.0000000), wk =   0.0132450
        k(  145) = (   0.0000000   0.0692820   0.0000000), wk =   0.0132450
        k(  146) = (   0.0000000   0.0577350   0.0000000), wk =   0.0132450
        k(  147) = (   0.0000000   0.0461880   0.0000000), wk =   0.0132450
        k(  148) = (   0.0000000   0.0346410   0.0000000), wk =   0.0132450
        k(  149) = (   0.0000000   0.0230940   0.0000000), wk =   0.0132450
        k(  150) = (   0.0000000   0.0115470   0.0000000), wk =   0.0132450
        k(  151) = (   0.0000000   0.0000000   0.0000000), wk =   0.0132450

                       cryst. coord.
        k(    1) = (   0.0000000   0.0000000   0.0000000), wk =   0.0132450
        k(    2) = (  -0.0066666   0.0133333   0.0000000), wk =   0.0132450
        k(    3) = (  -0.0133332   0.0266667   0.0000000), wk =   0.0132450
        k(    4) = (  -0.0199998   0.0400000   0.0000000), wk =   0.0132450
        k(    5) = (  -0.0266664   0.0533334   0.0000000), wk =   0.0132450
        k(    6) = (  -0.0333330   0.0666667   0.0000000), wk =   0.0132450
        k(    7) = (  -0.0399996   0.0800000   0.0000000), wk =   0.0132450
        k(    8) = (  -0.0466662   0.0933334   0.0000000), wk =   0.0132450
        k(    9) = (  -0.0533328   0.1066667   0.0000000), wk =   0.0132450
        k(   10) = (  -0.0599994   0.1200001   0.0000000), wk =   0.0132450
        k(   11) = (  -0.0666660   0.1333334   0.0000000), wk =   0.0132450
        k(   12) = (  -0.0733326   0.1466667   0.0000000), wk =   0.0132450
        k(   13) = (  -0.0799992   0.1600001   0.0000000), wk =   0.0132450
        k(   14) = (  -0.0866658   0.1733334   0.0000000), wk =   0.0132450
        k(   15) = (  -0.0933324   0.1866668   0.0000000), wk =   0.0132450
        k(   16) = (  -0.0999990   0.2000001   0.0000000), wk =   0.0132450
        k(   17) = (  -0.1066656   0.2133334   0.0000000), wk =   0.0132450
        k(   18) = (  -0.1133322   0.2266668   0.0000000), wk =   0.0132450
        k(   19) = (  -0.1199988   0.2400001   0.0000000), wk =   0.0132450
        k(   20) = (  -0.1266654   0.2533335   0.0000000), wk =   0.0132450
        k(   21) = (  -0.1333320   0.2666668   0.0000000), wk =   0.0132450
        k(   22) = (  -0.1399986   0.2800001   0.0000000), wk =   0.0132450
        k(   23) = (  -0.1466652   0.2933335   0.0000000), wk =   0.0132450
        k(   24) = (  -0.1533318   0.3066668   0.0000000), wk =   0.0132450
        k(   25) = (  -0.1599984   0.3200002   0.0000000), wk =   0.0132450
        k(   26) = (  -0.1666650   0.3333335   0.0000000), wk =   0.0132450
        k(   27) = (  -0.1733316   0.3466668   0.0000000), wk =   0.0132450
        k(   28) = (  -0.1799982   0.3600002   0.0000000), wk =   0.0132450
        k(   29) = (  -0.1866648   0.3733335   0.0000000), wk =   0.0132450
        k(   30) = (  -0.1933314   0.3866669   0.0000000), wk =   0.0132450
        k(   31) = (  -0.1999980   0.4000002   0.0000000), wk =   0.0132450
        k(   32) = (  -0.2066646   0.4133335   0.0000000), wk =   0.0132450
        k(   33) = (  -0.2133312   0.4266669   0.0000000), wk =   0.0132450
        k(   34) = (  -0.2199978   0.4400002   0.0000000), wk =   0.0132450
        k(   35) = (  -0.2266644   0.4533336   0.0000000), wk =   0.0132450
        k(   36) = (  -0.2333310   0.4666669   0.0000000), wk =   0.0132450
        k(   37) = (  -0.2399976   0.4800002   0.0000000), wk =   0.0132450
        k(   38) = (  -0.2466642   0.4933336   0.0000000), wk =   0.0132450
        k(   39) = (  -0.2533308   0.5066669   0.0000000), wk =   0.0132450
        k(   40) = (  -0.2599974   0.5200003   0.0000000), wk =   0.0132450
        k(   41) = (  -0.2666640   0.5333336   0.0000000), wk =   0.0132450
        k(   42) = (  -0.2733306   0.5466669   0.0000000), wk =   0.0132450
        k(   43) = (  -0.2799972   0.5600003   0.0000000), wk =   0.0132450
        k(   44) = (  -0.2866638   0.5733336   0.0000000), wk =   0.0132450
        k(   45) = (  -0.2933304   0.5866670   0.0000000), wk =   0.0132450
        k(   46) = (  -0.2999970   0.6000003   0.0000000), wk =   0.0132450
        k(   47) = (  -0.3066636   0.6133336   0.0000000), wk =   0.0132450
        k(   48) = (  -0.3133302   0.6266670   0.0000000), wk =   0.0132450
        k(   49) = (  -0.3199968   0.6400003   0.0000000), wk =   0.0132450
        k(   50) = (  -0.3266634   0.6533337   0.0000000), wk =   0.0132450
        k(   51) = (  -0.3333300   0.6666670   0.0000000), wk =   0.0132450
        k(   52) = (  -0.3266634   0.6633337   0.0000000), wk =   0.0132450
        k(   53) = (  -0.3199968   0.6600003   0.0000000), wk =   0.0132450
        k(   54) = (  -0.3133302   0.6566670   0.0000000), wk =   0.0132450
        k(   55) = (  -0.3066636   0.6533336   0.0000000), wk =   0.0132450
        k(   56) = (  -0.2999970   0.6500003   0.0000000), wk =   0.0132450
        k(   57) = (  -0.2933304   0.6466670   0.0000000), wk =   0.0132450
        k(   58) = (  -0.2866638   0.6433336   0.0000000), wk =   0.0132450
        k(   59) = (  -0.2799972   0.6400003   0.0000000), wk =   0.0132450
        k(   60) = (  -0.2733306   0.6366669   0.0000000), wk =   0.0132450
        k(   61) = (  -0.2666640   0.6333336   0.0000000), wk =   0.0132450
        k(   62) = (  -0.2599974   0.6300003   0.0000000), wk =   0.0132450
        k(   63) = (  -0.2533308   0.6266669   0.0000000), wk =   0.0132450
        k(   64) = (  -0.2466642   0.6233336   0.0000000), wk =   0.0132450
        k(   65) = (  -0.2399976   0.6200002   0.0000000), wk =   0.0132450
        k(   66) = (  -0.2333310   0.6166669   0.0000000), wk =   0.0132450
        k(   67) = (  -0.2266644   0.6133336   0.0000000), wk =   0.0132450
        k(   68) = (  -0.2199978   0.6100002   0.0000000), wk =   0.0132450
        k(   69) = (  -0.2133312   0.6066669   0.0000000), wk =   0.0132450
        k(   70) = (  -0.2066646   0.6033335   0.0000000), wk =   0.0132450
        k(   71) = (  -0.1999980   0.6000002   0.0000000), wk =   0.0132450
        k(   72) = (  -0.1933314   0.5966669   0.0000000), wk =   0.0132450
        k(   73) = (  -0.1866648   0.5933335   0.0000000), wk =   0.0132450
        k(   74) = (  -0.1799982   0.5900002   0.0000000), wk =   0.0132450
        k(   75) = (  -0.1733316   0.5866668   0.0000000), wk =   0.0132450
        k(   76) = (  -0.1666650   0.5833335   0.0000000), wk =   0.0132450
        k(   77) = (  -0.1599984   0.5800002   0.0000000), wk =   0.0132450
        k(   78) = (  -0.1533318   0.5766668   0.0000000), wk =   0.0132450
        k(   79) = (  -0.1466652   0.5733335   0.0000000), wk =   0.0132450
        k(   80) = (  -0.1399986   0.5700001   0.0000000), wk =   0.0132450
        k(   81) = (  -0.1333320   0.5666668   0.0000000), wk =   0.0132450
        k(   82) = (  -0.1266654   0.5633335   0.0000000), wk =   0.0132450
        k(   83) = (  -0.1199988   0.5600001   0.0000000), wk =   0.0132450
        k(   84) = (  -0.1133322   0.5566668   0.0000000), wk =   0.0132450
        k(   85) = (  -0.1066656   0.5533334   0.0000000), wk =   0.0132450
        k(   86) = (  -0.0999990   0.5500001   0.0000000), wk =   0.0132450
        k(   87) = (  -0.0933324   0.5466668   0.0000000), wk =   0.0132450
        k(   88) = (  -0.0866658   0.5433334   0.0000000), wk =   0.0132450
        k(   89) = (  -0.0799992   0.5400001   0.0000000), wk =   0.0132450
        k(   90) = (  -0.0733326   0.5366667   0.0000000), wk =   0.0132450
        k(   91) = (  -0.0666660   0.5333334   0.0000000), wk =   0.0132450
        k(   92) = (  -0.0599994   0.5300001   0.0000000), wk =   0.0132450
        k(   93) = (  -0.0533328   0.5266667   0.0000000), wk =   0.0132450
        k(   94) = (  -0.0466662   0.5233334   0.0000000), wk =   0.0132450
        k(   95) = (  -0.0399996   0.5200000   0.0000000), wk =   0.0132450
        k(   96) = (  -0.0333330   0.5166667   0.0000000), wk =   0.0132450
        k(   97) = (  -0.0266664   0.5133334   0.0000000), wk =   0.0132450
        k(   98) = (  -0.0199998   0.5100000   0.0000000), wk =   0.0132450
        k(   99) = (  -0.0133332   0.5066667   0.0000000), wk =   0.0132450
        k(  100) = (  -0.0066666   0.5033333   0.0000000), wk =   0.0132450
        k(  101) = (   0.0000000   0.5000000   0.0000000), wk =   0.0132450
        k(  102) = (   0.0000000   0.4900000   0.0000000), wk =   0.0132450
        k(  103) = (   0.0000000   0.4800000   0.0000000), wk =   0.0132450
        k(  104) = (   0.0000000   0.4700000   0.0000000), wk =   0.0132450
        k(  105) = (   0.0000000   0.4600000   0.0000000), wk =   0.0132450
        k(  106) = (   0.0000000   0.4500000   0.0000000), wk =   0.0132450
        k(  107) = (   0.0000000   0.4400000   0.0000000), wk =   0.0132450
        k(  108) = (   0.0000000   0.4300000   0.0000000), wk =   0.0132450
        k(  109) = (   0.0000000   0.4200000   0.0000000), wk =   0.0132450
        k(  110) = (   0.0000000   0.4100000   0.0000000), wk =   0.0132450
        k(  111) = (   0.0000000   0.4000000   0.0000000), wk =   0.0132450
        k(  112) = (   0.0000000   0.3900000   0.0000000), wk =   0.0132450
        k(  113) = (   0.0000000   0.3800000   0.0000000), wk =   0.0132450
        k(  114) = (   0.0000000   0.3700000   0.0000000), wk =   0.0132450
        k(  115) = (   0.0000000   0.3600000   0.0000000), wk =   0.0132450
        k(  116) = (   0.0000000   0.3500000   0.0000000), wk =   0.0132450
        k(  117) = (   0.0000000   0.3400000   0.0000000), wk =   0.0132450
        k(  118) = (   0.0000000   0.3300000   0.0000000), wk =   0.0132450
        k(  119) = (   0.0000000   0.3200000   0.0000000), wk =   0.0132450
        k(  120) = (   0.0000000   0.3100000   0.0000000), wk =   0.0132450
        k(  121) = (   0.0000000   0.3000000   0.0000000), wk =   0.0132450
        k(  122) = (   0.0000000   0.2900000   0.0000000), wk =   0.0132450
        k(  123) = (   0.0000000   0.2800000   0.0000000), wk =   0.0132450
        k(  124) = (   0.0000000   0.2700000   0.0000000), wk =   0.0132450
        k(  125) = (   0.0000000   0.2600000   0.0000000), wk =   0.0132450
        k(  126) = (   0.0000000   0.2500000   0.0000000), wk =   0.0132450
        k(  127) = (   0.0000000   0.2400000   0.0000000), wk =   0.0132450
        k(  128) = (   0.0000000   0.2300000   0.0000000), wk =   0.0132450
        k(  129) = (   0.0000000   0.2200000   0.0000000), wk =   0.0132450
        k(  130) = (   0.0000000   0.2100000   0.0000000), wk =   0.0132450
        k(  131) = (   0.0000000   0.2000000   0.0000000), wk =   0.0132450
        k(  132) = (   0.0000000   0.1900000   0.0000000), wk =   0.0132450
        k(  133) = (   0.0000000   0.1800000   0.0000000), wk =   0.0132450
        k(  134) = (   0.0000000   0.1700000   0.0000000), wk =   0.0132450
        k(  135) = (   0.0000000   0.1600000   0.0000000), wk =   0.0132450
        k(  136) = (   0.0000000   0.1500000   0.0000000), wk =   0.0132450
        k(  137) = (   0.0000000   0.1400000   0.0000000), wk =   0.0132450
        k(  138) = (   0.0000000   0.1300000   0.0000000), wk =   0.0132450
        k(  139) = (   0.0000000   0.1200000   0.0000000), wk =   0.0132450
        k(  140) = (   0.0000000   0.1100000   0.0000000), wk =   0.0132450
        k(  141) = (   0.0000000   0.1000000   0.0000000), wk =   0.0132450
        k(  142) = (   0.0000000   0.0900000   0.0000000), wk =   0.0132450
        k(  143) = (   0.0000000   0.0800000   0.0000000), wk =   0.0132450
        k(  144) = (   0.0000000   0.0700000   0.0000000), wk =   0.0132450
        k(  145) = (   0.0000000   0.0600000   0.0000000), wk =   0.0132450
        k(  146) = (   0.0000000   0.0500000   0.0000000), wk =   0.0132450
        k(  147) = (   0.0000000   0.0400000   0.0000000), wk =   0.0132450
        k(  148) = (   0.0000000   0.0300000   0.0000000), wk =   0.0132450
        k(  149) = (   0.0000000   0.0200000   0.0000000), wk =   0.0132450
        k(  150) = (   0.0000000   0.0100000   0.0000000), wk =   0.0132450
        k(  151) = (   0.0000000   0.0000000   0.0000000), wk =   0.0132450

     Dense  grid:    44285 G-vectors     FFT dimensions: (  24,  24, 192)

     Dynamical RAM for                 wfc:       0.17 MB

     Dynamical RAM for     wfc (w. buffer):       0.17 MB

     Dynamical RAM for           str. fact:       0.08 MB

     Dynamical RAM for           local pot:       0.00 MB

     Dynamical RAM for          nlocal pot:       0.34 MB

     Dynamical RAM for                qrad:       0.36 MB

     Dynamical RAM for          rho,v,vnew:       0.57 MB

     Dynamical RAM for           G-vectors:       0.36 MB

     Dynamical RAM for          h,s,v(r/c):       0.05 MB

     Dynamical RAM for          <psi|beta>:       0.01 MB

     Dynamical RAM for                 psi:       0.34 MB

     Dynamical RAM for                hpsi:       0.34 MB

     Dynamical RAM for      wfcinit/wfcrot:       0.34 MB

     Estimated static dynamical RAM per process >       2.57 MB

     Estimated max dynamical RAM per process >       3.30 MB

     Estimated total dynamical RAM >      26.39 MB

     The potential is recalculated from file :
     ./tmp/C2L_AA_PBE_vdW.save/charge-density



     %%%%%%%%%%%%%%%%%%%%%%%%%%%%%%%%%%%%%%%%%%%%%%%%%%%%%%%%%%%%%%%%%%%%%%%%
     %                                                                      %
     % You are using vdW-DF, which was implemented by the Thonhauser group. %
     % Please cite the following two papers that made this development      %
     % possible and the two reviews that describe the various versions:     %
     %                                                                      %
     %   T. Thonhauser et al., PRL 115, 136402 (2015).                      %
     %   T. Thonhauser et al., PRB 76, 125112 (2007).                       %
     %   K. Berland et al., Rep. Prog. Phys. 78, 066501 (2015).             %
     %   D.C. Langreth et al., J. Phys.: Condens. Matter 21, 084203 (2009). %
     %                                                                      %
     % If you are calculating stress with vdW-DF, please also cite:         %
     %                                                                      %
     %   R. Sabatini et al., J. Phys.: Condens. Matter 24, 424209 (2012).   %
     %                                                                      %
     %%%%%%%%%%%%%%%%%%%%%%%%%%%%%%%%%%%%%%%%%%%%%%%%%%%%%%%%%%%%%%%%%%%%%%%%

     %%%%%%%%%%%%%%%%%%%%%%%%%%%%%%%%%%%%%%%%%%%%%%%%%%%%%%%%%%%%%%%%%%%%%%%%
     %                                                                      %
     %  vdW-DF NEWS:                                                        %
     %                                                                      %
     %  * vdW-DF3 is now available. DOI: 10.1021/acs.jctc.0c00471           %
     %    use with input_dft = 'vdW-DF3-opt1' or 'vdW-DF3-opt2'             %
     %                                                                      %
     %  * Unscreened and range-separated hybrid vdW-DF-cx functionals       %
     %    DOI: 10.1063/1.4986522 and 10.1088/1361-648X/ac2ad2               %
     %    use with input_dft = 'vdW-DF-cx0'    and 'vdW-DF-ahcx'            %
     %  * Unscreened and range-separated hybrid vdW-DF2-b86r functionals    %
     %    DOI: 10.1063/1.4986522 and DOI: 10.1103/PhysRevX.12.041003        %
     %    use with input_dft = 'vdW-DF2-br0' and 'vdW-DF2-ahbr'             %
     %                                                                      %
     %%%%%%%%%%%%%%%%%%%%%%%%%%%%%%%%%%%%%%%%%%%%%%%%%%%%%%%%%%%%%%%%%%%%%%%%


     Carrying out vdW-DF run using the following parameters:
     Nqs    =  20  Npoints =  1024  r_max =  100.000
     q_mesh =  0.00001000  0.04494208  0.09755937  0.15916263
               0.23128650  0.31572767  0.41458969  0.53033537
               0.66584808  0.82450364  1.01025438  1.22772762
               1.48234092  1.78043706  2.12944203  2.53805004
               3.01644009  3.57652955  4.23227104  5.00000000


     -----------------------------------------------
     Non-local corr. energy    =       0.19650400 Ry
     -----------------------------------------------

     Starting wfcs are   16 randomized atomic wfcs

     Band Structure Calculation
     Davidson diagonalization with overlap

     Computing kpt #:     1  of   151
     total cpu time spent up to now is        9.5 secs

     Computing kpt #:     2  of   151
     total cpu time spent up to now is        9.6 secs

     Computing kpt #:     3  of   151
     total cpu time spent up to now is        9.8 secs

     Computing kpt #:     4  of   151
     total cpu time spent up to now is       10.0 secs

     Computing kpt #:     5  of   151
     total cpu time spent up to now is       10.1 secs

     Computing kpt #:     6  of   151
     total cpu time spent up to now is       10.3 secs

     Computing kpt #:     7  of   151
     total cpu time spent up to now is       10.5 secs

     Computing kpt #:     8  of   151
     total cpu time spent up to now is       10.8 secs

     Computing kpt #:     9  of   151
     total cpu time spent up to now is       10.9 secs

     Computing kpt #:    10  of   151
     total cpu time spent up to now is       11.1 secs

     Computing kpt #:    11  of   151
     total cpu time spent up to now is       11.2 secs

     Computing kpt #:    12  of   151
     total cpu time spent up to now is       11.4 secs

     Computing kpt #:    13  of   151
     total cpu time spent up to now is       11.5 secs

     Computing kpt #:    14  of   151
     total cpu time spent up to now is       11.7 secs

     Computing kpt #:    15  of   151
     total cpu time spent up to now is       11.9 secs

     Computing kpt #:    16  of   151
     total cpu time spent up to now is       12.1 secs

     Computing kpt #:    17  of   151
     total cpu time spent up to now is       12.2 secs

     Computing kpt #:    18  of   151
     total cpu time spent up to now is       12.4 secs

     Computing kpt #:    19  of   151
     total cpu time spent up to now is       12.6 secs

     Computing kpt #:    20  of   151
     total cpu time spent up to now is       12.8 secs

     Computing kpt #:    21  of   151
     total cpu time spent up to now is       13.0 secs

     Computing kpt #:    22  of   151
     total cpu time spent up to now is       13.1 secs

     Computing kpt #:    23  of   151
     total cpu time spent up to now is       13.4 secs

     Computing kpt #:    24  of   151
     total cpu time spent up to now is       13.6 secs

     Computing kpt #:    25  of   151
     total cpu time spent up to now is       13.8 secs

     Computing kpt #:    26  of   151
     total cpu time spent up to now is       14.0 secs

     Computing kpt #:    27  of   151
     total cpu time spent up to now is       14.1 secs

     Computing kpt #:    28  of   151
     total cpu time spent up to now is       14.2 secs

     Computing kpt #:    29  of   151
     total cpu time spent up to now is       14.4 secs

     Computing kpt #:    30  of   151
     total cpu time spent up to now is       14.5 secs

     Computing kpt #:    31  of   151
     total cpu time spent up to now is       14.6 secs

     Computing kpt #:    32  of   151
     total cpu time spent up to now is       14.7 secs

     Computing kpt #:    33  of   151
     total cpu time spent up to now is       14.9 secs

     Computing kpt #:    34  of   151
     total cpu time spent up to now is       15.0 secs

     Computing kpt #:    35  of   151
     total cpu time spent up to now is       15.2 secs

     Computing kpt #:    36  of   151
     total cpu time spent up to now is       15.3 secs

     Computing kpt #:    37  of   151
     total cpu time spent up to now is       15.5 secs

     Computing kpt #:    38  of   151
     total cpu time spent up to now is       15.6 secs

     Computing kpt #:    39  of   151
     total cpu time spent up to now is       15.8 secs

     Computing kpt #:    40  of   151
     total cpu time spent up to now is       16.0 secs

     Computing kpt #:    41  of   151
     total cpu time spent up to now is       16.2 secs

     Computing kpt #:    42  of   151
     total cpu time spent up to now is       16.3 secs

     Computing kpt #:    43  of   151
     total cpu time spent up to now is       16.5 secs

     Computing kpt #:    44  of   151
     total cpu time spent up to now is       16.6 secs

     Computing kpt #:    45  of   151
     total cpu time spent up to now is       16.7 secs

     Computing kpt #:    46  of   151
     total cpu time spent up to now is       16.9 secs

     Computing kpt #:    47  of   151
     total cpu time spent up to now is       17.0 secs

     Computing kpt #:    48  of   151
     total cpu time spent up to now is       17.1 secs

     Computing kpt #:    49  of   151
     total cpu time spent up to now is       17.2 secs

     Computing kpt #:    50  of   151
     total cpu time spent up to now is       17.3 secs

     Computing kpt #:    51  of   151
     total cpu time spent up to now is       17.5 secs

     Computing kpt #:    52  of   151
     total cpu time spent up to now is       17.6 secs

     Computing kpt #:    53  of   151
     total cpu time spent up to now is       17.7 secs

     Computing kpt #:    54  of   151
     total cpu time spent up to now is       17.8 secs

     Computing kpt #:    55  of   151
     total cpu time spent up to now is       17.9 secs

     Computing kpt #:    56  of   151
     total cpu time spent up to now is       18.0 secs

     Computing kpt #:    57  of   151
     total cpu time spent up to now is       18.2 secs

     Computing kpt #:    58  of   151
     total cpu time spent up to now is       18.2 secs

     Computing kpt #:    59  of   151
     total cpu time spent up to now is       18.4 secs

     Computing kpt #:    60  of   151
     total cpu time spent up to now is       18.5 secs

     Computing kpt #:    61  of   151
     total cpu time spent up to now is       18.6 secs

     Computing kpt #:    62  of   151
     total cpu time spent up to now is       18.7 secs

     Computing kpt #:    63  of   151
     total cpu time spent up to now is       18.8 secs

     Computing kpt #:    64  of   151
     total cpu time spent up to now is       18.9 secs

     Computing kpt #:    65  of   151
     total cpu time spent up to now is       19.0 secs

     Computing kpt #:    66  of   151
     total cpu time spent up to now is       19.1 secs

     Computing kpt #:    67  of   151
     total cpu time spent up to now is       19.2 secs

     Computing kpt #:    68  of   151
     total cpu time spent up to now is       19.3 secs

     Computing kpt #:    69  of   151
     total cpu time spent up to now is       19.4 secs

     Computing kpt #:    70  of   151
     total cpu time spent up to now is       19.6 secs

     Computing kpt #:    71  of   151
     total cpu time spent up to now is       19.7 secs

     Computing kpt #:    72  of   151
     total cpu time spent up to now is       19.8 secs

     Computing kpt #:    73  of   151
     total cpu time spent up to now is       19.9 secs

     Computing kpt #:    74  of   151
     total cpu time spent up to now is       20.0 secs

     Computing kpt #:    75  of   151
     total cpu time spent up to now is       20.2 secs

     Computing kpt #:    76  of   151
     total cpu time spent up to now is       20.3 secs

     Computing kpt #:    77  of   151
     total cpu time spent up to now is       20.5 secs

     Computing kpt #:    78  of   151
     total cpu time spent up to now is       20.6 secs

     Computing kpt #:    79  of   151
     total cpu time spent up to now is       20.7 secs

     Computing kpt #:    80  of   151
     total cpu time spent up to now is       20.9 secs

     Computing kpt #:    81  of   151
     total cpu time spent up to now is       21.0 secs

     Computing kpt #:    82  of   151
     total cpu time spent up to now is       21.1 secs

     Computing kpt #:    83  of   151
     total cpu time spent up to now is       21.3 secs

     Computing kpt #:    84  of   151
     total cpu time spent up to now is       21.4 secs

     Computing kpt #:    85  of   151
     total cpu time spent up to now is       21.6 secs

     Computing kpt #:    86  of   151
     total cpu time spent up to now is       21.7 secs

     Computing kpt #:    87  of   151
     total cpu time spent up to now is       21.8 secs

     Computing kpt #:    88  of   151
     total cpu time spent up to now is       21.9 secs

     Computing kpt #:    89  of   151
     total cpu time spent up to now is       22.1 secs

     Computing kpt #:    90  of   151
     total cpu time spent up to now is       22.2 secs

     Computing kpt #:    91  of   151
     total cpu time spent up to now is       22.3 secs

     Computing kpt #:    92  of   151
     total cpu time spent up to now is       22.4 secs

     Computing kpt #:    93  of   151
     total cpu time spent up to now is       22.6 secs

     Computing kpt #:    94  of   151
     total cpu time spent up to now is       22.7 secs

     Computing kpt #:    95  of   151
     total cpu time spent up to now is       22.8 secs

     Computing kpt #:    96  of   151
     total cpu time spent up to now is       22.9 secs

     Computing kpt #:    97  of   151
     total cpu time spent up to now is       23.0 secs

     Computing kpt #:    98  of   151
     total cpu time spent up to now is       23.1 secs

     Computing kpt #:    99  of   151
     total cpu time spent up to now is       23.3 secs

     Computing kpt #:   100  of   151
     total cpu time spent up to now is       23.4 secs

     Computing kpt #:   101  of   151
     total cpu time spent up to now is       23.5 secs

     Computing kpt #:   102  of   151
     total cpu time spent up to now is       23.7 secs

     Computing kpt #:   103  of   151
     total cpu time spent up to now is       23.8 secs

     Computing kpt #:   104  of   151
     total cpu time spent up to now is       23.9 secs

     Computing kpt #:   105  of   151
     total cpu time spent up to now is       24.1 secs

     Computing kpt #:   106  of   151
     total cpu time spent up to now is       24.2 secs

     Computing kpt #:   107  of   151
     total cpu time spent up to now is       24.3 secs

     Computing kpt #:   108  of   151
     total cpu time spent up to now is       24.5 secs

     Computing kpt #:   109  of   151
     total cpu time spent up to now is       24.6 secs

     Computing kpt #:   110  of   151
     total cpu time spent up to now is       24.7 secs

     Computing kpt #:   111  of   151
     total cpu time spent up to now is       24.8 secs

     Computing kpt #:   112  of   151
     total cpu time spent up to now is       25.0 secs

     Computing kpt #:   113  of   151
     total cpu time spent up to now is       25.1 secs

     Computing kpt #:   114  of   151
     total cpu time spent up to now is       25.2 secs

     Computing kpt #:   115  of   151
     total cpu time spent up to now is       25.3 secs

     Computing kpt #:   116  of   151
     total cpu time spent up to now is       25.4 secs

     Computing kpt #:   117  of   151
     total cpu time spent up to now is       25.6 secs

     Computing kpt #:   118  of   151
     total cpu time spent up to now is       25.7 secs

     Computing kpt #:   119  of   151
     total cpu time spent up to now is       25.9 secs

     Computing kpt #:   120  of   151
     total cpu time spent up to now is       26.0 secs

     Computing kpt #:   121  of   151
     total cpu time spent up to now is       26.1 secs

     Computing kpt #:   122  of   151
     total cpu time spent up to now is       26.2 secs

     Computing kpt #:   123  of   151
     total cpu time spent up to now is       26.4 secs

     Computing kpt #:   124  of   151
     total cpu time spent up to now is       26.5 secs

     Computing kpt #:   125  of   151
     total cpu time spent up to now is       26.7 secs

     Computing kpt #:   126  of   151
     total cpu time spent up to now is       26.9 secs

     Computing kpt #:   127  of   151
     total cpu time spent up to now is       27.0 secs

     Computing kpt #:   128  of   151
     total cpu time spent up to now is       27.2 secs

     Computing kpt #:   129  of   151
     total cpu time spent up to now is       27.3 secs

     Computing kpt #:   130  of   151
     total cpu time spent up to now is       27.5 secs

     Computing kpt #:   131  of   151
     total cpu time spent up to now is       27.6 secs

     Computing kpt #:   132  of   151
     total cpu time spent up to now is       27.7 secs

     Computing kpt #:   133  of   151
     total cpu time spent up to now is       27.9 secs

     Computing kpt #:   134  of   151
     total cpu time spent up to now is       28.0 secs

     Computing kpt #:   135  of   151
     total cpu time spent up to now is       28.2 secs

     Computing kpt #:   136  of   151
     total cpu time spent up to now is       28.3 secs

     Computing kpt #:   137  of   151
     total cpu time spent up to now is       28.4 secs

     Computing kpt #:   138  of   151
     total cpu time spent up to now is       28.6 secs

     Computing kpt #:   139  of   151
     total cpu time spent up to now is       28.7 secs

     Computing kpt #:   140  of   151
     total cpu time spent up to now is       28.8 secs

     Computing kpt #:   141  of   151
     total cpu time spent up to now is       28.9 secs

     Computing kpt #:   142  of   151
     total cpu time spent up to now is       29.1 secs

     Computing kpt #:   143  of   151
     total cpu time spent up to now is       29.3 secs

     Computing kpt #:   144  of   151
     total cpu time spent up to now is       29.4 secs

     Computing kpt #:   145  of   151
     total cpu time spent up to now is       29.6 secs

     Computing kpt #:   146  of   151
     total cpu time spent up to now is       29.7 secs

     Computing kpt #:   147  of   151
     total cpu time spent up to now is       29.9 secs

     Computing kpt #:   148  of   151
     total cpu time spent up to now is       30.0 secs

     Computing kpt #:   149  of   151
     total cpu time spent up to now is       30.2 secs

     Computing kpt #:   150  of   151
     total cpu time spent up to now is       30.4 secs

     Computing kpt #:   151  of   151
     total cpu time spent up to now is       30.5 secs

     ethr =  5.00E-06,  avg # of iterations = 27.7

     total cpu time spent up to now is       30.5 secs

     End of band structure calculation

          k = 0.0000 0.0000 0.0000 (  5505 PWs)   bands (ev):

   -20.1169 -20.0012  -8.6063  -7.7672  -3.6341  -3.6340  -3.6239  -3.6238
     2.5168   2.9693   4.0397   5.2256   5.3854   7.2819   7.8209   7.8210

          k =-0.0067 0.0115 0.0000 (  5503 PWs)   bands (ev):

   -20.1137 -19.9980  -8.6025  -7.7634  -3.6475  -3.6413  -3.6370  -3.6308
     2.5210   2.9735   4.0440   5.2298   5.3893   7.2859   7.8357   7.8601

          k =-0.0133 0.0231 0.0000 (  5497 PWs)   bands (ev):

   -20.1042 -19.9886  -8.5909  -7.7521  -3.6865  -3.6758  -3.6622  -3.6515
     2.5336   2.9863   4.0570   5.2428   5.4013   7.2980   7.8311   7.8699

          k =-0.0200 0.0346 0.0000 (  5505 PWs)   bands (ev):

   -20.0884 -19.9730  -8.5719  -7.7335  -3.7515  -3.7408  -3.6966  -3.6861
     2.5547   3.0077   4.0787   5.2643   5.4213   7.3182   7.8413   7.8789

          k =-0.0267 0.0462 0.0000 (  5507 PWs)   bands (ev):

   -20.0664 -19.9511  -8.5452  -7.7073  -3.8407  -3.8297  -3.7443  -3.7343
     2.5842   3.0375   4.1090   5.2945   5.4494   7.3464   7.8567   7.8919

          k =-0.0333 0.0577 0.0000 (  5515 PWs)   bands (ev):

   -20.0380 -19.9230  -8.5110  -7.6738  -3.9529  -3.9404  -3.8061  -3.7955
     2.6222   3.0759   4.1480   5.3333   5.4854   7.3827   7.8761   7.9092

          k =-0.0400 0.0693 0.0000 (  5515 PWs)   bands (ev):

   -20.0034 -19.8887  -8.4692  -7.6329  -4.0853  -4.0719  -3.8804  -3.8696
     2.6686   3.1228   4.1957   5.3807   5.5295   7.4270   7.9009   7.9316

          k =-0.0467 0.0808 0.0000 (  5511 PWs)   bands (ev):

   -19.9625 -19.8480  -8.4193  -7.5847  -4.2371  -4.2214  -3.9680  -3.9561
     2.7234   3.1782   4.2520   5.4368   5.5816   7.4795   7.9300   7.9598

          k =-0.0533 0.0924 0.0000 (  5511 PWs)   bands (ev):

   -19.9153 -19.8011  -8.3622  -7.5291  -4.4058  -4.3889  -4.0671  -4.0548
     2.7867   3.2421   4.3170   5.5015   5.6417   7.5400   7.9652   7.9932

          k =-0.0600 0.1039 0.0000 (  5509 PWs)   bands (ev):

   -19.8618 -19.7481  -8.2977  -7.4659  -4.5893  -4.5709  -4.1777  -4.1647
     2.8584   3.3145   4.3906   5.5747   5.7098   7.6082   8.0047   8.0314

          k =-0.0667 0.1155 0.0000 (  5513 PWs)   bands (ev):

   -19.8021 -19.6888  -8.2256  -7.3958  -4.7861  -4.7668  -4.2994  -4.2859
     2.9386   3.3954   4.4730   5.6566   5.7858   7.6844   8.0505   8.0765

          k =-0.0733 0.1270 0.0000 (  5509 PWs)   bands (ev):

   -19.7362 -19.6233  -8.1458  -7.3184  -4.9939  -4.9730  -4.4319  -4.4174
     3.0272   3.4849   4.5640   5.7471   5.8699   7.7686   8.1017   8.1285

          k =-0.0800 0.1386 0.0000 (  5509 PWs)   bands (ev):

   -19.6640 -19.5518  -8.0590  -7.2337  -5.2114  -5.1889  -4.5738  -4.5586
     3.1242   3.5827   4.6636   5.8463   5.9618   7.8604   8.1595   8.1865

          k =-0.0867 0.1501 0.0000 (  5513 PWs)   bands (ev):

   -19.5856 -19.4740  -7.9647  -7.1420  -5.4370  -5.4132  -4.7248  -4.7089
     3.2296   3.6891   4.7720   5.9539   6.0616   7.9600   8.2232   8.2510

          k =-0.0933 0.1617 0.0000 (  5525 PWs)   bands (ev):

   -19.5011 -19.3901  -7.8632  -7.0432  -5.6695  -5.6441  -4.8845  -4.8676
     3.3435   3.8039   4.8889   6.0702   6.1692   8.0670   8.2932   8.3218

          k =-0.1000 0.1732 0.0000 (  5513 PWs)   bands (ev):

   -19.4103 -19.2999  -7.7541  -6.9372  -5.9067  -5.8800  -5.0517  -5.0339
     3.4658   3.9271   5.0145   6.1951   6.2847   8.1816   8.3708   8.4016

          k =-0.1067 0.1848 0.0000 (  5505 PWs)   bands (ev):

   -19.3134 -19.2037  -7.6380  -6.8242  -6.1479  -6.1196  -5.2257  -5.2069
     3.5965   4.0588   5.1488   6.3285   6.4079   8.2441   8.3034   8.4561

          k =-0.1133 0.1963 0.0000 (  5521 PWs)   bands (ev):

   -19.2105 -19.1015  -7.5148  -6.7046  -6.3928  -6.3630  -5.4068  -5.3868
     3.7356   4.1989   5.2917   6.4706   6.5388   7.9695   8.2714   8.4326

          k =-0.1200 0.2078 0.0000 (  5513 PWs)   bands (ev):

   -19.1014 -18.9932  -7.3845  -6.6396  -6.6080  -6.5780  -5.5932  -5.5720
     3.8830   4.3473   5.4432   6.6211   6.6772   7.6890   8.0024   8.5652

          k =-0.1267 0.2194 0.0000 (  5502 PWs)   bands (ev):

   -18.9863 -18.8788  -7.2469  -6.8876  -6.8548  -6.4446  -5.7847  -5.7622
     4.0388   4.5041   5.6033   6.7803   6.8230   7.4021   7.7276   8.6952

          k =-0.1333 0.2309 0.0000 (  5518 PWs)   bands (ev):

   -18.8653 -18.7587  -7.1362  -7.1030  -7.1022  -6.3053  -5.9806  -5.9570
     4.2029   4.6691   5.7720   6.9478   6.9760   7.1105   7.4479   8.8975

          k =-0.1400 0.2425 0.0000 (  5510 PWs)   bands (ev):

   -18.7382 -18.6324  -7.3847  -7.3494  -6.9521  -6.1800  -6.1661  -6.1481
     4.3753   4.8424   5.9493   6.8157   7.1240   7.1362   7.1646   9.0169

          k =-0.1467 0.2540 0.0000 (  5516 PWs)   bands (ev):

   -18.6051 -18.5003  -7.6329  -7.5964  -6.7946  -6.3827  -6.3575  -6.0056
     4.5561   5.0240   6.1351   6.5170   6.8776   7.3030   7.3085   9.0708

          k =-0.1533 0.2656 0.0000 (  5522 PWs)   bands (ev):

   -18.4662 -18.3622  -7.8801  -7.8423  -6.6320  -6.5863  -6.5616  -5.8465
     4.7450   5.2137   6.2162   6.3295   6.5876   7.4766   7.5015   9.1971

          k =-0.1600 0.2771 0.0000 (  5510 PWs)   bands (ev):

   -18.3214 -18.2184  -8.1247  -8.0864  -6.7954  -6.7674  -6.4595  -5.6812
     4.9422   5.4115   5.9141   6.2981   6.5323   7.6562   7.7029   9.3307

          k =-0.1667 0.2887 0.0000 (  5510 PWs)   bands (ev):

   -18.1709 -18.0687  -8.3681  -8.3284  -7.0039  -6.9748  -6.2828  -5.5103
     5.1475   5.6120   5.6174   6.0066   6.7435   7.8416   7.9127   9.4685

          k =-0.1733 0.3002 0.0000 (  5512 PWs)   bands (ev):

   -18.0145 -17.9135  -8.6092  -8.5681  -7.2135  -7.1828  -6.0999  -5.3335
     5.3101   5.3610   5.7142   5.8312   6.9631   8.0323   8.1310   9.6145

          k =-0.1800 0.3118 0.0000 (  5514 PWs)   bands (ev):

   -17.8524 -17.7525  -8.8478  -8.8054  -7.4234  -7.3919  -5.9109  -5.1510
     5.0083   5.4226   5.5826   6.0528   7.1909   8.2271   8.3570   9.7563

          k =-0.1867 0.3233 0.0000 (  5512 PWs)   bands (ev):

   -17.6848 -17.5861  -9.0833  -9.0395  -7.6331  -7.6004  -5.7162  -4.9630
     4.7086   5.1321   5.8121   6.2821   7.4267   8.4252   8.5913   9.9051

          k =-0.1933 0.3349 0.0000 (  5518 PWs)   bands (ev):

   -17.5117 -17.4142  -9.3158  -9.2708  -7.8423  -7.8086  -5.5161  -4.7700
     4.4100   4.8427   6.0496   6.5190   7.6705   8.6253   8.8337  10.0564

          k =-0.2000 0.3464 0.0000 (  5522 PWs)   bands (ev):

   -17.3331 -17.2368  -9.5449  -9.4987  -8.0506  -8.0156  -5.3109  -4.5721
     4.1138   4.5556   6.2950   6.7633   7.9218   8.8253   9.0838  10.2079

          k =-0.2067 0.3580 0.0000 (  5518 PWs)   bands (ev):

   -17.1493 -17.0542  -9.7698  -9.7224  -8.2572  -8.2213  -5.1007  -4.3696
     3.8206   4.2714   6.5480   7.0147   8.1801   9.0229   9.3417  10.3597

          k =-0.2133 0.3695 0.0000 (  5514 PWs)   bands (ev):

   -16.9606 -16.8664  -9.9912  -9.9427  -8.4621  -8.4250  -4.8857  -4.1630
     3.5311   3.9894   6.8087   7.2730   8.4443   9.2148   9.6071  10.5100

          k =-0.2200 0.3811 0.0000 (  5518 PWs)   bands (ev):

   -16.7664 -16.6735 -10.2089 -10.1591  -8.6647  -8.6268  -4.6666  -3.9523
     3.2440   3.7107   7.0768   7.5377   8.7127   9.3973   9.8794  10.6580

          k =-0.2267 0.3926 0.0000 (  5512 PWs)   bands (ev):

   -16.5676 -16.4758 -10.4224 -10.3709  -8.8647  -8.8257  -4.4433  -3.7379
     2.9612   3.4351   7.3522   7.8085   8.9807   9.5672  10.1585  10.8041

          k =-0.2333 0.4041 0.0000 (  5506 PWs)   bands (ev):

   -16.3639 -16.2735 -10.6317 -10.5790  -9.0616  -9.0215  -4.2163  -3.5199
     2.6823   3.1635   7.6347   8.0846   9.2375   9.7274  10.4432  10.9509

          k =-0.2400 0.4157 0.0000 (  5498 PWs)   bands (ev):

   -16.1558 -16.0667 -10.8366 -10.7825  -9.2550  -9.2133  -3.9864  -3.2997
     2.4085   2.8963   7.9240   8.3653   9.4555   9.8974  10.7326  11.1023

          k =-0.2467 0.4272 0.0000 (  5486 PWs)   bands (ev):

   -15.9436 -15.8557 -11.0368 -10.9814  -9.4446  -9.4019  -3.7540  -3.0775
     2.1393   2.6339   8.2197   8.6493   9.5942  10.1140  11.0240  11.2604

          k =-0.2533 0.4388 0.0000 (  5490 PWs)   bands (ev):

   -15.7275 -15.6411 -11.2327 -11.1761  -9.6299  -9.5863  -3.5197  -2.8532
     1.8749   2.3760   8.5212   8.9350   9.6484  10.3834  11.3126  11.4261

          k =-0.2600 0.4503 0.0000 (  5486 PWs)   bands (ev):

   -15.5077 -15.4228 -11.4238 -11.3659  -9.8104  -9.7661  -3.2838  -2.6277
     1.6162   2.1232   8.8280   9.2203   9.6448  10.6844  11.5861  11.5963

          k =-0.2667 0.4619 0.0000 (  5484 PWs)   bands (ev):

   -15.2851 -15.2016 -11.6101 -11.5512  -9.9854  -9.9404  -3.0473  -2.4017
     1.3625   1.8754   9.1388   9.5016   9.6055  11.0024  11.7665  11.8091

          k =-0.2733 0.4734 0.0000 (  5486 PWs)   bands (ev):

   -15.0602 -14.9779 -11.7918 -11.7317 -10.1543 -10.1086  -2.8107  -2.1757
     1.1148   1.6334   9.4453   9.5518   9.7740  11.3291  11.9329  11.9398

          k =-0.2800 0.4850 0.0000 (  5482 PWs)   bands (ev):

   -14.8335 -14.7527 -11.9684 -11.9074 -10.3164 -10.2700  -2.5750  -1.9506
     0.8726   1.3966   9.4623   9.7775  10.0301  11.6555  11.9958  12.0002

          k =-0.2867 0.4965 0.0000 (  5486 PWs)   bands (ev):

   -14.6063 -14.5270 -12.1404 -12.0782 -10.4706 -10.4235  -2.3410  -1.7270
     0.6365   1.1652   9.3840  10.0934  10.2596  11.9571  12.0103  12.0412

          k =-0.2933 0.5081 0.0000 (  5482 PWs)   bands (ev):

   -14.3798 -14.3021 -12.3071 -12.2438 -10.6157 -10.5679  -2.1095  -1.5057
     0.4064   0.9404   9.3048  10.4080  10.4500  12.0154  12.0986  12.1744

          k =-0.3000 0.5196 0.0000 (  5476 PWs)   bands (ev):

   -14.1557 -14.0796 -12.4689 -12.4046 -10.7495 -10.7015  -1.8819  -1.2877
     0.1825   0.7219   9.2301  10.5911  10.7163  12.0095  12.1923  12.2987

          k =-0.3067 0.5312 0.0000 (  5484 PWs)   bands (ev):

   -13.9370 -13.8621 -12.6260 -12.5601 -10.8703 -10.8217  -1.6591  -1.0742
    -0.0351   0.5088   9.1637  10.6814  11.0113  11.9915  12.3260  12.3719

          k =-0.3133 0.5427 0.0000 (  5484 PWs)   bands (ev):

   -13.7267 -13.6530 -12.7779 -12.7109 -10.9742 -10.9252  -1.4421  -0.8653
    -0.2460   0.3021   9.1084  10.7299  11.2840  11.9617  12.4146  12.4870

          k =-0.3200 0.5543 0.0000 (  5484 PWs)   bands (ev):

   -13.5298 -13.4573 -12.9247 -12.8562 -11.0568 -11.0074  -1.2325  -0.6628
    -0.4501   0.1017   9.0666  10.7507  11.5196  11.9206  12.4372  12.6526

          k =-0.3267 0.5658 0.0000 (  5488 PWs)   bands (ev):

   -13.3524 -13.2811 -13.0664 -12.9968 -11.1118 -11.0621  -1.0307  -0.6477
    -0.4670  -0.0921   9.0404  10.7568  11.6996  11.8681  12.4485  12.7961

          k =-0.3333 0.5774 0.0000 (  5484 PWs)   bands (ev):

   -13.2027 -13.2026 -13.1321 -13.1320 -11.1318 -11.0820  -0.8384  -0.8382
    -0.2791  -0.2789   9.0314  10.7573  11.8058  11.8059  12.4535  12.8923

          k =-0.3267 0.5774 0.0000 (  5480 PWs)   bands (ev):

   -13.2687 -13.1978 -13.1402 -13.0701 -11.1263 -11.0765  -0.9311  -0.7459
    -0.3701  -0.1882   9.0337  10.7575  11.7713  11.8301  12.4515  12.8564

          k =-0.3200 0.5774 0.0000 (  5488 PWs)   bands (ev):

   -13.3337 -13.2623 -13.0874 -13.0178 -11.1097 -11.0600  -1.0223  -0.6565
    -0.4595  -0.0999   9.0408  10.7583  11.7345  11.8365  12.4420  12.8145

          k =-0.3133 0.5774 0.0000 (  5488 PWs)   bands (ev):

   -13.3974 -13.3255 -13.0445 -12.9753 -11.0812 -11.0316  -1.1116  -0.5697
    -0.5471  -0.0137   9.0527  10.7601  11.6957  11.8279  12.4232  12.7686

          k =-0.3067 0.5774 0.0000 (  5484 PWs)   bands (ev):

   -13.4593 -13.3871 -13.0117 -12.9431 -11.0407 -10.9914  -1.1990  -0.6328
    -0.4858   0.0702   9.0696  10.7631  11.6556  11.8067  12.3917  12.7168

          k =-0.3000 0.5774 0.0000 (  5488 PWs)   bands (ev):

   -13.5204 -13.4477 -12.9888 -12.9207 -10.9889 -10.9398  -1.2848  -0.7170
    -0.4050   0.1514   9.0915  10.7675  11.6135  11.7752  12.3465  12.6622

          k =-0.2933 0.5774 0.0000 (  5480 PWs)   bands (ev):

   -13.5801 -13.5067 -12.9751 -12.9074 -10.9261 -10.8772  -1.3687  -0.7995
    -0.3272   0.2301   9.1184  10.7733  11.5703  11.7351  12.2877  12.6051

          k =-0.2867 0.5774 0.0000 (  5478 PWs)   bands (ev):

   -13.6385 -13.5645 -12.9700 -12.9025 -10.8535 -10.8047  -1.4509  -0.8802
    -0.2527   0.3061   9.1504  10.7806  11.5259  11.6872  12.2158  12.6361

          k =-0.2800 0.5774 0.0000 (  5474 PWs)   bands (ev):

   -13.6955 -13.6211 -12.9723 -12.9051 -10.7718 -10.7232  -1.5313  -0.9592
    -0.1813   0.3794   9.1874  10.7891  11.4805  11.6320  12.1324  12.5188

          k =-0.2733 0.5774 0.0000 (  5480 PWs)   bands (ev):

   -13.7511 -13.6764 -12.9810 -12.9143 -10.6822 -10.6341  -1.6105  -1.0367
    -0.1135   0.4500   9.2293  10.7989  11.4344  11.5692  12.0407  12.3850

          k =-0.2667 0.5774 0.0000 (  5486 PWs)   bands (ev):

   -13.8056 -13.7304 -12.9952 -12.9286 -10.5860 -10.5382  -1.6873  -1.1122
    -0.0486   0.5178   9.2761  10.8096  11.3876  11.4971  11.9433  12.2381

          k =-0.2600 0.5774 0.0000 (  5486 PWs)   bands (ev):

   -13.8587 -13.7830 -13.0138 -12.9473 -10.4841 -10.4368  -1.7620  -1.1858
     0.0131   0.5830   9.3277  10.8210  11.3403  11.4145  11.8446  12.0808

          k =-0.2533 0.5774 0.0000 (  5488 PWs)   bands (ev):

   -13.9105 -13.8344 -13.0360 -12.9696 -10.3772 -10.3306  -1.8352  -1.2576
     0.0714   0.6453   9.3839  10.8326  11.2930  11.3190  11.7489  11.9152

          k =-0.2467 0.5774 0.0000 (  5492 PWs)   bands (ev):

   -13.9610 -13.8845 -13.0611 -12.9948 -10.2664 -10.2203  -1.9065  -1.3277
     0.1267   0.7042   9.4444  10.8441  11.2092  11.2454  11.6591  11.7435

          k =-0.2400 0.5774 0.0000 (  5498 PWs)   bands (ev):

   -14.0101 -13.9332 -13.0884 -13.0221 -10.1525 -10.1073  -1.9760  -1.3960
     0.1781   0.7608   9.5088  10.8546  11.0857  11.1980  11.5674  11.5766

          k =-0.2333 0.5774 0.0000 (  5496 PWs)   bands (ev):

   -14.0578 -13.9805 -13.1175 -13.0513 -10.0357  -9.9915  -2.0435  -1.4625
     0.2266   0.8148   9.5769  10.8626  10.9502  11.1508  11.3895  11.5013

          k =-0.2267 0.5774 0.0000 (  5496 PWs)   bands (ev):

   -14.1042 -14.0265 -13.1477 -13.0815  -9.9170  -9.8734  -2.1093  -1.5271
     0.2722   0.8661   9.6480  10.8055  10.8642  11.1039  11.2153  11.4321

          k =-0.2200 0.5774 0.0000 (  5508 PWs)   bands (ev):

   -14.1494 -14.0713 -13.1790 -13.1127  -9.7971  -9.7539  -2.1735  -1.5903
     0.3145   0.9142   9.7209  10.6546  10.8433  11.0574  11.0609  11.3675

          k =-0.2133 0.5774 0.0000 (  5516 PWs)   bands (ev):

   -14.1930 -14.1147 -13.2105 -13.1443  -9.6757  -9.6332  -2.2362  -1.6517
     0.3538   0.9600   9.7936  10.5020  10.7508  10.9763  11.0116  11.3068

          k =-0.2067 0.5774 0.0000 (  5524 PWs)   bands (ev):

   -14.2355 -14.1569 -13.2425 -13.1762  -9.5537  -9.5120  -2.2967  -1.7109
     0.3904   1.0033   9.8602  10.3546  10.5920  10.9567  10.9662  11.2489

          k =-0.2000 0.5774 0.0000 (  5524 PWs)   bands (ev):

   -14.2766 -14.1976 -13.2745 -13.2082  -9.4311  -9.3902  -2.3551  -1.7683
     0.4243   1.0441   9.9010  10.2332  10.4147  10.9218  10.9548  11.1935

          k =-0.1933 0.5774 0.0000 (  5526 PWs)   bands (ev):

   -14.3164 -14.2371 -13.3064 -13.2400  -9.3087  -9.2686  -2.4116  -1.8238
     0.4556   1.0821   9.8634  10.1913  10.2331  10.8781  10.9566  11.1403

          k =-0.1867 0.5774 0.0000 (  5534 PWs)   bands (ev):

   -14.3548 -14.2753 -13.3381 -13.2716  -9.1864  -9.1473  -2.4662  -1.8776
     0.4844   1.1180   9.7427  10.0507  10.2334  10.8353  10.9589  11.0892

          k =-0.1800 0.5774 0.0000 (  5526 PWs)   bands (ev):

   -14.3918 -14.3121 -13.3692 -13.3026  -9.0645  -9.0265  -2.5190  -1.9294
     0.5109   1.1520   9.5921   9.8694  10.3077  10.7937  10.9606  11.0399

          k =-0.1733 0.5774 0.0000 (  5524 PWs)   bands (ev):

   -14.4275 -14.3475 -13.3998 -13.3331  -8.9436  -8.9068  -2.5698  -1.9790
     0.5349   1.1836   9.4323   9.6898  10.3926  10.7530  10.9611  10.9924

          k =-0.1667 0.5774 0.0000 (  5518 PWs)   bands (ev):

   -14.4618 -14.3815 -13.4297 -13.3628  -8.8238  -8.7881  -2.6185  -2.0269
     0.5572   1.2130   9.2701   9.5130  10.4820  10.7135  10.9467  10.9604

          k =-0.1600 0.5774 0.0000 (  5522 PWs)   bands (ev):

   -14.4949 -14.4143 -13.4589 -13.3919  -8.7056  -8.6708  -2.6656  -2.0733
     0.5772   1.2403   9.1078   9.3389  10.5731  10.6751  10.9028  10.9583

          k =-0.1533 0.5774 0.0000 (  5516 PWs)   bands (ev):

   -14.5265 -14.4458 -13.4873 -13.4202  -8.5888  -8.5551  -2.7108  -2.1176
     0.5953   1.2660   8.9473   9.1682  10.6381  10.6646  10.8609  10.9549

          k =-0.1467 0.5774 0.0000 (  5512 PWs)   bands (ev):

   -14.5569 -14.4758 -13.5147 -13.4475  -8.4742  -8.4415  -2.7541  -2.1602
     0.6117   1.2894   8.7889   9.0013  10.6023  10.7542  10.8220  10.9503

          k =-0.1400 0.5774 0.0000 (  5516 PWs)   bands (ev):

   -14.5859 -14.5046 -13.5413 -13.4740  -8.3620  -8.3303  -2.7955  -2.2010
     0.6264   1.3110   8.6338   8.8385  10.5678  10.7777  10.8495  10.9446

          k =-0.1333 0.5774 0.0000 (  5520 PWs)   bands (ev):

   -14.6137 -14.5320 -13.5670 -13.4994  -8.2522  -8.2215  -2.8350  -2.2399
     0.6396   1.3310   8.4818   8.6802  10.5346  10.7420  10.9363  10.9379

          k =-0.1267 0.5774 0.0000 (  5508 PWs)   bands (ev):

   -14.6399 -14.5579 -13.5914 -13.5234  -8.1451  -8.1152  -2.8723  -2.2768
     0.6515   1.3494   8.3343   8.5268  10.5029  10.7068  10.9305  11.0218

          k =-0.1200 0.5774 0.0000 (  5512 PWs)   bands (ev):

   -14.6650 -14.5827 -13.6149 -13.5468  -8.0413  -8.0123  -2.9080  -2.3119
     0.6620   1.3662   8.1911   8.3786  10.4726  10.6731  10.9225  11.1045

          k =-0.1133 0.5774 0.0000 (  5526 PWs)   bands (ev):

   -14.6886 -14.6062 -13.6373 -13.5690  -7.9416  -7.9129  -2.9420  -2.3454
     0.6714   1.3812   8.0527   8.2362  10.4438  10.6411  10.9139  11.1629

          k =-0.1067 0.5774 0.0000 (  5538 PWs)   bands (ev):

   -14.7110 -14.6283 -13.6585 -13.5901  -7.8451  -7.8172  -2.9739  -2.3771
     0.6795   1.3950   7.9199   8.0994  10.4165  10.6108  10.9049  11.1302

          k =-0.1000 0.5774 0.0000 (  5530 PWs)   bands (ev):

   -14.7319 -14.6491 -13.6783 -13.6099  -7.7522  -7.7252  -3.0038  -2.4063
     0.6868   1.4079   7.7930   7.9689  10.3907  10.5824  10.8959  11.1003

          k =-0.0933 0.5774 0.0000 (  5528 PWs)   bands (ev):

   -14.7515 -14.6685 -13.6971 -13.6286  -7.6634  -7.6373  -3.0318  -2.4338
     0.6932   1.4196   7.6721   7.8450  10.3665  10.5556  10.8868  11.0709

          k =-0.0867 0.5774 0.0000 (  5534 PWs)   bands (ev):

   -14.7697 -14.6865 -13.7147 -13.6461  -7.5795  -7.5542  -3.0581  -2.4595
     0.6990   1.4302   7.5576   7.7278  10.3439  10.5306  10.8778  11.0444

          k =-0.0800 0.5774 0.0000 (  5546 PWs)   bands (ev):

   -14.7866 -14.7034 -13.7313 -13.6627  -7.5004  -7.4758  -3.0824  -2.4833
     0.7038   1.4397   7.4499   7.6177  10.3229  10.5073  10.8690  11.0194

          k =-0.0733 0.5774 0.0000 (  5546 PWs)   bands (ev):

   -14.8022 -14.7188 -13.7463 -13.6777  -7.4262  -7.4025  -3.1045  -2.5052
     0.7080   1.4482   7.3494   7.5153  10.3035  10.4860  10.8605  10.9966

          k =-0.0667 0.5774 0.0000 (  5542 PWs)   bands (ev):

   -14.8163 -14.7328 -13.7601 -13.6915  -7.3574  -7.3344  -3.1247  -2.5249
     0.7116   1.4558   7.2566   7.4206  10.2858  10.4666  10.8526  10.9757

          k =-0.0600 0.5774 0.0000 (  5542 PWs)   bands (ev):

   -14.8292 -14.7455 -13.7727 -13.7039  -7.2943  -7.2719  -3.1431  -2.5430
     0.7146   1.4625   7.1714   7.3340  10.2697  10.4489  10.8450  10.9568

          k =-0.0533 0.5774 0.0000 (  5542 PWs)   bands (ev):

   -14.8407 -14.7568 -13.7840 -13.7148  -7.2372  -7.2151  -3.1595  -2.5593
     0.7172   1.4682   7.0944   7.2557  10.2552  10.4330  10.8380  10.9398

          k =-0.0467 0.5774 0.0000 (  5550 PWs)   bands (ev):

   -14.8509 -14.7669 -13.7940 -13.7247  -7.1867  -7.1648  -3.1741  -2.5736
     0.7196   1.4733   7.0258   7.1860  10.2425  10.4190  10.8318  10.9249

          k =-0.0400 0.5774 0.0000 (  5554 PWs)   bands (ev):

   -14.8597 -14.7756 -13.8027 -13.7333  -7.1421  -7.1205  -3.1866  -2.5860
     0.7213   1.4776   6.9657   7.1250  10.2314  10.4068  10.8262  10.9119

          k =-0.0333 0.5774 0.0000 (  5546 PWs)   bands (ev):

   -14.8671 -14.7829 -13.8100 -13.7406  -7.1038  -7.0826  -3.1968  -2.5962
     0.7230   1.4812   6.9146   7.0731  10.2220  10.3966  10.8214  10.9009

          k =-0.0267 0.5774 0.0000 (  5534 PWs)   bands (ev):

   -14.8731 -14.7889 -13.8159 -13.7464  -7.0719  -7.0511  -3.2056  -2.6048
     0.7241   1.4844   6.8725   7.0306  10.2143  10.3881  10.8175  10.8919

          k =-0.0200 0.5774 0.0000 (  5538 PWs)   bands (ev):

   -14.8778 -14.7936 -13.8206 -13.7511  -7.0474  -7.0267  -3.2124  -2.6115
     0.7249   1.4866   6.8395   6.9971  10.2083  10.3816  10.8143  10.8849

          k =-0.0133 0.5774 0.0000 (  5536 PWs)   bands (ev):

   -14.8812 -14.7970 -13.8240 -13.7545  -7.0293  -7.0091  -3.2172  -2.6163
     0.7255   1.4883   6.8158   6.9731  10.2040  10.3769  10.8121  10.8801

          k =-0.0067 0.5774 0.0000 (  5540 PWs)   bands (ev):

   -14.8833 -14.7990 -13.8260 -13.7565  -7.0187  -6.9987  -3.2201  -2.6191
     0.7259   1.4892   6.8016   6.9587  10.2015  10.3740  10.8107  10.8769

          k = 0.0000 0.5774 0.0000 (  5540 PWs)   bands (ev):

   -14.8839 -14.7997 -13.8266 -13.7572  -7.0152  -6.9954  -3.2211  -2.6201
     0.7258   1.4894   6.7969   6.9539  10.2006  10.3731  10.8102  10.8759

          k = 0.0000 0.5658 0.0000 (  5536 PWs)   bands (ev):

   -14.9263 -14.8420 -13.7807 -13.7111  -7.0127  -6.9928  -3.2376  -2.6349
     0.7464   1.5079   6.7981   6.9552   9.9808  10.5412  10.5963  11.1490

          k = 0.0000 0.5543 0.0000 (  5526 PWs)   bands (ev):

   -15.0366 -14.9523 -13.6596 -13.5901  -7.0055  -6.9856  -3.2860  -2.6786
     0.8065   1.5623   6.8019   6.9589   9.6971  10.2465  10.8896  11.3973

          k = 0.0000 0.5427 0.0000 (  5540 PWs)   bands (ev):

   -15.1862 -15.1014 -13.4926 -13.4235  -6.9940  -6.9740  -3.3639  -2.7490
     0.9032   1.6498   6.8078   6.9647   9.4137   9.9558  11.1098  11.2041

          k = 0.0000 0.5312 0.0000 (  5544 PWs)   bands (ev):

   -15.3551 -15.2697 -13.2992 -13.2312  -6.9775  -6.9576  -3.4671  -2.8429
     1.0330   1.7679   6.8162   6.9732   9.1340   9.6701  10.8409  11.4783

          k = 0.0000 0.5196 0.0000 (  5550 PWs)   bands (ev):

   -15.5329 -15.4469 -13.0897 -13.0225  -6.9564  -6.9366  -3.5911  -2.9565
     1.1908   1.9123   6.8267   6.9840   8.8590   9.3894  10.5623  11.2609

          k = 0.0000 0.5081 0.0000 (  5550 PWs)   bands (ev):

   -15.7146 -15.6278 -12.8693 -12.8034  -6.9307  -6.9110  -3.7315  -3.0857
     1.3730   2.0801   6.8395   6.9971   8.5890   9.1141  10.2856  11.0317

          k = 0.0000 0.4965 0.0000 (  5548 PWs)   bands (ev):

   -15.8973 -15.8094 -12.6414 -12.5766  -6.9003  -6.8806  -3.8844  -3.2275
     1.5750   2.2670   6.8541   7.0126   8.3245   8.8443  10.0126  10.8023

          k = 0.0000 0.4850 0.0000 (  5532 PWs)   bands (ev):

   -16.0787 -15.9901 -12.4072 -12.3439  -6.8650  -6.8456  -4.0466  -3.3789
     1.7939   2.4702   6.8703   7.0303   8.0662   8.5802   9.7442  10.5742

          k = 0.0000 0.4734 0.0000 (  5522 PWs)   bands (ev):

   -16.2588 -16.1690 -12.1681 -12.1063  -6.8252  -6.8061  -4.2156  -3.5372
     2.0267   2.6874   6.8871   7.0499   7.8149   8.3219   9.4808  10.3484

          k = 0.0000 0.4619 0.0000 (  5528 PWs)   bands (ev):

   -16.4364 -16.3454 -11.9250 -11.8645  -6.7813  -6.7622  -4.3891  -3.7006
     2.2703   2.9154   6.9021   7.0714   7.5726   8.0698   9.2228  10.1253

          k = 0.0000 0.4503 0.0000 (  5528 PWs)   bands (ev):

   -16.6110 -16.5190 -11.6780 -11.6192  -6.7328  -6.7138  -4.5654  -3.8672
     2.5237   3.1526   6.9099   7.0939   7.3455   7.8241   8.9705   9.9056

          k = 0.0000 0.4388 0.0000 (  5532 PWs)   bands (ev):

   -16.7825 -16.6894 -11.4282 -11.3707  -6.6801  -6.6611  -4.7431  -4.0357
     2.7850   3.3979   6.8836   7.1170   7.1600   7.5862   8.7241   9.6899

          k = 0.0000 0.4272 0.0000 (  5540 PWs)   bands (ev):

   -16.9504 -16.8564 -11.1754 -11.1193  -6.6230  -6.6043  -4.9214  -4.2048
     3.0527   3.6495   6.7588   7.0801   7.1347   7.3617   8.4839   9.4783

          k = 0.0000 0.4157 0.0000 (  5540 PWs)   bands (ev):

   -17.1146 -17.0195 -10.9201 -10.8652  -6.5619  -6.5431  -5.0984  -4.3738
     3.3257   3.9055   6.5643   7.0767   7.0775   7.2213   8.2500   9.2707

          k = 0.0000 0.4041 0.0000 (  5540 PWs)   bands (ev):

   -17.2751 -17.1790 -10.6627 -10.6088  -6.4965  -6.4778  -5.2742  -4.5418
     3.6031   4.1654   6.3552   6.8798   7.0966   7.2278   8.0228   9.0682

          k = 0.0000 0.3926 0.0000 (  5536 PWs)   bands (ev):

   -17.4315 -17.3343 -10.4030 -10.3507  -6.4269  -6.4086  -5.4477  -4.7079
     3.8836   4.4279   6.1459   6.6696   7.1223   7.2562   7.8028   8.8706

          k = 0.0000 0.3811 0.0000 (  5532 PWs)   bands (ev):

   -17.5840 -17.4857 -10.1416 -10.0908  -6.3537  -6.3353  -5.6187  -4.8717
     4.1662   4.6914   5.9401   6.4641   7.1486   7.2887   7.5920   8.6792

          k = 0.0000 0.3695 0.0000 (  5536 PWs)   bands (ev):

   -17.7324 -17.6332  -9.8792  -9.8296  -6.2767  -6.2584  -5.7866  -5.0329
     4.4509   4.9535   5.7391   6.2668   7.1657   7.3231   7.3991   8.4920

          k = 0.0000 0.3580 0.0000 (  5528 PWs)   bands (ev):

   -17.8766 -17.7765  -9.6152  -9.5669  -6.1959  -6.1775  -5.9510  -5.1913
     4.7366   5.2087   5.5438   6.0833   7.1105   7.2857   7.3593   8.3122

          k = 0.0000 0.3464 0.0000 (  5528 PWs)   bands (ev):

   -18.0166 -17.9157  -9.3503  -9.3036  -6.1118  -6.1117  -6.0935  -5.3462
     5.0205   5.3556   5.4349   5.9354   6.9461   7.2881   7.3956   8.1401

          k = 0.0000 0.3349 0.0000 (  5530 PWs)   bands (ev):

   -18.1524 -18.0506  -9.0851  -9.0397  -6.2686  -6.0242  -6.0061  -5.4976
     5.1601   5.3168   5.5233   5.9307   6.7634   7.3126   7.4319   7.9749

          k = 0.0000 0.3233 0.0000 (  5526 PWs)   bands (ev):

   -18.2838 -18.1813  -8.8196  -8.7756  -6.4213  -5.9331  -5.9155  -5.6450
     4.9874   5.4205   5.5943   6.1229   6.5828   7.3362   7.4648   7.7834

          k = 0.0000 0.3118 0.0000 (  5514 PWs)   bands (ev):

   -18.4107 -18.3074  -8.5544  -8.5115  -6.5695  -5.8395  -5.8220  -5.7880
     4.8158   5.2682   5.8730   6.3683   6.4084   7.3463   7.4794   7.6330

          k = 0.0000 0.3002 0.0000 (  5514 PWs)   bands (ev):

   -18.5335 -18.4292  -8.2899  -8.2481  -6.7132  -5.9272  -5.7432  -5.7258
     4.6497   5.1094   6.1306   6.2561   6.6227   7.3194   7.3963   7.5900

          k = 0.0000 0.2887 0.0000 (  5500 PWs)   bands (ev):

   -18.6517 -18.5466  -8.0259  -7.9854  -6.8524  -6.0618  -5.6442  -5.6271
     4.4896   4.9525   6.0620   6.4273   6.8735   7.2447   7.2563   7.5985

          k = 0.0000 0.2771 0.0000 (  5522 PWs)   bands (ev):

   -18.7656 -18.6598  -7.7636  -7.7245  -6.9871  -6.1921  -5.5434  -5.5267
     4.3355   4.7997   5.9070   6.6663   7.0283   7.1594   7.2056   7.6037

          k = 0.0000 0.2656 0.0000 (  5520 PWs)   bands (ev):

   -18.8750 -18.7684  -7.5027  -7.4650  -7.1164  -6.3177  -5.4403  -5.4238
     4.1876   4.6522   5.7558   6.8094   6.9201   7.1608   7.4196   7.6303

          k = 0.0000 0.2540 0.0000 (  5514 PWs)   bands (ev):

   -18.9800 -18.8725  -7.2491  -7.2358  -7.2076  -6.4384  -5.3356  -5.3191
     4.0458   4.5104   5.6105   6.7735   6.7821   7.3370   7.6626   7.6639

          k = 0.0000 0.2425 0.0000 (  5514 PWs)   bands (ev):

   -19.0803 -18.9722  -7.3603  -6.9881  -6.9536  -6.5542  -5.2297  -5.2135
     3.9103   4.3744   5.4714   6.6462   6.6745   7.5720   7.6945   7.7517

          k = 0.0000 0.2309 0.0000 (  5526 PWs)   bands (ev):

   -19.1761 -19.0674  -7.4746  -6.7358  -6.7039  -6.6644  -5.1229  -5.1071
     3.7810   4.2445   5.3385   6.5154   6.5648   7.7272   7.7850   7.8121

          k = 0.0000 0.2194 0.0000 (  5518 PWs)   bands (ev):

   -19.2674 -19.1580  -7.5837  -6.7713  -6.4872  -6.4555  -5.0153  -4.9996
     3.6579   4.1207   5.2121   6.3904   6.4554   7.7581   7.8149   8.0395

          k = 0.0000 0.2078 0.0000 (  5524 PWs)   bands (ev):

   -19.3541 -19.2441  -7.6874  -6.8720  -6.2434  -6.2133  -4.9078  -4.8923
     3.5411   4.0031   5.0921   6.2715   6.3489   7.7865   7.8418   8.1818

          k = 0.0000 0.1963 0.0000 (  5532 PWs)   bands (ev):

   -19.4362 -19.3256  -7.7858  -6.9677  -6.0052  -5.9767  -4.8007  -4.7855
     3.4306   3.8917   4.9785   6.1588   6.2469   7.8118   7.8662   8.1419

          k = 0.0000 0.1848 0.0000 (  5534 PWs)   bands (ev):

   -19.5137 -19.4026  -7.8787  -7.0581  -5.7726  -5.7457  -4.6944  -4.6795
     3.3263   3.7866   4.8714   6.0525   6.1499   7.8327   7.8864   8.0585

          k = 0.0000 0.1732 0.0000 (  5526 PWs)   bands (ev):

   -19.5865 -19.4747  -7.9661  -7.1431  -5.5471  -5.5221  -4.5893  -4.5748
     3.2283   3.6879   4.7707   5.9525   6.0584   7.8460   7.9043   7.9758

          k = 0.0000 0.1617 0.0000 (  5522 PWs)   bands (ev):

   -19.6546 -19.5424  -8.0480  -7.2229  -5.3294  -5.3056  -4.4865  -4.4722
     3.1367   3.5954   4.6765   5.8589   5.9723   7.8363   7.9160   7.9177

          k = 0.0000 0.1501 0.0000 (  5526 PWs)   bands (ev):

   -19.7182 -19.6055  -8.1246  -7.2975  -5.1199  -5.0981  -4.3862  -4.3724
     3.0513   3.5092   4.5888   5.7717   5.8918   7.7810   7.9016   7.9264

          k = 0.0000 0.1386 0.0000 (  5522 PWs)   bands (ev):

   -19.7770 -19.6640  -8.1956  -7.3663  -4.9203  -4.8999  -4.2889  -4.2758
     2.9722   3.4295   4.5076   5.6910   5.8172   7.7123   7.9025   7.9310

          k = 0.0000 0.1270 0.0000 (  5520 PWs)   bands (ev):

   -19.8312 -19.7177  -8.2609  -7.4300  -4.7312  -4.7118  -4.1963  -4.1832
     2.8995   3.3560   4.4329   5.6167   5.7484   7.6453   7.9032   7.9329

          k = 0.0000 0.1155 0.0000 (  5524 PWs)   bands (ev):

   -19.8807 -19.7669  -8.3208  -7.4882  -4.5539  -4.5362  -4.1081  -4.0954
     2.8331   3.2890   4.3646   5.5488   5.6855   7.5831   7.9011   7.9305

          k = 0.0000 0.1039 0.0000 (  5512 PWs)   bands (ev):

   -19.9255 -19.8113  -8.3749  -7.5411  -4.3892  -4.3724  -4.0244  -4.0128
     2.7730   3.2282   4.3029   5.4874   5.6285   7.5264   7.8964   7.9267

          k = 0.0000 0.0924 0.0000 (  5516 PWs)   bands (ev):

   -19.9656 -19.8511  -8.4231  -7.5884  -4.2385  -4.2229  -3.9479  -3.9366
     2.7192   3.1739   4.2476   5.4325   5.5776   7.4753   7.8878   7.9192

          k = 0.0000 0.0808 0.0000 (  5518 PWs)   bands (ev):

   -20.0010 -19.8862  -8.4659  -7.6303  -4.1024  -4.0884  -3.8781  -3.8669
     2.6718   3.1259   4.1989   5.3840   5.5325   7.4301   7.8782   7.9104

          k = 0.0000 0.0693 0.0000 (  5524 PWs)   bands (ev):

   -20.0318 -19.9167  -8.5031  -7.6666  -3.9818  -3.9688  -3.8162  -3.8048
     2.6306   3.0844   4.1566   5.3419   5.4935   7.3908   7.8673   7.9005

          k = 0.0000 0.0577 0.0000 (  5520 PWs)   bands (ev):

   -20.0577 -19.9425  -8.5346  -7.6972  -3.8778  -3.8659  -3.7621  -3.7512
     2.5958   3.0492   4.1209   5.3064   5.4604   7.3576   7.8561   7.8904

          k = 0.0000 0.0462 0.0000 (  5508 PWs)   bands (ev):

   -20.0790 -19.9636  -8.5606  -7.7223  -3.7904  -3.7801  -3.7165  -3.7058
     2.5674   3.0204   4.0917   5.2773   5.4333   7.3303   7.8451   7.8816

          k = 0.0000 0.0346 0.0000 (  5502 PWs)   bands (ev):

   -20.0955 -19.9800  -8.5805  -7.7419  -3.7224  -3.7121  -3.6806  -3.6702
     2.5452   2.9981   4.0689   5.2546   5.4123   7.3091   7.8371   7.8738

          k = 0.0000 0.0231 0.0000 (  5494 PWs)   bands (ev):

   -20.1073 -19.9917  -8.5948  -7.7559  -3.6731  -3.6629  -3.6549  -3.6445
     2.5294   2.9821   4.0527   5.2385   5.3973   7.2940   7.8293   7.8636

          k = 0.0000 0.0115 0.0000 (  5497 PWs)   bands (ev):

   -20.1144 -19.9988  -8.6034  -7.7642  -3.6442  -3.6394  -3.6337  -3.6290
     2.5199   2.9725   4.0429   5.2288   5.3883   7.2849   7.8240   7.8325

          k = 0.0000 0.0000 0.0000 (  5505 PWs)   bands (ev):

   -20.1169 -20.0012  -8.6063  -7.7672  -3.6341  -3.6340  -3.6239  -3.6238
     2.5168   2.9693   4.0397   5.2255   5.3853   7.2822   7.8209   7.8210

     Writing all to output data dir ./tmp/C2L_AA_PBE_vdW.save/

     init_run     :      9.27s CPU      9.31s WALL (       1 calls)
     electrons    :     21.08s CPU     21.12s WALL (       1 calls)

     Called by init_run:
     wfcinit      :      0.00s CPU      0.00s WALL (       1 calls)
     wfcinit:atom :      0.03s CPU      0.03s WALL (     151 calls)
     wfcinit:wfcr :      1.02s CPU      1.02s WALL (     151 calls)
     potinit      :      8.93s CPU      8.96s WALL (       1 calls)
     hinit0       :      0.30s CPU      0.31s WALL (       1 calls)

     Called by electrons:
     c_bands      :     21.07s CPU     21.11s WALL (       1 calls)
     v_of_rho     :      8.93s CPU      8.96s WALL (       1 calls)
     v_h          :      0.00s CPU      0.00s WALL (       1 calls)
     v_xc         :      8.93s CPU      8.96s WALL (       1 calls)
     vdW_kernel   :      8.89s CPU      8.91s WALL (       1 calls)

     Called by c_bands:
     init_us_2    :      0.02s CPU      0.02s WALL (     151 calls)
     init_us_2:cp :      0.02s CPU      0.02s WALL (     151 calls)
     cegterg      :     19.87s CPU     19.88s WALL (     290 calls)

     Called by sum_band:

     Called by *egterg:
     cdiaghg      :      1.44s CPU      1.46s WALL (    4327 calls)
     cegterg:over :      1.57s CPU      1.61s WALL (    4176 calls)
     cegterg:upda :      1.38s CPU      1.32s WALL (    4176 calls)
     cegterg:last :      1.90s CPU      1.47s WALL (    1955 calls)
     h_psi        :     13.72s CPU     14.04s WALL (    4617 calls)
     g_psi        :      0.13s CPU      0.19s WALL (    4176 calls)

     Called by h_psi:
     h_psi:calbec :      1.02s CPU      1.05s WALL (    4617 calls)
     vloc_psi     :     11.33s CPU     11.78s WALL (    4617 calls)
     add_vuspsi   :      1.25s CPU      1.08s WALL (    4617 calls)

     General routines
     calbec       :      1.02s CPU      1.03s WALL (    4617 calls)
     fft          :      0.27s CPU      0.28s WALL (      61 calls)
     fftw         :     10.11s CPU     10.47s WALL (   68652 calls)
     davcio       :      0.00s CPU      0.03s WALL (     302 calls)

     Parallel routines

     PWSCF        :     30.72s CPU     30.97s WALL


   This run was terminated on:  16:25: 1  14Apr2024            

=------------------------------------------------------------------------------=
   JOB DONE.
=------------------------------------------------------------------------------=
