
     Program BANDS v.7.2 starts on 18Apr2024 at  8:18: 5 

     This program is part of the open-source Quantum ESPRESSO suite
     for quantum simulation of materials; please cite
         "P. Giannozzi et al., J. Phys.:Condens. Matter 21 395502 (2009);
         "P. Giannozzi et al., J. Phys.:Condens. Matter 29 465901 (2017);
         "P. Giannozzi et al., J. Chem. Phys. 152 154105 (2020);
          URL http://www.quantum-espresso.org", 
     in publications or presentations arising from this work. More details at
     http://www.quantum-espresso.org/quote

     Parallel version (MPI & OpenMP), running on       8 processor cores
     Number of MPI processes:                 8
     Threads/MPI process:                     1

     MPI processes distributed on     1 nodes
     R & G space division:  proc/nbgrp/npool/nimage =       8
     0 MiB available memory on the printing compute node when the environment starts


     Reading xml data from directory:

     ./tmp/MoS2_bulk_pbe_vdW_wsoc.save/

     IMPORTANT: XC functional enforced from input :
     Exchange-correlation= PBE
                           (   1   4   3   4   0   0   0)
     Any further DFT definition will be discarded
     Please, verify this is what you really want


     Parallelization info
     --------------------
     sticks:   dense  smooth     PW     G-vecs:    dense   smooth      PW
     Min          85      85     24                 7173     7173    1130
     Max          86      86     25                 7186     7186    1149
     Sum         685     685    199                57449    57449    9157

     Using Slab Decomposition

     Reading collected, re-writing distributed wavefunctions
     high-symmetry point:  0.0000 0.0000 0.0000   x coordinate   0.0000
     high-symmetry point: -0.3333 0.5774 0.0000   x coordinate   0.6667
     high-symmetry point:  0.0000 0.5774 0.0000   x coordinate   1.0000
     high-symmetry point:  0.0000 0.0000 0.0000   x coordinate   1.5773
     high-symmetry point:  0.0000 0.0000 0.1283   x coordinate   1.7056
     high-symmetry point: -0.3333 0.5774 0.1283   x coordinate   1.7056

     Plottable bands (eV) written to file Bande_MoS2_bulk_pbe_vdW_wsoc.dat.gnu
     Bands written to file Bande_MoS2_bulk_pbe_vdW_wsoc.dat

 **************************************************************************

                    xk=(   0.00000,   0.00000,   0.00000  )

     double point group D_3d (-3m) 
     there are 12 classes and  6 irreducible representations
     the character table:

       E     -E    2C3   -2C3  3C2'  -3C2' i     -i    2S6   -2S6  3s_v  -3s_v
                                                                              
G_4+   2.00 -2.00  1.00 -1.00  0.00  0.00  2.00 -2.00  1.00 -1.00  0.00  0.00
G_5+   1.00 -1.00 -1.00  1.00  0.00  0.00  1.00 -1.00 -1.00  1.00  0.00  0.00
G_6+   1.00 -1.00 -1.00  1.00  0.00  0.00  1.00 -1.00 -1.00  1.00  0.00  0.00
G_4-   2.00 -2.00  1.00 -1.00  0.00  0.00 -2.00  2.00 -1.00  1.00  0.00  0.00
G_5-   1.00 -1.00 -1.00  1.00  0.00  0.00 -1.00  1.00  1.00 -1.00  0.00  0.00
G_6-   1.00 -1.00 -1.00  1.00  0.00  0.00 -1.00  1.00  1.00 -1.00  0.00  0.00

     imaginary part

       E     -E    2C3   -2C3  3C2'  -3C2' i     -i    2S6   -2S6  3s_v  -3s_v
                                                                              
G_4+   0.00  0.00  0.00  0.00  0.00  0.00  0.00  0.00  0.00  0.00  0.00  0.00
G_5+   0.00  0.00  0.00  0.00  1.00 -1.00  0.00  0.00  0.00  0.00  1.00 -1.00
G_6+   0.00  0.00  0.00  0.00 -1.00  1.00  0.00  0.00  0.00  0.00 -1.00  1.00
G_4-   0.00  0.00  0.00  0.00  0.00  0.00  0.00  0.00  0.00  0.00  0.00  0.00
G_5-   0.00  0.00  0.00  0.00  1.00 -1.00  0.00  0.00  0.00  0.00 -1.00  1.00
G_6-   0.00  0.00  0.00  0.00 -1.00  1.00  0.00  0.00  0.00  0.00  1.00 -1.00

     the symmetry operations in each class and the name of the first element:

     E             1
                                                                 
     -E           -1
                                                                 
     2C3           3    4
                                                                 
     -2C3         -3   -4
                                                                 
     3C2'          5    6   -2
                                                                 
     -3C2'         2   -5   -6
                                                                 
     i             7
                                                                 
     -i           -7
                                                                 
     2S6           9   10
                                                                 
     -2S6         -9  -10
                                                                 
     3s_v         11   12   -8
                                                                 
     -3s_v         8  -11  -12
                                                                 

     Band symmetry, D_3d (-3m)  double point group:

     e(  1 -  4) =    -50.63228  eV     4   --> G_4+  L_6+     
     e(  1 -  4) =    -50.63228  eV     4   --> G_4-  L_6-     
     e(  5 -  6) =    -24.77381  eV     2   --> G_4+  L_6+     
     e(  7 -  8) =    -24.77363  eV     2   --> G_4-  L_6-     
     e(  9 - 16) =    -24.55204  eV     8   --> G_4+  L_6+     
     e(  9 - 16) =    -24.55204  eV     8   --> G_5+  L_4+     
     e(  9 - 16) =    -24.55204  eV     8   --> G_6+  L_5+     
     e(  9 - 16) =    -24.55204  eV     8   --> G_4-  L_6-     
     e(  9 - 16) =    -24.55204  eV     8   --> G_5-  L_4-     
     e(  9 - 16) =    -24.55204  eV     8   --> G_6-  L_5-     
     e( 17 - 18) =     -4.00238  eV     2   --> G_4+  L_6+     
     e( 19 - 20) =     -3.73573  eV     2   --> G_4-  L_6-     
     e( 21 - 22) =     -2.80903  eV     2   --> G_4+  L_6+     
     e( 23 - 24) =     -2.37433  eV     2   --> G_4-  L_6-     
     e( 25 - 26) =      4.09245  eV     2   --> G_4+  L_6+     
     e( 27 - 28) =      5.11245  eV     2   --> G_4-  L_6-     
     e( 29 - 30) =      7.44422  eV     2   --> G_4+  L_6+     
     e( 31 - 34) =      7.67747  eV     4   --> G_4+  L_6+     
     e( 31 - 34) =      7.67747  eV     4   --> G_5+  L_4+     
     e( 31 - 34) =      7.67747  eV     4   --> G_6+  L_5+     
     e( 35 - 38) =      7.69051  eV     4   --> G_4-  L_6-     
     e( 35 - 38) =      7.69051  eV     4   --> G_5-  L_4-     
     e( 35 - 38) =      7.69051  eV     4   --> G_6-  L_5-     
     e( 39 - 42) =      8.76443  eV     4   --> G_4+  L_6+     
     e( 39 - 42) =      8.76443  eV     4   --> G_5+  L_4+     
     e( 39 - 42) =      8.76443  eV     4   --> G_6+  L_5+     
     e( 43 - 46) =      8.81014  eV     4   --> G_4-  L_6-     
     e( 43 - 46) =      8.81014  eV     4   --> G_5-  L_4-     
     e( 43 - 46) =      8.81014  eV     4   --> G_6-  L_5-     
     e( 47 - 48) =      9.71972  eV     2   --> G_4-  L_6-     
     e( 49 - 50) =      9.76534  eV     2   --> G_4+  L_6+     
     e( 51 - 52) =     10.89531  eV     2   --> G_4-  L_6-     
     e( 53 - 56) =     13.01181  eV     4   --> G_4+  L_6+     
     e( 53 - 56) =     13.01181  eV     4   --> G_5+  L_4+     
     e( 53 - 56) =     13.01181  eV     4   --> G_6+  L_5+     
     e( 57 - 60) =     13.04049  eV     4   --> G_4-  L_6-     
     e( 57 - 60) =     13.04049  eV     4   --> G_5-  L_4-     
     e( 57 - 60) =     13.04049  eV     4   --> G_6-  L_5-     
     e( 61 - 64) =     13.16595  eV     4   --> G_4+  L_6+     
     e( 61 - 64) =     13.16595  eV     4   --> G_5+  L_4+     
     e( 61 - 64) =     13.16595  eV     4   --> G_6+  L_5+     
     e( 65 - 68) =     13.33396  eV     4   --> G_4-  L_6-     
     e( 65 - 68) =     13.33396  eV     4   --> G_5-  L_4-     
     e( 65 - 68) =     13.33396  eV     4   --> G_6-  L_5-     
     e( 69 - 70) =     16.46846  eV     2   --> G_4+  L_6+     

 **************************************************************************

 **************************************************************************

                    xk=(  -0.01587,   0.02749,   0.00000  )

     double point group C_2  (2)   
     there are  4 classes and  2 irreducible representations
     the character table:

       E     -E    C2    -C2  
                              
G_3    1.00 -1.00  0.00  0.00
G_4    1.00 -1.00  0.00  0.00

     imaginary part

       E     -E    C2    -C2  
                              
G_3    0.00  0.00  1.00 -1.00
G_4    0.00  0.00 -1.00  1.00

     the symmetry operations in each class and the name of the first element:

     E             1
                                                                 
     -E           -1
                                                                 
     C2            2
                                                                 
     -C2          -2
                                                                 

     Band symmetry, C_2  (2)    double point group:

     e(  1 -  4) =    -50.63199  eV     4   -->   2 G_3            
     e(  1 -  4) =    -50.63199  eV     4   -->   2 G_4            
     e(  5 -  6) =    -24.77320  eV     2   --> G_3            
     e(  5 -  6) =    -24.77320  eV     2   --> G_4            
     e(  7 -  8) =    -24.77302  eV     2   --> G_3            
     e(  7 -  8) =    -24.77302  eV     2   --> G_4            
     e(  9 - 10) =    -24.55500  eV     2   --> G_3            
     e(  9 - 10) =    -24.55500  eV     2   --> G_4            
     e( 11 - 12) =    -24.55487  eV     2   --> G_3            
     e( 11 - 12) =    -24.55487  eV     2   --> G_4            
     e( 13 - 16) =    -24.55269  eV     4   -->   2 G_3            
     e( 13 - 16) =    -24.55269  eV     4   -->   2 G_4            
     e( 17 - 18) =     -3.99090  eV     2   --> G_3            
     e( 17 - 18) =     -3.99090  eV     2   --> G_4            
     e( 19 - 20) =     -3.72441  eV     2   --> G_3            
     e( 19 - 20) =     -3.72441  eV     2   --> G_4            
     e( 21 - 22) =     -2.80350  eV     2   --> G_3            
     e( 21 - 22) =     -2.80350  eV     2   --> G_4            
     e( 23 - 24) =     -2.37018  eV     2   --> G_3            
     e( 23 - 24) =     -2.37018  eV     2   --> G_4            
     e( 25 - 26) =      4.10590  eV     2   --> G_3            
     e( 25 - 26) =      4.10590  eV     2   --> G_4            
     e( 27 - 28) =      5.12570  eV     2   --> G_3            
     e( 27 - 28) =      5.12570  eV     2   --> G_4            
     e( 29 - 30) =      7.41923  eV     2   --> G_3            
     e( 29 - 30) =      7.41923  eV     2   --> G_4            
     e( 31 - 32) =      7.65030  eV     2   --> G_3            
     e( 31 - 32) =      7.65030  eV     2   --> G_4            
     e( 33 - 34) =      7.66372  eV     2   --> G_3            
     e( 33 - 34) =      7.66372  eV     2   --> G_4            
     e( 35 - 36) =      7.68941  eV     2   --> G_3            
     e( 35 - 36) =      7.68941  eV     2   --> G_4            
     e( 37 - 38) =      7.70260  eV     2   --> G_3            
     e( 37 - 38) =      7.70260  eV     2   --> G_4            
     e( 39 - 40) =      8.71108  eV     2   --> G_3            
     e( 39 - 40) =      8.71108  eV     2   --> G_4            
     e( 41 - 42) =      8.74479  eV     2   --> G_3            
     e( 41 - 42) =      8.74479  eV     2   --> G_4            
     e( 43 - 44) =      8.79110  eV     2   --> G_3            
     e( 43 - 44) =      8.79110  eV     2   --> G_4            
     e( 45 - 46) =      8.82225  eV     2   --> G_3            
     e( 45 - 46) =      8.82225  eV     2   --> G_4            
     e( 47 - 48) =      9.74822  eV     2   --> G_3            
     e( 47 - 48) =      9.74822  eV     2   --> G_4            
     e( 49 - 50) =      9.76702  eV     2   --> G_3            
     e( 49 - 50) =      9.76702  eV     2   --> G_4            
     e( 51 - 52) =     10.87362  eV     2   --> G_3            
     e( 51 - 52) =     10.87362  eV     2   --> G_4            
     e( 53 - 54) =     12.99842  eV     2   --> G_3            
     e( 53 - 54) =     12.99842  eV     2   --> G_4            
     e( 55 - 56) =     13.01623  eV     2   --> G_3            
     e( 55 - 56) =     13.01623  eV     2   --> G_4            
     e( 57 - 58) =     13.03561  eV     2   --> G_3            
     e( 57 - 58) =     13.03561  eV     2   --> G_4            
     e( 59 - 60) =     13.06276  eV     2   --> G_3            
     e( 59 - 60) =     13.06276  eV     2   --> G_4            
     e( 61 - 62) =     13.15077  eV     2   --> G_3            
     e( 61 - 62) =     13.15077  eV     2   --> G_4            
     e( 63 - 64) =     13.15228  eV     2   --> G_3            
     e( 63 - 64) =     13.15228  eV     2   --> G_4            
     e( 65 - 66) =     13.29338  eV     2   --> G_3            
     e( 65 - 66) =     13.29338  eV     2   --> G_4            
     e( 67 - 68) =     13.32190  eV     2   --> G_3            
     e( 67 - 68) =     13.32190  eV     2   --> G_4            
     e( 69 - 70) =     16.52694  eV     2   --> G_3            
     e( 69 - 70) =     16.52694  eV     2   --> G_4            

 **************************************************************************

 **************************************************************************

                    xk=(  -0.03175,   0.05499,   0.00000  )

     Band symmetry, C_2  (2)    double point group:

     e(  1 -  4) =    -50.63113  eV     4   -->   2 G_3            
     e(  1 -  4) =    -50.63113  eV     4   -->   2 G_4            
     e(  5 -  6) =    -24.77149  eV     2   --> G_3            
     e(  5 -  6) =    -24.77149  eV     2   --> G_4            
     e(  7 -  8) =    -24.77133  eV     2   --> G_3            
     e(  7 -  8) =    -24.77133  eV     2   --> G_4            
     e(  9 - 12) =    -24.56364  eV     4   -->   2 G_3            
     e(  9 - 12) =    -24.56364  eV     4   -->   2 G_4            
     e( 13 - 16) =    -24.55471  eV     4   -->   2 G_3            
     e( 13 - 16) =    -24.55471  eV     4   -->   2 G_4            
     e( 17 - 18) =     -3.95661  eV     2   --> G_3            
     e( 17 - 18) =     -3.95661  eV     2   --> G_4            
     e( 19 - 20) =     -3.69063  eV     2   --> G_3            
     e( 19 - 20) =     -3.69063  eV     2   --> G_4            
     e( 21 - 22) =     -2.78699  eV     2   --> G_3            
     e( 21 - 22) =     -2.78699  eV     2   --> G_4            
     e( 23 - 24) =     -2.35783  eV     2   --> G_3            
     e( 23 - 24) =     -2.35783  eV     2   --> G_4            
     e( 25 - 26) =      4.14578  eV     2   --> G_3            
     e( 25 - 26) =      4.14578  eV     2   --> G_4            
     e( 27 - 28) =      5.16479  eV     2   --> G_3            
     e( 27 - 28) =      5.16479  eV     2   --> G_4            
     e( 29 - 30) =      7.34886  eV     2   --> G_3            
     e( 29 - 30) =      7.34886  eV     2   --> G_4            
     e( 31 - 32) =      7.57149  eV     2   --> G_3            
     e( 31 - 32) =      7.57149  eV     2   --> G_4            
     e( 33 - 34) =      7.58618  eV     2   --> G_3            
     e( 33 - 34) =      7.58618  eV     2   --> G_4            
     e( 35 - 36) =      7.72449  eV     2   --> G_3            
     e( 35 - 36) =      7.72449  eV     2   --> G_4            
     e( 37 - 38) =      7.73837  eV     2   --> G_3            
     e( 37 - 38) =      7.73837  eV     2   --> G_4            
     e( 39 - 40) =      8.57356  eV     2   --> G_3            
     e( 39 - 40) =      8.57356  eV     2   --> G_4            
     e( 41 - 42) =      8.68515  eV     2   --> G_3            
     e( 41 - 42) =      8.68515  eV     2   --> G_4            
     e( 43 - 44) =      8.73355  eV     2   --> G_3            
     e( 43 - 44) =      8.73355  eV     2   --> G_4            
     e( 45 - 46) =      8.85506  eV     2   --> G_3            
     e( 45 - 46) =      8.85506  eV     2   --> G_4            
     e( 47 - 48) =      9.77116  eV     2   --> G_3            
     e( 47 - 48) =      9.77116  eV     2   --> G_4            
     e( 49 - 50) =      9.81062  eV     2   --> G_3            
     e( 49 - 50) =      9.81062  eV     2   --> G_4            
     e( 51 - 52) =     10.80838  eV     2   --> G_3            
     e( 51 - 52) =     10.80838  eV     2   --> G_4            
     e( 53 - 54) =     12.96137  eV     2   --> G_3            
     e( 53 - 54) =     12.96137  eV     2   --> G_4            
     e( 55 - 56) =     12.96658  eV     2   --> G_3            
     e( 55 - 56) =     12.96658  eV     2   --> G_4            
     e( 57 - 58) =     13.09295  eV     2   --> G_3            
     e( 57 - 58) =     13.09295  eV     2   --> G_4            
     e( 59 - 60) =     13.09989  eV     2   --> G_3            
     e( 59 - 60) =     13.09989  eV     2   --> G_4            
     e( 61 - 62) =     13.11717  eV     2   --> G_3            
     e( 61 - 62) =     13.11717  eV     2   --> G_4            
     e( 63 - 64) =     13.12668  eV     2   --> G_3            
     e( 63 - 64) =     13.12668  eV     2   --> G_4            
     e( 65 - 66) =     13.18620  eV     2   --> G_3            
     e( 65 - 66) =     13.18620  eV     2   --> G_4            
     e( 67 - 68) =     13.28494  eV     2   --> G_3            
     e( 67 - 68) =     13.28494  eV     2   --> G_4            
     e( 69 - 70) =     16.69443  eV     2   --> G_3            
     e( 69 - 70) =     16.69443  eV     2   --> G_4            

 **************************************************************************

 **************************************************************************

                    xk=(  -0.04762,   0.08248,   0.00000  )

     Band symmetry, C_2  (2)    double point group:

     e(  1 -  4) =    -50.62972  eV     4   -->   2 G_3            
     e(  1 -  4) =    -50.62972  eV     4   -->   2 G_4            
     e(  5 -  6) =    -24.76869  eV     2   --> G_3            
     e(  5 -  6) =    -24.76869  eV     2   --> G_4            
     e(  7 -  8) =    -24.76855  eV     2   --> G_3            
     e(  7 -  8) =    -24.76855  eV     2   --> G_4            
     e(  9 - 12) =    -24.57764  eV     4   -->   2 G_3            
     e(  9 - 12) =    -24.57764  eV     4   -->   2 G_4            
     e( 13 - 16) =    -24.55804  eV     4   -->   2 G_3            
     e( 13 - 16) =    -24.55804  eV     4   -->   2 G_4            
     e( 17 - 18) =     -3.90005  eV     2   --> G_3            
     e( 17 - 18) =     -3.90005  eV     2   --> G_4            
     e( 19 - 20) =     -3.63499  eV     2   --> G_3            
     e( 19 - 20) =     -3.63499  eV     2   --> G_4            
     e( 21 - 22) =     -2.75976  eV     2   --> G_3            
     e( 21 - 22) =     -2.75976  eV     2   --> G_4            
     e( 23 - 24) =     -2.33750  eV     2   --> G_3            
     e( 23 - 24) =     -2.33750  eV     2   --> G_4            
     e( 25 - 26) =      4.21062  eV     2   --> G_3            
     e( 25 - 26) =      4.21062  eV     2   --> G_4            
     e( 27 - 28) =      5.22777  eV     2   --> G_3            
     e( 27 - 28) =      5.22777  eV     2   --> G_4            
     e( 29 - 30) =      7.24422  eV     2   --> G_3            
     e( 29 - 30) =      7.24422  eV     2   --> G_4            
     e( 31 - 32) =      7.44809  eV     2   --> G_3            
     e( 31 - 32) =      7.44809  eV     2   --> G_4            
     e( 33 - 34) =      7.46459  eV     2   --> G_3            
     e( 33 - 34) =      7.46459  eV     2   --> G_4            
     e( 35 - 36) =      7.78166  eV     2   --> G_3            
     e( 35 - 36) =      7.78166  eV     2   --> G_4            
     e( 37 - 38) =      7.79682  eV     2   --> G_3            
     e( 37 - 38) =      7.79682  eV     2   --> G_4            
     e( 39 - 40) =      8.39025  eV     2   --> G_3            
     e( 39 - 40) =      8.39025  eV     2   --> G_4            
     e( 41 - 42) =      8.58386  eV     2   --> G_3            
     e( 41 - 42) =      8.58386  eV     2   --> G_4            
     e( 43 - 44) =      8.63672  eV     2   --> G_3            
     e( 43 - 44) =      8.63672  eV     2   --> G_4            
     e( 45 - 46) =      8.90099  eV     2   --> G_3            
     e( 45 - 46) =      8.90099  eV     2   --> G_4            
     e( 47 - 48) =      9.77509  eV     2   --> G_3            
     e( 47 - 48) =      9.77509  eV     2   --> G_4            
     e( 49 - 50) =      9.86821  eV     2   --> G_3            
     e( 49 - 50) =      9.86821  eV     2   --> G_4            
     e( 51 - 52) =     10.69989  eV     2   --> G_3            
     e( 51 - 52) =     10.69989  eV     2   --> G_4            
     e( 53 - 54) =     12.88235  eV     2   --> G_3            
     e( 53 - 54) =     12.88235  eV     2   --> G_4            
     e( 55 - 56) =     12.93045  eV     2   --> G_3            
     e( 55 - 56) =     12.93045  eV     2   --> G_4            
     e( 57 - 58) =     12.97277  eV     2   --> G_3            
     e( 57 - 58) =     12.97277  eV     2   --> G_4            
     e( 59 - 60) =     13.07380  eV     2   --> G_3            
     e( 59 - 60) =     13.07380  eV     2   --> G_4            
     e( 61 - 62) =     13.07573  eV     2   --> G_3            
     e( 61 - 62) =     13.07573  eV     2   --> G_4            
     e( 63 - 64) =     13.18750  eV     2   --> G_3            
     e( 63 - 64) =     13.18750  eV     2   --> G_4            
     e( 65 - 66) =     13.22263  eV     2   --> G_3            
     e( 65 - 66) =     13.22263  eV     2   --> G_4            
     e( 67 - 68) =     13.23153  eV     2   --> G_3            
     e( 67 - 68) =     13.23153  eV     2   --> G_4            
     e( 69 - 70) =     16.95159  eV     2   --> G_3            
     e( 69 - 70) =     16.95159  eV     2   --> G_4            

 **************************************************************************

 **************************************************************************

                    xk=(  -0.06349,   0.10997,   0.00000  )

     Band symmetry, C_2  (2)    double point group:

     e(  1 -  4) =    -50.62781  eV     4   -->   2 G_3            
     e(  1 -  4) =    -50.62781  eV     4   -->   2 G_4            
     e(  5 -  6) =    -24.76488  eV     2   --> G_3            
     e(  5 -  6) =    -24.76488  eV     2   --> G_4            
     e(  7 -  8) =    -24.76477  eV     2   --> G_3            
     e(  7 -  8) =    -24.76477  eV     2   --> G_4            
     e(  9 - 12) =    -24.59666  eV     4   -->   2 G_3            
     e(  9 - 12) =    -24.59666  eV     4   -->   2 G_4            
     e( 13 - 16) =    -24.56274  eV     4   -->   2 G_3            
     e( 13 - 16) =    -24.56274  eV     4   -->   2 G_4            
     e( 17 - 18) =     -3.82210  eV     2   --> G_3            
     e( 17 - 18) =     -3.82210  eV     2   --> G_4            
     e( 19 - 20) =     -3.55848  eV     2   --> G_3            
     e( 19 - 20) =     -3.55848  eV     2   --> G_4            
     e( 21 - 22) =     -2.72221  eV     2   --> G_3            
     e( 21 - 22) =     -2.72221  eV     2   --> G_4            
     e( 23 - 24) =     -2.30956  eV     2   --> G_3            
     e( 23 - 24) =     -2.30956  eV     2   --> G_4            
     e( 25 - 26) =      4.29788  eV     2   --> G_3            
     e( 25 - 26) =      4.29788  eV     2   --> G_4            
     e( 27 - 28) =      5.31114  eV     2   --> G_3            
     e( 27 - 28) =      5.31114  eV     2   --> G_4            
     e( 29 - 30) =      7.11801  eV     2   --> G_3            
     e( 29 - 30) =      7.11801  eV     2   --> G_4            
     e( 31 - 32) =      7.29064  eV     2   --> G_3            
     e( 31 - 32) =      7.29064  eV     2   --> G_4            
     e( 33 - 34) =      7.30896  eV     2   --> G_3            
     e( 33 - 34) =      7.30896  eV     2   --> G_4            
     e( 35 - 36) =      7.85868  eV     2   --> G_3            
     e( 35 - 36) =      7.85868  eV     2   --> G_4            
     e( 37 - 38) =      7.87589  eV     2   --> G_3            
     e( 37 - 38) =      7.87589  eV     2   --> G_4            
     e( 39 - 40) =      8.18740  eV     2   --> G_3            
     e( 39 - 40) =      8.18740  eV     2   --> G_4            
     e( 41 - 42) =      8.43977  eV     2   --> G_3            
     e( 41 - 42) =      8.43977  eV     2   --> G_4            
     e( 43 - 44) =      8.50066  eV     2   --> G_3            
     e( 43 - 44) =      8.50066  eV     2   --> G_4            
     e( 45 - 46) =      8.95225  eV     2   --> G_3            
     e( 45 - 46) =      8.95225  eV     2   --> G_4            
     e( 47 - 48) =      9.77437  eV     2   --> G_3            
     e( 47 - 48) =      9.77437  eV     2   --> G_4            
     e( 49 - 50) =      9.89663  eV     2   --> G_3            
     e( 49 - 50) =      9.89663  eV     2   --> G_4            
     e( 51 - 52) =     10.55080  eV     2   --> G_3            
     e( 51 - 52) =     10.55080  eV     2   --> G_4            
     e( 53 - 54) =     12.77656  eV     2   --> G_3            
     e( 53 - 54) =     12.77656  eV     2   --> G_4            
     e( 55 - 56) =     12.79762  eV     2   --> G_3            
     e( 55 - 56) =     12.79762  eV     2   --> G_4            
     e( 57 - 58) =     12.90563  eV     2   --> G_3            
     e( 57 - 58) =     12.90563  eV     2   --> G_4            
     e( 59 - 60) =     12.98302  eV     2   --> G_3            
     e( 59 - 60) =     12.98302  eV     2   --> G_4            
     e( 61 - 62) =     13.03409  eV     2   --> G_3            
     e( 61 - 62) =     13.03409  eV     2   --> G_4            
     e( 63 - 64) =     13.13792  eV     2   --> G_3            
     e( 63 - 64) =     13.13792  eV     2   --> G_4            
     e( 65 - 66) =     13.31155  eV     2   --> G_3            
     e( 65 - 66) =     13.31155  eV     2   --> G_4            
     e( 67 - 68) =     13.37480  eV     2   --> G_3            
     e( 67 - 68) =     13.37480  eV     2   --> G_4            
     e( 69 - 70) =     17.27519  eV     2   --> G_3            
     e( 69 - 70) =     17.27519  eV     2   --> G_4            

 **************************************************************************

 **************************************************************************

                    xk=(  -0.07936,   0.13746,   0.00000  )

     Band symmetry, C_2  (2)    double point group:

     e(  1 -  4) =    -50.62545  eV     4   -->   2 G_3            
     e(  1 -  4) =    -50.62545  eV     4   -->   2 G_4            
     e(  5 -  6) =    -24.76023  eV     2   --> G_3            
     e(  5 -  6) =    -24.76023  eV     2   --> G_4            
     e(  7 -  8) =    -24.76009  eV     2   --> G_3            
     e(  7 -  8) =    -24.76009  eV     2   --> G_4            
     e(  9 - 12) =    -24.61965  eV     4   -->   2 G_3            
     e(  9 - 12) =    -24.61965  eV     4   -->   2 G_4            
     e( 13 - 16) =    -24.56880  eV     4   -->   2 G_3            
     e( 13 - 16) =    -24.56880  eV     4   -->   2 G_4            
     e( 17 - 18) =     -3.72398  eV     2   --> G_3            
     e( 17 - 18) =     -3.72398  eV     2   --> G_4            
     e( 19 - 20) =     -3.46249  eV     2   --> G_3            
     e( 19 - 20) =     -3.46249  eV     2   --> G_4            
     e( 21 - 22) =     -2.67492  eV     2   --> G_3            
     e( 21 - 22) =     -2.67492  eV     2   --> G_4            
     e( 23 - 24) =     -2.27454  eV     2   --> G_3            
     e( 23 - 24) =     -2.27454  eV     2   --> G_4            
     e( 25 - 26) =      4.40382  eV     2   --> G_3            
     e( 25 - 26) =      4.40382  eV     2   --> G_4            
     e( 27 - 28) =      5.40930  eV     2   --> G_3            
     e( 27 - 28) =      5.40930  eV     2   --> G_4            
     e( 29 - 30) =      6.98149  eV     2   --> G_3            
     e( 29 - 30) =      6.98149  eV     2   --> G_4            
     e( 31 - 32) =      7.11204  eV     2   --> G_3            
     e( 31 - 32) =      7.11204  eV     2   --> G_4            
     e( 33 - 34) =      7.13111  eV     2   --> G_3            
     e( 33 - 34) =      7.13111  eV     2   --> G_4            
     e( 35 - 36) =      7.95189  eV     2   --> G_3            
     e( 35 - 36) =      7.95189  eV     2   --> G_4            
     e( 37 - 38) =      7.97213  eV     2   --> G_3            
     e( 37 - 38) =      7.97213  eV     2   --> G_4            
     e( 39 - 40) =      7.97910  eV     2   --> G_3            
     e( 39 - 40) =      7.97910  eV     2   --> G_4            
     e( 41 - 42) =      8.25390  eV     2   --> G_3            
     e( 41 - 42) =      8.25390  eV     2   --> G_4            
     e( 43 - 44) =      8.32797  eV     2   --> G_3            
     e( 43 - 44) =      8.32797  eV     2   --> G_4            
     e( 45 - 46) =      9.00287  eV     2   --> G_3            
     e( 45 - 46) =      9.00287  eV     2   --> G_4            
     e( 47 - 48) =      9.76310  eV     2   --> G_3            
     e( 47 - 48) =      9.76310  eV     2   --> G_4            
     e( 49 - 50) =      9.88714  eV     2   --> G_3            
     e( 49 - 50) =      9.88714  eV     2   --> G_4            
     e( 51 - 52) =     10.36766  eV     2   --> G_3            
     e( 51 - 52) =     10.36766  eV     2   --> G_4            
     e( 53 - 54) =     12.56419  eV     2   --> G_3            
     e( 53 - 54) =     12.56419  eV     2   --> G_4            
     e( 55 - 56) =     12.72219  eV     2   --> G_3            
     e( 55 - 56) =     12.72219  eV     2   --> G_4            
     e( 57 - 58) =     12.88381  eV     2   --> G_3            
     e( 57 - 58) =     12.88381  eV     2   --> G_4            
     e( 59 - 60) =     12.90346  eV     2   --> G_3            
     e( 59 - 60) =     12.90346  eV     2   --> G_4            
     e( 61 - 62) =     12.99493  eV     2   --> G_3            
     e( 61 - 62) =     12.99493  eV     2   --> G_4            
     e( 63 - 64) =     13.04666  eV     2   --> G_3            
     e( 63 - 64) =     13.04666  eV     2   --> G_4            
     e( 65 - 66) =     13.45731  eV     2   --> G_3            
     e( 65 - 66) =     13.45731  eV     2   --> G_4            
     e( 67 - 68) =     13.55130  eV     2   --> G_3            
     e( 67 - 68) =     13.55130  eV     2   --> G_4            
     e( 69 - 70) =     17.64127  eV     2   --> G_3            
     e( 69 - 70) =     17.64127  eV     2   --> G_4            

 **************************************************************************

 **************************************************************************

                    xk=(  -0.09524,   0.16496,   0.00000  )

     Band symmetry, C_2  (2)    double point group:

     e(  1 -  4) =    -50.62271  eV     4   -->   2 G_3            
     e(  1 -  4) =    -50.62271  eV     4   -->   2 G_4            
     e(  5 -  6) =    -24.75483  eV     2   --> G_3            
     e(  5 -  6) =    -24.75483  eV     2   --> G_4            
     e(  7 -  8) =    -24.75471  eV     2   --> G_3            
     e(  7 -  8) =    -24.75471  eV     2   --> G_4            
     e(  9 - 12) =    -24.64592  eV     4   -->   2 G_3            
     e(  9 - 12) =    -24.64592  eV     4   -->   2 G_4            
     e( 13 - 16) =    -24.57625  eV     4   -->   2 G_3            
     e( 13 - 16) =    -24.57625  eV     4   -->   2 G_4            
     e( 17 - 18) =     -3.60728  eV     2   --> G_3            
     e( 17 - 18) =     -3.60728  eV     2   --> G_4            
     e( 19 - 20) =     -3.34876  eV     2   --> G_3            
     e( 19 - 20) =     -3.34876  eV     2   --> G_4            
     e( 21 - 22) =     -2.61864  eV     2   --> G_3            
     e( 21 - 22) =     -2.61864  eV     2   --> G_4            
     e( 23 - 24) =     -2.23312  eV     2   --> G_3            
     e( 23 - 24) =     -2.23312  eV     2   --> G_4            
     e( 25 - 26) =      4.52312  eV     2   --> G_3            
     e( 25 - 26) =      4.52312  eV     2   --> G_4            
     e( 27 - 28) =      5.51348  eV     2   --> G_3            
     e( 27 - 28) =      5.51348  eV     2   --> G_4            
     e( 29 - 30) =      6.84358  eV     2   --> G_3            
     e( 29 - 30) =      6.84358  eV     2   --> G_4            
     e( 31 - 32) =      6.92741  eV     2   --> G_3            
     e( 31 - 32) =      6.92741  eV     2   --> G_4            
     e( 33 - 34) =      6.94365  eV     2   --> G_3            
     e( 33 - 34) =      6.94365  eV     2   --> G_4            
     e( 35 - 36) =      7.77100  eV     2   --> G_3            
     e( 35 - 36) =      7.77100  eV     2   --> G_4            
     e( 37 - 38) =      8.03045  eV     2   --> G_3            
     e( 37 - 38) =      8.03045  eV     2   --> G_4            
     e( 39 - 40) =      8.05559  eV     2   --> G_3            
     e( 39 - 40) =      8.05559  eV     2   --> G_4            
     e( 41 - 42) =      8.07975  eV     2   --> G_3            
     e( 41 - 42) =      8.07975  eV     2   --> G_4            
     e( 43 - 44) =      8.12619  eV     2   --> G_3            
     e( 43 - 44) =      8.12619  eV     2   --> G_4            
     e( 45 - 46) =      9.04866  eV     2   --> G_3            
     e( 45 - 46) =      9.04866  eV     2   --> G_4            
     e( 47 - 48) =      9.73506  eV     2   --> G_3            
     e( 47 - 48) =      9.73506  eV     2   --> G_4            
     e( 49 - 50) =      9.84088  eV     2   --> G_3            
     e( 49 - 50) =      9.84088  eV     2   --> G_4            
     e( 51 - 52) =     10.16125  eV     2   --> G_3            
     e( 51 - 52) =     10.16125  eV     2   --> G_4            
     e( 53 - 54) =     12.35885  eV     2   --> G_3            
     e( 53 - 54) =     12.35885  eV     2   --> G_4            
     e( 55 - 56) =     12.66639  eV     2   --> G_3            
     e( 55 - 56) =     12.66639  eV     2   --> G_4            
     e( 57 - 58) =     12.78283  eV     2   --> G_3            
     e( 57 - 58) =     12.78283  eV     2   --> G_4            
     e( 59 - 60) =     12.89988  eV     2   --> G_3            
     e( 59 - 60) =     12.89988  eV     2   --> G_4            
     e( 61 - 62) =     12.92845  eV     2   --> G_3            
     e( 61 - 62) =     12.92845  eV     2   --> G_4            
     e( 63 - 64) =     13.01489  eV     2   --> G_3            
     e( 63 - 64) =     13.01489  eV     2   --> G_4            
     e( 65 - 66) =     13.61571  eV     2   --> G_3            
     e( 65 - 66) =     13.61571  eV     2   --> G_4            
     e( 67 - 68) =     13.75291  eV     2   --> G_3            
     e( 67 - 68) =     13.75291  eV     2   --> G_4            
     e( 69 - 70) =     18.02306  eV     2   --> G_3            
     e( 69 - 70) =     18.02306  eV     2   --> G_4            

 **************************************************************************

 **************************************************************************

                    xk=(  -0.11111,   0.19245,   0.00000  )

     Band symmetry, C_2  (2)    double point group:

     e(  1 -  4) =    -50.61967  eV     4   -->   2 G_3            
     e(  1 -  4) =    -50.61967  eV     4   -->   2 G_4            
     e(  5 -  6) =    -24.74881  eV     2   --> G_3            
     e(  5 -  6) =    -24.74881  eV     2   --> G_4            
     e(  7 -  8) =    -24.74864  eV     2   --> G_3            
     e(  7 -  8) =    -24.74864  eV     2   --> G_4            
     e(  9 - 12) =    -24.67429  eV     4   -->   2 G_3            
     e(  9 - 12) =    -24.67429  eV     4   -->   2 G_4            
     e( 13 - 16) =    -24.58499  eV     4   -->   2 G_3            
     e( 13 - 16) =    -24.58499  eV     4   -->   2 G_4            
     e( 17 - 18) =     -3.47391  eV     2   --> G_3            
     e( 17 - 18) =     -3.47391  eV     2   --> G_4            
     e( 19 - 20) =     -3.21946  eV     2   --> G_3            
     e( 19 - 20) =     -3.21946  eV     2   --> G_4            
     e( 21 - 22) =     -2.55427  eV     2   --> G_3            
     e( 21 - 22) =     -2.55427  eV     2   --> G_4            
     e( 23 - 24) =     -2.18609  eV     2   --> G_3            
     e( 23 - 24) =     -2.18609  eV     2   --> G_4            
     e( 25 - 26) =      4.64852  eV     2   --> G_3            
     e( 25 - 26) =      4.64852  eV     2   --> G_4            
     e( 27 - 28) =      5.60935  eV     2   --> G_3            
     e( 27 - 28) =      5.60935  eV     2   --> G_4            
     e( 29 - 30) =      6.71076  eV     2   --> G_3            
     e( 29 - 30) =      6.71076  eV     2   --> G_4            
     e( 31 - 32) =      6.75569  eV     2   --> G_3            
     e( 31 - 32) =      6.75569  eV     2   --> G_4            
     e( 33 - 34) =      6.75979  eV     2   --> G_3            
     e( 33 - 34) =      6.75979  eV     2   --> G_4            
     e( 35 - 36) =      7.56067  eV     2   --> G_3            
     e( 35 - 36) =      7.56067  eV     2   --> G_4            
     e( 37 - 38) =      7.77686  eV     2   --> G_3            
     e( 37 - 38) =      7.77686  eV     2   --> G_4            
     e( 39 - 40) =      7.91040  eV     2   --> G_3            
     e( 39 - 40) =      7.91040  eV     2   --> G_4            
     e( 41 - 42) =      8.16092  eV     2   --> G_3            
     e( 41 - 42) =      8.16092  eV     2   --> G_4            
     e( 43 - 44) =      8.18932  eV     2   --> G_3            
     e( 43 - 44) =      8.18932  eV     2   --> G_4            
     e( 45 - 46) =      9.08646  eV     2   --> G_3            
     e( 45 - 46) =      9.08646  eV     2   --> G_4            
     e( 47 - 48) =      9.68622  eV     2   --> G_3            
     e( 47 - 48) =      9.68622  eV     2   --> G_4            
     e( 49 - 50) =      9.76339  eV     2   --> G_3            
     e( 49 - 50) =      9.76339  eV     2   --> G_4            
     e( 51 - 52) =      9.94640  eV     2   --> G_3            
     e( 51 - 52) =      9.94640  eV     2   --> G_4            
     e( 53 - 54) =     12.17449  eV     2   --> G_3            
     e( 53 - 54) =     12.17449  eV     2   --> G_4            
     e( 55 - 56) =     12.63543  eV     2   --> G_3            
     e( 55 - 56) =     12.63543  eV     2   --> G_4            
     e( 57 - 58) =     12.69227  eV     2   --> G_3            
     e( 57 - 58) =     12.69227  eV     2   --> G_4            
     e( 59 - 60) =     12.78174  eV     2   --> G_3            
     e( 59 - 60) =     12.78174  eV     2   --> G_4            
     e( 61 - 62) =     12.97926  eV     2   --> G_3            
     e( 61 - 62) =     12.97926  eV     2   --> G_4            
     e( 63 - 64) =     13.01776  eV     2   --> G_3            
     e( 63 - 64) =     13.01776  eV     2   --> G_4            
     e( 65 - 66) =     13.77698  eV     2   --> G_3            
     e( 65 - 66) =     13.77698  eV     2   --> G_4            
     e( 67 - 68) =     13.96952  eV     2   --> G_3            
     e( 67 - 68) =     13.96952  eV     2   --> G_4            
     e( 69 - 70) =     18.38486  eV     2   --> G_3            
     e( 69 - 70) =     18.38486  eV     2   --> G_4            

 **************************************************************************

 **************************************************************************

                    xk=(  -0.12698,   0.21994,   0.00000  )

     Band symmetry, C_2  (2)    double point group:

     e(  1 -  4) =    -50.61641  eV     4   -->   2 G_3            
     e(  1 -  4) =    -50.61641  eV     4   -->   2 G_4            
     e(  5 -  6) =    -24.74241  eV     2   --> G_3            
     e(  5 -  6) =    -24.74241  eV     2   --> G_4            
     e(  7 -  8) =    -24.74222  eV     2   --> G_3            
     e(  7 -  8) =    -24.74222  eV     2   --> G_4            
     e(  9 - 12) =    -24.70387  eV     4   -->   2 G_3            
     e(  9 - 12) =    -24.70387  eV     4   -->   2 G_4            
     e( 13 - 16) =    -24.59512  eV     4   -->   2 G_3            
     e( 13 - 16) =    -24.59512  eV     4   -->   2 G_4            
     e( 17 - 18) =     -3.32616  eV     2   --> G_3            
     e( 17 - 18) =     -3.32616  eV     2   --> G_4            
     e( 19 - 20) =     -3.07713  eV     2   --> G_3            
     e( 19 - 20) =     -3.07713  eV     2   --> G_4            
     e( 21 - 22) =     -2.48288  eV     2   --> G_3            
     e( 21 - 22) =     -2.48288  eV     2   --> G_4            
     e( 23 - 24) =     -2.13443  eV     2   --> G_3            
     e( 23 - 24) =     -2.13443  eV     2   --> G_4            
     e( 25 - 26) =      4.77010  eV     2   --> G_3            
     e( 25 - 26) =      4.77010  eV     2   --> G_4            
     e( 27 - 28) =      5.67383  eV     2   --> G_3            
     e( 27 - 28) =      5.67383  eV     2   --> G_4            
     e( 29 - 30) =      6.58696  eV     2   --> G_3            
     e( 29 - 30) =      6.58696  eV     2   --> G_4            
     e( 31 - 32) =      6.59366  eV     2   --> G_3            
     e( 31 - 32) =      6.59366  eV     2   --> G_4            
     e( 33 - 34) =      6.62244  eV     2   --> G_3            
     e( 33 - 34) =      6.62244  eV     2   --> G_4            
     e( 35 - 36) =      7.33687  eV     2   --> G_3            
     e( 35 - 36) =      7.33687  eV     2   --> G_4            
     e( 37 - 38) =      7.50330  eV     2   --> G_3            
     e( 37 - 38) =      7.50330  eV     2   --> G_4            
     e( 39 - 40) =      7.70465  eV     2   --> G_3            
     e( 39 - 40) =      7.70465  eV     2   --> G_4            
     e( 41 - 42) =      8.25431  eV     2   --> G_3            
     e( 41 - 42) =      8.25431  eV     2   --> G_4            
     e( 43 - 44) =      8.28553  eV     2   --> G_3            
     e( 43 - 44) =      8.28553  eV     2   --> G_4            
     e( 45 - 46) =      9.11356  eV     2   --> G_3            
     e( 45 - 46) =      9.11356  eV     2   --> G_4            
     e( 47 - 48) =      9.61867  eV     2   --> G_3            
     e( 47 - 48) =      9.61867  eV     2   --> G_4            
     e( 49 - 50) =      9.66059  eV     2   --> G_3            
     e( 49 - 50) =      9.66059  eV     2   --> G_4            
     e( 51 - 52) =      9.74237  eV     2   --> G_3            
     e( 51 - 52) =      9.74237  eV     2   --> G_4            
     e( 53 - 54) =     12.01934  eV     2   --> G_3            
     e( 53 - 54) =     12.01934  eV     2   --> G_4            
     e( 55 - 56) =     12.62608  eV     2   --> G_3            
     e( 55 - 56) =     12.62608  eV     2   --> G_4            
     e( 57 - 58) =     12.63038  eV     2   --> G_3            
     e( 57 - 58) =     12.63038  eV     2   --> G_4            
     e( 59 - 60) =     12.67094  eV     2   --> G_3            
     e( 59 - 60) =     12.67094  eV     2   --> G_4            
     e( 61 - 62) =     13.03171  eV     2   --> G_3            
     e( 61 - 62) =     13.03171  eV     2   --> G_4            
     e( 63 - 64) =     13.05209  eV     2   --> G_3            
     e( 63 - 64) =     13.05209  eV     2   --> G_4            
     e( 65 - 66) =     13.93124  eV     2   --> G_3            
     e( 65 - 66) =     13.93124  eV     2   --> G_4            
     e( 67 - 68) =     14.19016  eV     2   --> G_3            
     e( 67 - 68) =     14.19016  eV     2   --> G_4            
     e( 69 - 70) =     18.67529  eV     2   --> G_3            
     e( 69 - 70) =     18.67529  eV     2   --> G_4            

 **************************************************************************

 **************************************************************************

                    xk=(  -0.14286,   0.24744,   0.00000  )

     Band symmetry, C_2  (2)    double point group:

     e(  1 -  4) =    -50.61302  eV     4   -->   2 G_3            
     e(  1 -  4) =    -50.61302  eV     4   -->   2 G_4            
     e(  5 -  6) =    -24.73573  eV     2   --> G_3            
     e(  5 -  6) =    -24.73573  eV     2   --> G_4            
     e(  7 -  8) =    -24.73551  eV     2   --> G_3            
     e(  7 -  8) =    -24.73551  eV     2   --> G_4            
     e(  9 - 12) =    -24.73346  eV     4   -->   2 G_3            
     e(  9 - 12) =    -24.73346  eV     4   -->   2 G_4            
     e( 13 - 16) =    -24.60662  eV     4   -->   2 G_3            
     e( 13 - 16) =    -24.60662  eV     4   -->   2 G_4            
     e( 17 - 18) =     -3.16670  eV     2   --> G_3            
     e( 17 - 18) =     -3.16670  eV     2   --> G_4            
     e( 19 - 20) =     -2.92473  eV     2   --> G_3            
     e( 19 - 20) =     -2.92473  eV     2   --> G_4            
     e( 21 - 22) =     -2.40572  eV     2   --> G_3            
     e( 21 - 22) =     -2.40572  eV     2   --> G_4            
     e( 23 - 24) =     -2.07921  eV     2   --> G_3            
     e( 23 - 24) =     -2.07921  eV     2   --> G_4            
     e( 25 - 26) =      4.87508  eV     2   --> G_3            
     e( 25 - 26) =      4.87508  eV     2   --> G_4            
     e( 27 - 28) =      5.67916  eV     2   --> G_3            
     e( 27 - 28) =      5.67916  eV     2   --> G_4            
     e( 29 - 30) =      6.46032  eV     2   --> G_3            
     e( 29 - 30) =      6.46032  eV     2   --> G_4            
     e( 31 - 32) =      6.47285  eV     2   --> G_3            
     e( 31 - 32) =      6.47285  eV     2   --> G_4            
     e( 33 - 34) =      6.55571  eV     2   --> G_3            
     e( 33 - 34) =      6.55571  eV     2   --> G_4            
     e( 35 - 36) =      7.08791  eV     2   --> G_3            
     e( 35 - 36) =      7.08791  eV     2   --> G_4            
     e( 37 - 38) =      7.22289  eV     2   --> G_3            
     e( 37 - 38) =      7.22289  eV     2   --> G_4            
     e( 39 - 40) =      7.53295  eV     2   --> G_3            
     e( 39 - 40) =      7.53295  eV     2   --> G_4            
     e( 41 - 42) =      8.31592  eV     2   --> G_3            
     e( 41 - 42) =      8.31592  eV     2   --> G_4            
     e( 43 - 44) =      8.34528  eV     2   --> G_3            
     e( 43 - 44) =      8.34528  eV     2   --> G_4            
     e( 45 - 46) =      9.12751  eV     2   --> G_3            
     e( 45 - 46) =      9.12751  eV     2   --> G_4            
     e( 47 - 48) =      9.53721  eV     2   --> G_3            
     e( 47 - 48) =      9.53721  eV     2   --> G_4            
     e( 49 - 50) =      9.54444  eV     2   --> G_3            
     e( 49 - 50) =      9.54444  eV     2   --> G_4            
     e( 51 - 52) =      9.57391  eV     2   --> G_3            
     e( 51 - 52) =      9.57391  eV     2   --> G_4            
     e( 53 - 54) =     11.89844  eV     2   --> G_3            
     e( 53 - 54) =     11.89844  eV     2   --> G_4            
     e( 55 - 56) =     12.58350  eV     2   --> G_3            
     e( 55 - 56) =     12.58350  eV     2   --> G_4            
     e( 57 - 58) =     12.59575  eV     2   --> G_3            
     e( 57 - 58) =     12.59575  eV     2   --> G_4            
     e( 59 - 60) =     12.64899  eV     2   --> G_3            
     e( 59 - 60) =     12.64899  eV     2   --> G_4            
     e( 61 - 62) =     13.04914  eV     2   --> G_3            
     e( 61 - 62) =     13.04914  eV     2   --> G_4            
     e( 63 - 64) =     13.14101  eV     2   --> G_3            
     e( 63 - 64) =     13.14101  eV     2   --> G_4            
     e( 65 - 66) =     14.06944  eV     2   --> G_3            
     e( 65 - 66) =     14.06944  eV     2   --> G_4            
     e( 67 - 68) =     14.40415  eV     2   --> G_3            
     e( 67 - 68) =     14.40415  eV     2   --> G_4            
     e( 69 - 70) =     18.84946  eV     2   --> G_3            
     e( 69 - 70) =     18.84946  eV     2   --> G_4            

 **************************************************************************

 **************************************************************************

                    xk=(  -0.15873,   0.27493,   0.00000  )

     Band symmetry, C_2  (2)    double point group:

     e(  1 -  4) =    -50.60959  eV     4   -->   2 G_3            
     e(  1 -  4) =    -50.60959  eV     4   -->   2 G_4            
     e(  5 -  8) =    -24.76210  eV     4   -->   2 G_3            
     e(  5 -  8) =    -24.76210  eV     4   -->   2 G_4            
     e(  9 - 10) =    -24.72895  eV     2   --> G_3            
     e(  9 - 10) =    -24.72895  eV     2   --> G_4            
     e( 11 - 12) =    -24.72879  eV     2   --> G_3            
     e( 11 - 12) =    -24.72879  eV     2   --> G_4            
     e( 13 - 16) =    -24.61940  eV     4   -->   2 G_3            
     e( 13 - 16) =    -24.61940  eV     4   -->   2 G_4            
     e( 17 - 18) =     -2.99862  eV     2   --> G_3            
     e( 17 - 18) =     -2.99862  eV     2   --> G_4            
     e( 19 - 20) =     -2.76565  eV     2   --> G_3            
     e( 19 - 20) =     -2.76565  eV     2   --> G_4            
     e( 21 - 22) =     -2.32421  eV     2   --> G_3            
     e( 21 - 22) =     -2.32421  eV     2   --> G_4            
     e( 23 - 24) =     -2.02165  eV     2   --> G_3            
     e( 23 - 24) =     -2.02165  eV     2   --> G_4            
     e( 25 - 26) =      4.94963  eV     2   --> G_3            
     e( 25 - 26) =      4.94963  eV     2   --> G_4            
     e( 27 - 28) =      5.61857  eV     2   --> G_3            
     e( 27 - 28) =      5.61857  eV     2   --> G_4            
     e( 29 - 30) =      6.36173  eV     2   --> G_3            
     e( 29 - 30) =      6.36173  eV     2   --> G_4            
     e( 31 - 32) =      6.37498  eV     2   --> G_3            
     e( 31 - 32) =      6.37498  eV     2   --> G_4            
     e( 33 - 34) =      6.56050  eV     2   --> G_3            
     e( 33 - 34) =      6.56050  eV     2   --> G_4            
     e( 35 - 36) =      6.81662  eV     2   --> G_3            
     e( 35 - 36) =      6.81662  eV     2   --> G_4            
     e( 37 - 38) =      6.95416  eV     2   --> G_3            
     e( 37 - 38) =      6.95416  eV     2   --> G_4            
     e( 39 - 40) =      7.40365  eV     2   --> G_3            
     e( 39 - 40) =      7.40365  eV     2   --> G_4            
     e( 41 - 42) =      8.32147  eV     2   --> G_3            
     e( 41 - 42) =      8.32147  eV     2   --> G_4            
     e( 43 - 44) =      8.34204  eV     2   --> G_3            
     e( 43 - 44) =      8.34204  eV     2   --> G_4            
     e( 45 - 46) =      9.12610  eV     2   --> G_3            
     e( 45 - 46) =      9.12610  eV     2   --> G_4            
     e( 47 - 48) =      9.39670  eV     2   --> G_3            
     e( 47 - 48) =      9.39670  eV     2   --> G_4            
     e( 49 - 50) =      9.46723  eV     2   --> G_3            
     e( 49 - 50) =      9.46723  eV     2   --> G_4            
     e( 51 - 52) =      9.48412  eV     2   --> G_3            
     e( 51 - 52) =      9.48412  eV     2   --> G_4            
     e( 53 - 54) =     11.81738  eV     2   --> G_3            
     e( 53 - 54) =     11.81738  eV     2   --> G_4            
     e( 55 - 56) =     12.53494  eV     2   --> G_3            
     e( 55 - 56) =     12.53494  eV     2   --> G_4            
     e( 57 - 58) =     12.60465  eV     2   --> G_3            
     e( 57 - 58) =     12.60465  eV     2   --> G_4            
     e( 59 - 60) =     12.68755  eV     2   --> G_3            
     e( 59 - 60) =     12.68755  eV     2   --> G_4            
     e( 61 - 62) =     13.06167  eV     2   --> G_3            
     e( 61 - 62) =     13.06167  eV     2   --> G_4            
     e( 63 - 64) =     13.24088  eV     2   --> G_3            
     e( 63 - 64) =     13.24088  eV     2   --> G_4            
     e( 65 - 66) =     14.18444  eV     2   --> G_3            
     e( 65 - 66) =     14.18444  eV     2   --> G_4            
     e( 67 - 68) =     14.60193  eV     2   --> G_3            
     e( 67 - 68) =     14.60193  eV     2   --> G_4            
     e( 69 - 70) =     18.91440  eV     2   --> G_3            
     e( 69 - 70) =     18.91440  eV     2   --> G_4            

 **************************************************************************

 **************************************************************************

                    xk=(  -0.17460,   0.30242,   0.00000  )

     Band symmetry, C_2  (2)    double point group:

     e(  1 -  4) =    -50.60622  eV     4   -->   2 G_3            
     e(  1 -  4) =    -50.60622  eV     4   -->   2 G_4            
     e(  5 -  8) =    -24.78866  eV     4   -->   2 G_3            
     e(  5 -  8) =    -24.78866  eV     4   -->   2 G_4            
     e(  9 - 10) =    -24.72229  eV     2   --> G_3            
     e(  9 - 10) =    -24.72229  eV     2   --> G_4            
     e( 11 - 12) =    -24.72211  eV     2   --> G_3            
     e( 11 - 12) =    -24.72211  eV     2   --> G_4            
     e( 13 - 16) =    -24.63345  eV     4   -->   2 G_3            
     e( 13 - 16) =    -24.63345  eV     4   -->   2 G_4            
     e( 17 - 18) =     -2.82541  eV     2   --> G_3            
     e( 17 - 18) =     -2.82541  eV     2   --> G_4            
     e( 19 - 20) =     -2.60369  eV     2   --> G_3            
     e( 19 - 20) =     -2.60369  eV     2   --> G_4            
     e( 21 - 22) =     -2.23990  eV     2   --> G_3            
     e( 21 - 22) =     -2.23990  eV     2   --> G_4            
     e( 23 - 24) =     -1.96309  eV     2   --> G_3            
     e( 23 - 24) =     -1.96309  eV     2   --> G_4            
     e( 25 - 26) =      4.98504  eV     2   --> G_3            
     e( 25 - 26) =      4.98504  eV     2   --> G_4            
     e( 27 - 28) =      5.51866  eV     2   --> G_3            
     e( 27 - 28) =      5.51866  eV     2   --> G_4            
     e( 29 - 30) =      6.23372  eV     2   --> G_3            
     e( 29 - 30) =      6.23372  eV     2   --> G_4            
     e( 31 - 32) =      6.34558  eV     2   --> G_3            
     e( 31 - 32) =      6.34558  eV     2   --> G_4            
     e( 33 - 34) =      6.53603  eV     2   --> G_3            
     e( 33 - 34) =      6.53603  eV     2   --> G_4            
     e( 35 - 36) =      6.60672  eV     2   --> G_3            
     e( 35 - 36) =      6.60672  eV     2   --> G_4            
     e( 37 - 38) =      6.72807  eV     2   --> G_3            
     e( 37 - 38) =      6.72807  eV     2   --> G_4            
     e( 39 - 40) =      7.31319  eV     2   --> G_3            
     e( 39 - 40) =      7.31319  eV     2   --> G_4            
     e( 41 - 42) =      8.25325  eV     2   --> G_3            
     e( 41 - 42) =      8.25325  eV     2   --> G_4            
     e( 43 - 44) =      8.26549  eV     2   --> G_3            
     e( 43 - 44) =      8.26549  eV     2   --> G_4            
     e( 45 - 46) =      9.10758  eV     2   --> G_3            
     e( 45 - 46) =      9.10758  eV     2   --> G_4            
     e( 47 - 48) =      9.24196  eV     2   --> G_3            
     e( 47 - 48) =      9.24196  eV     2   --> G_4            
     e( 49 - 50) =      9.43228  eV     2   --> G_3            
     e( 49 - 50) =      9.43228  eV     2   --> G_4            
     e( 51 - 52) =      9.45566  eV     2   --> G_3            
     e( 51 - 52) =      9.45566  eV     2   --> G_4            
     e( 53 - 54) =     11.78336  eV     2   --> G_3            
     e( 53 - 54) =     11.78336  eV     2   --> G_4            
     e( 55 - 56) =     12.53878  eV     2   --> G_3            
     e( 55 - 56) =     12.53878  eV     2   --> G_4            
     e( 57 - 58) =     12.64780  eV     2   --> G_3            
     e( 57 - 58) =     12.64780  eV     2   --> G_4            
     e( 59 - 60) =     12.74037  eV     2   --> G_3            
     e( 59 - 60) =     12.74037  eV     2   --> G_4            
     e( 61 - 62) =     13.06107  eV     2   --> G_3            
     e( 61 - 62) =     13.06107  eV     2   --> G_4            
     e( 63 - 64) =     13.34593  eV     2   --> G_3            
     e( 63 - 64) =     13.34593  eV     2   --> G_4            
     e( 65 - 66) =     14.27270  eV     2   --> G_3            
     e( 65 - 66) =     14.27270  eV     2   --> G_4            
     e( 67 - 68) =     14.77602  eV     2   --> G_3            
     e( 67 - 68) =     14.77602  eV     2   --> G_4            
     e( 69 - 70) =     18.75752  eV     2   --> G_3            
     e( 69 - 70) =     18.75752  eV     2   --> G_4            

 **************************************************************************

 **************************************************************************

                    xk=(  -0.19047,   0.32992,   0.00000  )

     Band symmetry, C_2  (2)    double point group:

     e(  1 -  4) =    -50.60298  eV     4   -->   2 G_3            
     e(  1 -  4) =    -50.60298  eV     4   -->   2 G_4            
     e(  5 -  8) =    -24.81238  eV     4   -->   2 G_3            
     e(  5 -  8) =    -24.81238  eV     4   -->   2 G_4            
     e(  9 - 10) =    -24.71585  eV     2   --> G_3            
     e(  9 - 10) =    -24.71585  eV     2   --> G_4            
     e( 11 - 12) =    -24.71571  eV     2   --> G_3            
     e( 11 - 12) =    -24.71571  eV     2   --> G_4            
     e( 13 - 16) =    -24.64857  eV     4   -->   2 G_3            
     e( 13 - 16) =    -24.64857  eV     4   -->   2 G_4            
     e( 17 - 18) =     -2.65102  eV     2   --> G_3            
     e( 17 - 18) =     -2.65102  eV     2   --> G_4            
     e( 19 - 20) =     -2.44304  eV     2   --> G_3            
     e( 19 - 20) =     -2.44304  eV     2   --> G_4            
     e( 21 - 22) =     -2.15453  eV     2   --> G_3            
     e( 21 - 22) =     -2.15453  eV     2   --> G_4            
     e( 23 - 24) =     -1.90499  eV     2   --> G_3            
     e( 23 - 24) =     -1.90499  eV     2   --> G_4            
     e( 25 - 26) =      4.98542  eV     2   --> G_3            
     e( 25 - 26) =      4.98542  eV     2   --> G_4            
     e( 27 - 28) =      5.41120  eV     2   --> G_3            
     e( 27 - 28) =      5.41120  eV     2   --> G_4            
     e( 29 - 30) =      6.05887  eV     2   --> G_3            
     e( 29 - 30) =      6.05887  eV     2   --> G_4            
     e( 31 - 32) =      6.25867  eV     2   --> G_3            
     e( 31 - 32) =      6.25867  eV     2   --> G_4            
     e( 33 - 34) =      6.36719  eV     2   --> G_3            
     e( 33 - 34) =      6.36719  eV     2   --> G_4            
     e( 35 - 36) =      6.58308  eV     2   --> G_3            
     e( 35 - 36) =      6.58308  eV     2   --> G_4            
     e( 37 - 38) =      6.65830  eV     2   --> G_3            
     e( 37 - 38) =      6.65830  eV     2   --> G_4            
     e( 39 - 40) =      7.25664  eV     2   --> G_3            
     e( 39 - 40) =      7.25664  eV     2   --> G_4            
     e( 41 - 42) =      8.11325  eV     2   --> G_3            
     e( 41 - 42) =      8.11325  eV     2   --> G_4            
     e( 43 - 44) =      8.13368  eV     2   --> G_3            
     e( 43 - 44) =      8.13368  eV     2   --> G_4            
     e( 45 - 46) =      9.07093  eV     2   --> G_3            
     e( 45 - 46) =      9.07093  eV     2   --> G_4            
     e( 47 - 48) =      9.07590  eV     2   --> G_3            
     e( 47 - 48) =      9.07590  eV     2   --> G_4            
     e( 49 - 50) =      9.45308  eV     2   --> G_3            
     e( 49 - 50) =      9.45308  eV     2   --> G_4            
     e( 51 - 52) =      9.46148  eV     2   --> G_3            
     e( 51 - 52) =      9.46148  eV     2   --> G_4            
     e( 53 - 54) =     11.80153  eV     2   --> G_3            
     e( 53 - 54) =     11.80153  eV     2   --> G_4            
     e( 55 - 56) =     12.60286  eV     2   --> G_3            
     e( 55 - 56) =     12.60286  eV     2   --> G_4            
     e( 57 - 58) =     12.71412  eV     2   --> G_3            
     e( 57 - 58) =     12.71412  eV     2   --> G_4            
     e( 59 - 60) =     12.80012  eV     2   --> G_3            
     e( 59 - 60) =     12.80012  eV     2   --> G_4            
     e( 61 - 62) =     13.03896  eV     2   --> G_3            
     e( 61 - 62) =     13.03896  eV     2   --> G_4            
     e( 63 - 64) =     13.45034  eV     2   --> G_3            
     e( 63 - 64) =     13.45034  eV     2   --> G_4            
     e( 65 - 66) =     14.33589  eV     2   --> G_3            
     e( 65 - 66) =     14.33589  eV     2   --> G_4            
     e( 67 - 68) =     14.92158  eV     2   --> G_3            
     e( 67 - 68) =     14.92158  eV     2   --> G_4            
     e( 69 - 70) =     18.46548  eV     2   --> G_3            
     e( 69 - 70) =     18.46548  eV     2   --> G_4            

 **************************************************************************

 **************************************************************************

                    xk=(  -0.20635,   0.35741,   0.00000  )

     Band symmetry, C_2  (2)    double point group:

     e(  1 -  4) =    -50.59995  eV     4   -->   2 G_3            
     e(  1 -  4) =    -50.59995  eV     4   -->   2 G_4            
     e(  5 -  8) =    -24.83237  eV     4   -->   2 G_3            
     e(  5 -  8) =    -24.83237  eV     4   -->   2 G_4            
     e(  9 - 10) =    -24.70983  eV     2   --> G_3            
     e(  9 - 10) =    -24.70983  eV     2   --> G_4            
     e( 11 - 12) =    -24.70971  eV     2   --> G_3            
     e( 11 - 12) =    -24.70971  eV     2   --> G_4            
     e( 13 - 16) =    -24.66479  eV     4   -->   2 G_3            
     e( 13 - 16) =    -24.66479  eV     4   -->   2 G_4            
     e( 17 - 18) =     -2.47976  eV     2   --> G_3            
     e( 17 - 18) =     -2.47976  eV     2   --> G_4            
     e( 19 - 20) =     -2.28822  eV     2   --> G_3            
     e( 19 - 20) =     -2.28822  eV     2   --> G_4            
     e( 21 - 22) =     -2.06996  eV     2   --> G_3            
     e( 21 - 22) =     -2.06996  eV     2   --> G_4            
     e( 23 - 24) =     -1.84890  eV     2   --> G_3            
     e( 23 - 24) =     -1.84890  eV     2   --> G_4            
     e( 25 - 26) =      4.96711  eV     2   --> G_3            
     e( 25 - 26) =      4.96711  eV     2   --> G_4            
     e( 27 - 28) =      5.31719  eV     2   --> G_3            
     e( 27 - 28) =      5.31719  eV     2   --> G_4            
     e( 29 - 30) =      5.84149  eV     2   --> G_3            
     e( 29 - 30) =      5.84149  eV     2   --> G_4            
     e( 31 - 32) =      5.99391  eV     2   --> G_3            
     e( 31 - 32) =      5.99391  eV     2   --> G_4            
     e( 33 - 34) =      6.42218  eV     2   --> G_3            
     e( 33 - 34) =      6.42218  eV     2   --> G_4            
     e( 35 - 36) =      6.52204  eV     2   --> G_3            
     e( 35 - 36) =      6.52204  eV     2   --> G_4            
     e( 37 - 38) =      6.69124  eV     2   --> G_3            
     e( 37 - 38) =      6.69124  eV     2   --> G_4            
     e( 39 - 40) =      7.23011  eV     2   --> G_3            
     e( 39 - 40) =      7.23011  eV     2   --> G_4            
     e( 41 - 42) =      7.91889  eV     2   --> G_3            
     e( 41 - 42) =      7.91889  eV     2   --> G_4            
     e( 43 - 44) =      7.97319  eV     2   --> G_3            
     e( 43 - 44) =      7.97319  eV     2   --> G_4            
     e( 45 - 46) =      8.90197  eV     2   --> G_3            
     e( 45 - 46) =      8.90197  eV     2   --> G_4            
     e( 47 - 48) =      9.01605  eV     2   --> G_3            
     e( 47 - 48) =      9.01605  eV     2   --> G_4            
     e( 49 - 50) =      9.49366  eV     2   --> G_3            
     e( 49 - 50) =      9.49366  eV     2   --> G_4            
     e( 51 - 52) =      9.50886  eV     2   --> G_3            
     e( 51 - 52) =      9.50886  eV     2   --> G_4            
     e( 53 - 54) =     11.86922  eV     2   --> G_3            
     e( 53 - 54) =     11.86922  eV     2   --> G_4            
     e( 55 - 56) =     12.72592  eV     2   --> G_3            
     e( 55 - 56) =     12.72592  eV     2   --> G_4            
     e( 57 - 58) =     12.79112  eV     2   --> G_3            
     e( 57 - 58) =     12.79112  eV     2   --> G_4            
     e( 59 - 60) =     12.85760  eV     2   --> G_3            
     e( 59 - 60) =     12.85760  eV     2   --> G_4            
     e( 61 - 62) =     12.98796  eV     2   --> G_3            
     e( 61 - 62) =     12.98796  eV     2   --> G_4            
     e( 63 - 64) =     13.54804  eV     2   --> G_3            
     e( 63 - 64) =     13.54804  eV     2   --> G_4            
     e( 65 - 66) =     14.38179  eV     2   --> G_3            
     e( 65 - 66) =     14.38179  eV     2   --> G_4            
     e( 67 - 68) =     15.03714  eV     2   --> G_3            
     e( 67 - 68) =     15.03714  eV     2   --> G_4            
     e( 69 - 70) =     18.18750  eV     2   --> G_3            
     e( 69 - 70) =     18.18750  eV     2   --> G_4            

 **************************************************************************

 **************************************************************************

                    xk=(  -0.22222,   0.38490,   0.00000  )

     Band symmetry, C_2  (2)    double point group:

     e(  1 -  4) =    -50.59720  eV     4   -->   2 G_3            
     e(  1 -  4) =    -50.59720  eV     4   -->   2 G_4            
     e(  5 -  8) =    -24.84806  eV     4   -->   2 G_3            
     e(  5 -  8) =    -24.84806  eV     4   -->   2 G_4            
     e(  9 - 12) =    -24.70435  eV     4   -->   2 G_3            
     e(  9 - 12) =    -24.70435  eV     4   -->   2 G_4            
     e( 13 - 16) =    -24.68191  eV     4   -->   2 G_3            
     e( 13 - 16) =    -24.68191  eV     4   -->   2 G_4            
     e( 17 - 18) =     -2.31622  eV     2   --> G_3            
     e( 17 - 18) =     -2.31622  eV     2   --> G_4            
     e( 19 - 20) =     -2.14384  eV     2   --> G_3            
     e( 19 - 20) =     -2.14384  eV     2   --> G_4            
     e( 21 - 22) =     -1.98816  eV     2   --> G_3            
     e( 21 - 22) =     -1.98816  eV     2   --> G_4            
     e( 23 - 24) =     -1.79643  eV     2   --> G_3            
     e( 23 - 24) =     -1.79643  eV     2   --> G_4            
     e( 25 - 26) =      4.94983  eV     2   --> G_3            
     e( 25 - 26) =      4.94983  eV     2   --> G_4            
     e( 27 - 28) =      5.24917  eV     2   --> G_3            
     e( 27 - 28) =      5.24917  eV     2   --> G_4            
     e( 29 - 30) =      5.61367  eV     2   --> G_3            
     e( 29 - 30) =      5.61367  eV     2   --> G_4            
     e( 31 - 32) =      5.74892  eV     2   --> G_3            
     e( 31 - 32) =      5.74892  eV     2   --> G_4            
     e( 33 - 34) =      6.49026  eV     2   --> G_3            
     e( 33 - 34) =      6.49026  eV     2   --> G_4            
     e( 35 - 36) =      6.51830  eV     2   --> G_3            
     e( 35 - 36) =      6.51830  eV     2   --> G_4            
     e( 37 - 38) =      6.69364  eV     2   --> G_3            
     e( 37 - 38) =      6.69364  eV     2   --> G_4            
     e( 39 - 40) =      7.22969  eV     2   --> G_3            
     e( 39 - 40) =      7.22969  eV     2   --> G_4            
     e( 41 - 42) =      7.68883  eV     2   --> G_3            
     e( 41 - 42) =      7.68883  eV     2   --> G_4            
     e( 43 - 44) =      7.80085  eV     2   --> G_3            
     e( 43 - 44) =      7.80085  eV     2   --> G_4            
     e( 45 - 46) =      8.72458  eV     2   --> G_3            
     e( 45 - 46) =      8.72458  eV     2   --> G_4            
     e( 47 - 48) =      8.94385  eV     2   --> G_3            
     e( 47 - 48) =      8.94385  eV     2   --> G_4            
     e( 49 - 50) =      9.54704  eV     2   --> G_3            
     e( 49 - 50) =      9.54704  eV     2   --> G_4            
     e( 51 - 52) =      9.58995  eV     2   --> G_3            
     e( 51 - 52) =      9.58995  eV     2   --> G_4            
     e( 53 - 54) =     11.97195  eV     2   --> G_3            
     e( 53 - 54) =     11.97195  eV     2   --> G_4            
     e( 55 - 56) =     12.87002  eV     2   --> G_3            
     e( 55 - 56) =     12.87002  eV     2   --> G_4            
     e( 57 - 58) =     12.88457  eV     2   --> G_3            
     e( 57 - 58) =     12.88457  eV     2   --> G_4            
     e( 59 - 60) =     12.90233  eV     2   --> G_3            
     e( 59 - 60) =     12.90233  eV     2   --> G_4            
     e( 61 - 62) =     12.91509  eV     2   --> G_3            
     e( 61 - 62) =     12.91509  eV     2   --> G_4            
     e( 63 - 64) =     13.63307  eV     2   --> G_3            
     e( 63 - 64) =     13.63307  eV     2   --> G_4            
     e( 65 - 66) =     14.42334  eV     2   --> G_3            
     e( 65 - 66) =     14.42334  eV     2   --> G_4            
     e( 67 - 68) =     15.12431  eV     2   --> G_3            
     e( 67 - 68) =     15.12431  eV     2   --> G_4            
     e( 69 - 70) =     17.94108  eV     2   --> G_3            
     e( 69 - 70) =     17.94108  eV     2   --> G_4            

 **************************************************************************

 **************************************************************************

                    xk=(  -0.23809,   0.41239,   0.00000  )

     Band symmetry, C_2  (2)    double point group:

     e(  1 -  4) =    -50.59478  eV     4   -->   2 G_3            
     e(  1 -  4) =    -50.59478  eV     4   -->   2 G_4            
     e(  5 -  8) =    -24.85911  eV     4   -->   2 G_3            
     e(  5 -  8) =    -24.85911  eV     4   -->   2 G_4            
     e(  9 - 12) =    -24.69988  eV     4   -->   2 G_3            
     e(  9 - 12) =    -24.69988  eV     4   -->   2 G_4            
     e( 13 - 16) =    -24.69957  eV     4   -->   2 G_3            
     e( 13 - 16) =    -24.69957  eV     4   -->   2 G_4            
     e( 17 - 18) =     -2.16505  eV     2   --> G_3            
     e( 17 - 18) =     -2.16505  eV     2   --> G_4            
     e( 19 - 20) =     -2.01444  eV     2   --> G_3            
     e( 19 - 20) =     -2.01444  eV     2   --> G_4            
     e( 21 - 22) =     -1.91115  eV     2   --> G_3            
     e( 21 - 22) =     -1.91115  eV     2   --> G_4            
     e( 23 - 24) =     -1.74922  eV     2   --> G_3            
     e( 23 - 24) =     -1.74922  eV     2   --> G_4            
     e( 25 - 26) =      4.95008  eV     2   --> G_3            
     e( 25 - 26) =      4.95008  eV     2   --> G_4            
     e( 27 - 28) =      5.21492  eV     2   --> G_3            
     e( 27 - 28) =      5.21492  eV     2   --> G_4            
     e( 29 - 30) =      5.39766  eV     2   --> G_3            
     e( 29 - 30) =      5.39766  eV     2   --> G_4            
     e( 31 - 32) =      5.52931  eV     2   --> G_3            
     e( 31 - 32) =      5.52931  eV     2   --> G_4            
     e( 33 - 34) =      6.55199  eV     2   --> G_3            
     e( 33 - 34) =      6.55199  eV     2   --> G_4            
     e( 35 - 36) =      6.55750  eV     2   --> G_3            
     e( 35 - 36) =      6.55750  eV     2   --> G_4            
     e( 37 - 38) =      6.66363  eV     2   --> G_3            
     e( 37 - 38) =      6.66363  eV     2   --> G_4            
     e( 39 - 40) =      7.25027  eV     2   --> G_3            
     e( 39 - 40) =      7.25027  eV     2   --> G_4            
     e( 41 - 42) =      7.43695  eV     2   --> G_3            
     e( 41 - 42) =      7.43695  eV     2   --> G_4            
     e( 43 - 44) =      7.62355  eV     2   --> G_3            
     e( 43 - 44) =      7.62355  eV     2   --> G_4            
     e( 45 - 46) =      8.54963  eV     2   --> G_3            
     e( 45 - 46) =      8.54963  eV     2   --> G_4            
     e( 47 - 48) =      8.85625  eV     2   --> G_3            
     e( 47 - 48) =      8.85625  eV     2   --> G_4            
     e( 49 - 50) =      9.62152  eV     2   --> G_3            
     e( 49 - 50) =      9.62152  eV     2   --> G_4            
     e( 51 - 52) =      9.69406  eV     2   --> G_3            
     e( 51 - 52) =      9.69406  eV     2   --> G_4            
     e( 53 - 54) =     12.08171  eV     2   --> G_3            
     e( 53 - 54) =     12.08171  eV     2   --> G_4            
     e( 55 - 56) =     12.77908  eV     2   --> G_3            
     e( 55 - 56) =     12.77908  eV     2   --> G_4            
     e( 57 - 58) =     12.92480  eV     2   --> G_3            
     e( 57 - 58) =     12.92480  eV     2   --> G_4            
     e( 59 - 60) =     12.95230  eV     2   --> G_3            
     e( 59 - 60) =     12.95230  eV     2   --> G_4            
     e( 61 - 62) =     13.09954  eV     2   --> G_3            
     e( 61 - 62) =     13.09954  eV     2   --> G_4            
     e( 63 - 64) =     13.70020  eV     2   --> G_3            
     e( 63 - 64) =     13.70020  eV     2   --> G_4            
     e( 65 - 66) =     14.47509  eV     2   --> G_3            
     e( 65 - 66) =     14.47509  eV     2   --> G_4            
     e( 67 - 68) =     15.18681  eV     2   --> G_3            
     e( 67 - 68) =     15.18681  eV     2   --> G_4            
     e( 69 - 70) =     17.74077  eV     2   --> G_3            
     e( 69 - 70) =     17.74077  eV     2   --> G_4            

 **************************************************************************

 **************************************************************************

                    xk=(  -0.25397,   0.43989,   0.00000  )

     Band symmetry, C_2  (2)    double point group:

     e(  1 -  4) =    -50.59273  eV     4   -->   2 G_3            
     e(  1 -  4) =    -50.59273  eV     4   -->   2 G_4            
     e(  5 -  8) =    -24.86512  eV     4   -->   2 G_3            
     e(  5 -  8) =    -24.86512  eV     4   -->   2 G_4            
     e(  9 - 10) =    -24.71838  eV     2   --> G_3            
     e(  9 - 10) =    -24.71838  eV     2   --> G_4            
     e( 11 - 12) =    -24.71825  eV     2   --> G_3            
     e( 11 - 12) =    -24.71825  eV     2   --> G_4            
     e( 13 - 14) =    -24.69552  eV     2   --> G_3            
     e( 13 - 14) =    -24.69552  eV     2   --> G_4            
     e( 15 - 16) =    -24.69541  eV     2   --> G_3            
     e( 15 - 16) =    -24.69541  eV     2   --> G_4            
     e( 17 - 18) =     -2.03060  eV     2   --> G_3            
     e( 17 - 18) =     -2.03060  eV     2   --> G_4            
     e( 19 - 20) =     -1.90398  eV     2   --> G_3            
     e( 19 - 20) =     -1.90398  eV     2   --> G_4            
     e( 21 - 22) =     -1.84093  eV     2   --> G_3            
     e( 21 - 22) =     -1.84093  eV     2   --> G_4            
     e( 23 - 24) =     -1.70881  eV     2   --> G_3            
     e( 23 - 24) =     -1.70881  eV     2   --> G_4            
     e( 25 - 26) =      4.97968  eV     2   --> G_3            
     e( 25 - 26) =      4.97968  eV     2   --> G_4            
     e( 27 - 28) =      5.20500  eV     2   --> G_3            
     e( 27 - 28) =      5.20500  eV     2   --> G_4            
     e( 29 - 30) =      5.21890  eV     2   --> G_3            
     e( 29 - 30) =      5.21890  eV     2   --> G_4            
     e( 31 - 32) =      5.33947  eV     2   --> G_3            
     e( 31 - 32) =      5.33947  eV     2   --> G_4            
     e( 33 - 34) =      6.60654  eV     2   --> G_3            
     e( 33 - 34) =      6.60654  eV     2   --> G_4            
     e( 35 - 36) =      6.61106  eV     2   --> G_3            
     e( 35 - 36) =      6.61106  eV     2   --> G_4            
     e( 37 - 38) =      6.61797  eV     2   --> G_3            
     e( 37 - 38) =      6.61797  eV     2   --> G_4            
     e( 39 - 40) =      7.17295  eV     2   --> G_3            
     e( 39 - 40) =      7.17295  eV     2   --> G_4            
     e( 41 - 42) =      7.28402  eV     2   --> G_3            
     e( 41 - 42) =      7.28402  eV     2   --> G_4            
     e( 43 - 44) =      7.44377  eV     2   --> G_3            
     e( 43 - 44) =      7.44377  eV     2   --> G_4            
     e( 45 - 46) =      8.38559  eV     2   --> G_3            
     e( 45 - 46) =      8.38559  eV     2   --> G_4            
     e( 47 - 48) =      8.75608  eV     2   --> G_3            
     e( 47 - 48) =      8.75608  eV     2   --> G_4            
     e( 49 - 50) =      9.71708  eV     2   --> G_3            
     e( 49 - 50) =      9.71708  eV     2   --> G_4            
     e( 51 - 52) =      9.81827  eV     2   --> G_3            
     e( 51 - 52) =      9.81827  eV     2   --> G_4            
     e( 53 - 54) =     12.15987  eV     2   --> G_3            
     e( 53 - 54) =     12.15987  eV     2   --> G_4            
     e( 55 - 56) =     12.62679  eV     2   --> G_3            
     e( 55 - 56) =     12.62679  eV     2   --> G_4            
     e( 57 - 58) =     12.92035  eV     2   --> G_3            
     e( 57 - 58) =     12.92035  eV     2   --> G_4            
     e( 59 - 60) =     13.05349  eV     2   --> G_3            
     e( 59 - 60) =     13.05349  eV     2   --> G_4            
     e( 61 - 62) =     13.30443  eV     2   --> G_3            
     e( 61 - 62) =     13.30443  eV     2   --> G_4            
     e( 63 - 64) =     13.74610  eV     2   --> G_3            
     e( 63 - 64) =     13.74610  eV     2   --> G_4            
     e( 65 - 66) =     14.54778  eV     2   --> G_3            
     e( 65 - 66) =     14.54778  eV     2   --> G_4            
     e( 67 - 68) =     15.22853  eV     2   --> G_3            
     e( 67 - 68) =     15.22853  eV     2   --> G_4            
     e( 69 - 70) =     17.60057  eV     2   --> G_3            
     e( 69 - 70) =     17.60057  eV     2   --> G_4            

 **************************************************************************

 **************************************************************************

                    xk=(  -0.26984,   0.46738,   0.00000  )

     Band symmetry, C_2  (2)    double point group:

     e(  1 -  4) =    -50.59107  eV     4   -->   2 G_3            
     e(  1 -  4) =    -50.59107  eV     4   -->   2 G_4            
     e(  5 -  8) =    -24.86628  eV     4   -->   2 G_3            
     e(  5 -  8) =    -24.86628  eV     4   -->   2 G_4            
     e(  9 - 10) =    -24.73719  eV     2   --> G_3            
     e(  9 - 10) =    -24.73719  eV     2   --> G_4            
     e( 11 - 12) =    -24.73706  eV     2   --> G_3            
     e( 11 - 12) =    -24.73706  eV     2   --> G_4            
     e( 13 - 16) =    -24.69222  eV     4   -->   2 G_3            
     e( 13 - 16) =    -24.69222  eV     4   -->   2 G_4            
     e( 17 - 18) =     -1.91657  eV     2   --> G_3            
[...]
     e( 31 - 32) =      6.00616  eV     2   --> G_4            
     e( 33 - 34) =      6.38070  eV     2   --> G_3            
     e( 33 - 34) =      6.38070  eV     2   --> G_4            
     e( 35 - 36) =      6.38221  eV     2   --> G_3            
     e( 35 - 36) =      6.38221  eV     2   --> G_4            
     e( 37 - 38) =      7.10547  eV     2   --> G_3            
     e( 37 - 38) =      7.10547  eV     2   --> G_4            
     e( 39 - 40) =      7.10960  eV     2   --> G_3            
     e( 39 - 40) =      7.10960  eV     2   --> G_4            
     e( 41 - 42) =      7.99938  eV     2   --> G_3            
     e( 41 - 42) =      7.99938  eV     2   --> G_4            
     e( 43 - 44) =      7.99956  eV     2   --> G_3            
     e( 43 - 44) =      7.99956  eV     2   --> G_4            
     e( 45 - 46) =      8.96556  eV     2   --> G_3            
     e( 45 - 46) =      8.96556  eV     2   --> G_4            
     e( 47 - 48) =      8.96777  eV     2   --> G_3            
     e( 47 - 48) =      8.96777  eV     2   --> G_4            
     e( 49 - 52) =      9.48538  eV     4   -->   2 G_3            
     e( 49 - 52) =      9.48538  eV     4   -->   2 G_4            
     e( 53 - 54) =     12.18128  eV     2   --> G_3            
     e( 53 - 54) =     12.18128  eV     2   --> G_4            
     e( 55 - 56) =     12.18405  eV     2   --> G_3            
     e( 55 - 56) =     12.18405  eV     2   --> G_4            
     e( 57 - 58) =     12.82136  eV     2   --> G_3            
     e( 57 - 58) =     12.82136  eV     2   --> G_4            
     e( 59 - 60) =     12.82193  eV     2   --> G_3            
     e( 59 - 60) =     12.82193  eV     2   --> G_4            
     e( 61 - 62) =     13.30918  eV     2   --> G_3            
     e( 61 - 62) =     13.30918  eV     2   --> G_4            
     e( 63 - 64) =     13.31350  eV     2   --> G_3            
     e( 63 - 64) =     13.31350  eV     2   --> G_4            
     e( 65 - 66) =     14.67687  eV     2   --> G_3            
     e( 65 - 66) =     14.67687  eV     2   --> G_4            
     e( 67 - 68) =     14.68006  eV     2   --> G_3            
     e( 67 - 68) =     14.68006  eV     2   --> G_4            
     e( 69 - 70) =     18.40001  eV     2   --> G_3            
     e( 69 - 70) =     18.40001  eV     2   --> G_4            

 **************************************************************************

 **************************************************************************

                    xk=(  -0.23333,   0.40415,   0.12828  )

     Band symmetry, C_2  (2)    double point group:

     e(  1 -  4) =    -50.59546  eV     4   -->   2 G_3            
     e(  1 -  4) =    -50.59546  eV     4   -->   2 G_4            
     e(  5 -  8) =    -24.85630  eV     4   -->   2 G_3            
     e(  5 -  8) =    -24.85630  eV     4   -->   2 G_4            
     e(  9 - 12) =    -24.70086  eV     4   -->   2 G_3            
     e(  9 - 12) =    -24.70086  eV     4   -->   2 G_4            
     e( 13 - 16) =    -24.69437  eV     4   -->   2 G_3            
     e( 13 - 16) =    -24.69437  eV     4   -->   2 G_4            
     e( 17 - 18) =     -2.15299  eV     2   --> G_3            
     e( 17 - 18) =     -2.15299  eV     2   --> G_4            
     e( 19 - 20) =     -2.15128  eV     2   --> G_3            
     e( 19 - 20) =     -2.15128  eV     2   --> G_4            
     e( 21 - 22) =     -1.82691  eV     2   --> G_3            
     e( 21 - 22) =     -1.82691  eV     2   --> G_4            
     e( 23 - 24) =     -1.82551  eV     2   --> G_3            
     e( 23 - 24) =     -1.82551  eV     2   --> G_4            
     e( 25 - 26) =      5.07374  eV     2   --> G_3            
     e( 25 - 26) =      5.07374  eV     2   --> G_4            
     e( 27 - 28) =      5.07628  eV     2   --> G_3            
     e( 27 - 28) =      5.07628  eV     2   --> G_4            
     e( 29 - 30) =      5.53145  eV     2   --> G_3            
     e( 29 - 30) =      5.53145  eV     2   --> G_4            
     e( 31 - 32) =      5.53235  eV     2   --> G_3            
     e( 31 - 32) =      5.53235  eV     2   --> G_4            
     e( 33 - 34) =      6.41611  eV     2   --> G_3            
     e( 33 - 34) =      6.41611  eV     2   --> G_4            
     e( 35 - 36) =      6.41744  eV     2   --> G_3            
     e( 35 - 36) =      6.41744  eV     2   --> G_4            
     e( 37 - 38) =      7.12038  eV     2   --> G_3            
     e( 37 - 38) =      7.12038  eV     2   --> G_4            
     e( 39 - 40) =      7.12367  eV     2   --> G_3            
     e( 39 - 40) =      7.12367  eV     2   --> G_4            
     e( 41 - 42) =      7.57581  eV     2   --> G_3            
     e( 41 - 42) =      7.57581  eV     2   --> G_4            
     e( 43 - 44) =      7.57741  eV     2   --> G_3            
     e( 43 - 44) =      7.57741  eV     2   --> G_4            
     e( 45 - 46) =      8.70373  eV     2   --> G_3            
     e( 45 - 46) =      8.70373  eV     2   --> G_4            
     e( 47 - 48) =      8.70709  eV     2   --> G_3            
     e( 47 - 48) =      8.70709  eV     2   --> G_4            
     e( 49 - 50) =      9.63299  eV     2   --> G_3            
     e( 49 - 50) =      9.63299  eV     2   --> G_4            
     e( 51 - 52) =      9.63348  eV     2   --> G_3            
     e( 51 - 52) =      9.63348  eV     2   --> G_4            
     e( 53 - 54) =     12.36260  eV     2   --> G_3            
     e( 53 - 54) =     12.36260  eV     2   --> G_4            
     e( 55 - 56) =     12.36532  eV     2   --> G_3            
     e( 55 - 56) =     12.36532  eV     2   --> G_4            
     e( 57 - 58) =     12.91789  eV     2   --> G_3            
     e( 57 - 58) =     12.91789  eV     2   --> G_4            
     e( 59 - 60) =     12.91839  eV     2   --> G_3            
     e( 59 - 60) =     12.91839  eV     2   --> G_4            
     e( 61 - 62) =     13.42503  eV     2   --> G_3            
     e( 61 - 62) =     13.42503  eV     2   --> G_4            
     e( 63 - 64) =     13.42938  eV     2   --> G_3            
     e( 63 - 64) =     13.42938  eV     2   --> G_4            
     e( 65 - 66) =     14.80034  eV     2   --> G_3            
     e( 65 - 66) =     14.80034  eV     2   --> G_4            
     e( 67 - 68) =     14.80354  eV     2   --> G_3            
     e( 67 - 68) =     14.80354  eV     2   --> G_4            
     e( 69 - 69) =     18.01383  eV     1   -->   ?
     e( 70 - 70) =     18.01403  eV     1   -->   ?

 **************************************************************************

 **************************************************************************

                    xk=(  -0.26666,   0.46188,   0.12828  )

     Band symmetry, C_2  (2)    double point group:

     e(  1 -  4) =    -50.59137  eV     4   -->   2 G_3            
     e(  1 -  4) =    -50.59137  eV     4   -->   2 G_4            
     e(  5 -  8) =    -24.86640  eV     4   -->   2 G_3            
     e(  5 -  8) =    -24.86640  eV     4   -->   2 G_4            
     e(  9 - 12) =    -24.73334  eV     4   -->   2 G_3            
     e(  9 - 12) =    -24.73334  eV     4   -->   2 G_4            
     e( 13 - 16) =    -24.69276  eV     4   -->   2 G_3            
     e( 13 - 16) =    -24.69276  eV     4   -->   2 G_4            
     e( 17 - 18) =     -1.90252  eV     2   --> G_3            
     e( 17 - 18) =     -1.90252  eV     2   --> G_4            
     e( 19 - 20) =     -1.90127  eV     2   --> G_3            
     e( 19 - 20) =     -1.90127  eV     2   --> G_4            
     e( 21 - 22) =     -1.71960  eV     2   --> G_3            
     e( 21 - 22) =     -1.71960  eV     2   --> G_4            
     e( 23 - 24) =     -1.71880  eV     2   --> G_3            
     e( 23 - 24) =     -1.71880  eV     2   --> G_4            
     e( 25 - 26) =      5.08304  eV     2   --> G_3            
     e( 25 - 26) =      5.08304  eV     2   --> G_4            
     e( 27 - 28) =      5.08523  eV     2   --> G_3            
     e( 27 - 28) =      5.08523  eV     2   --> G_4            
     e( 29 - 30) =      5.19948  eV     2   --> G_3            
     e( 29 - 30) =      5.19948  eV     2   --> G_4            
     e( 31 - 32) =      5.20052  eV     2   --> G_3            
     e( 31 - 32) =      5.20052  eV     2   --> G_4            
     e( 33 - 34) =      6.45785  eV     2   --> G_3            
     e( 33 - 34) =      6.45785  eV     2   --> G_4            
     e( 35 - 36) =      6.45820  eV     2   --> G_3            
     e( 35 - 36) =      6.45820  eV     2   --> G_4            
     e( 37 - 38) =      6.96511  eV     2   --> G_3            
     e( 37 - 38) =      6.96511  eV     2   --> G_4            
     e( 39 - 40) =      6.96750  eV     2   --> G_3            
     e( 39 - 40) =      6.96750  eV     2   --> G_4            
     e( 41 - 42) =      7.33126  eV     2   --> G_3            
     e( 41 - 42) =      7.33126  eV     2   --> G_4            
     e( 43 - 44) =      7.33527  eV     2   --> G_3            
     e( 43 - 44) =      7.33527  eV     2   --> G_4            
     e( 45 - 46) =      8.41771  eV     2   --> G_3            
     e( 45 - 46) =      8.41771  eV     2   --> G_4            
     e( 47 - 48) =      8.42179  eV     2   --> G_3            
     e( 47 - 48) =      8.42179  eV     2   --> G_4            
     e( 49 - 50) =      9.86596  eV     2   --> G_3            
     e( 49 - 50) =      9.86596  eV     2   --> G_4            
     e( 51 - 52) =      9.86689  eV     2   --> G_3            
     e( 51 - 52) =      9.86689  eV     2   --> G_4            
     e( 53 - 54) =     12.33835  eV     2   --> G_3            
     e( 53 - 54) =     12.33835  eV     2   --> G_4            
     e( 55 - 56) =     12.33970  eV     2   --> G_3            
     e( 55 - 56) =     12.33970  eV     2   --> G_4            
     e( 57 - 58) =     13.10160  eV     2   --> G_3            
     e( 57 - 58) =     13.10160  eV     2   --> G_4            
     e( 59 - 60) =     13.10395  eV     2   --> G_3            
     e( 59 - 60) =     13.10395  eV     2   --> G_4            
     e( 61 - 62) =     13.51132  eV     2   --> G_3            
     e( 61 - 62) =     13.51132  eV     2   --> G_4            
     e( 63 - 64) =     13.51495  eV     2   --> G_3            
     e( 63 - 64) =     13.51495  eV     2   --> G_4            
     e( 65 - 66) =     14.91329  eV     2   --> G_3            
     e( 65 - 66) =     14.91329  eV     2   --> G_4            
     e( 67 - 68) =     14.91565  eV     2   --> G_3            
     e( 67 - 68) =     14.91565  eV     2   --> G_4            
     e( 69 - 70) =     17.68154  eV     2   --> G_3            
     e( 69 - 70) =     17.68154  eV     2   --> G_4            

 **************************************************************************

 **************************************************************************

                    xk=(  -0.30000,   0.51962,   0.12828  )

     Band symmetry, C_2  (2)    double point group:

     e(  1 -  4) =    -50.58901  eV     4   -->   2 G_3            
     e(  1 -  4) =    -50.58901  eV     4   -->   2 G_4            
     e(  5 -  8) =    -24.85604  eV     4   -->   2 G_3            
     e(  5 -  8) =    -24.85604  eV     4   -->   2 G_4            
     e(  9 - 12) =    -24.77210  eV     4   -->   2 G_3            
     e(  9 - 12) =    -24.77210  eV     4   -->   2 G_4            
     e( 13 - 16) =    -24.68813  eV     4   -->   2 G_3            
     e( 13 - 16) =    -24.68813  eV     4   -->   2 G_4            
     e( 17 - 18) =     -1.74702  eV     2   --> G_3            
     e( 17 - 18) =     -1.74702  eV     2   --> G_4            
     e( 19 - 20) =     -1.74631  eV     2   --> G_3            
     e( 19 - 20) =     -1.74631  eV     2   --> G_4            
     e( 21 - 22) =     -1.65862  eV     2   --> G_3            
     e( 21 - 22) =     -1.65862  eV     2   --> G_4            
     e( 23 - 24) =     -1.65836  eV     2   --> G_3            
     e( 23 - 24) =     -1.65836  eV     2   --> G_4            
     e( 25 - 26) =      4.89594  eV     2   --> G_3            
     e( 25 - 26) =      4.89594  eV     2   --> G_4            
     e( 27 - 28) =      4.89748  eV     2   --> G_3            
     e( 27 - 28) =      4.89748  eV     2   --> G_4            
     e( 29 - 30) =      5.37875  eV     2   --> G_3            
     e( 29 - 30) =      5.37875  eV     2   --> G_4            
     e( 31 - 32) =      5.38008  eV     2   --> G_3            
     e( 31 - 32) =      5.38008  eV     2   --> G_4            
     e( 33 - 34) =      6.37715  eV     2   --> G_3            
     e( 33 - 34) =      6.37715  eV     2   --> G_4            
     e( 35 - 36) =      6.37879  eV     2   --> G_3            
     e( 35 - 36) =      6.37879  eV     2   --> G_4            
     e( 37 - 38) =      6.61050  eV     2   --> G_3            
     e( 37 - 38) =      6.61050  eV     2   --> G_4            
     e( 39 - 40) =      6.61386  eV     2   --> G_3            
     e( 39 - 40) =      6.61386  eV     2   --> G_4            
     e( 41 - 42) =      7.41638  eV     2   --> G_3            
     e( 41 - 42) =      7.41638  eV     2   --> G_4            
     e( 43 - 44) =      7.41980  eV     2   --> G_3            
     e( 43 - 44) =      7.41980  eV     2   --> G_4            
     e( 45 - 46) =      8.16147  eV     2   --> G_3            
     e( 45 - 46) =      8.16147  eV     2   --> G_4            
     e( 47 - 48) =      8.16508  eV     2   --> G_3            
     e( 47 - 48) =      8.16508  eV     2   --> G_4            
     e( 49 - 50) =     10.11566  eV     2   --> G_3            
     e( 49 - 50) =     10.11566  eV     2   --> G_4            
     e( 51 - 52) =     10.11683  eV     2   --> G_3            
     e( 51 - 52) =     10.11683  eV     2   --> G_4            
     e( 53 - 54) =     12.10365  eV     2   --> G_3            
     e( 53 - 54) =     12.10365  eV     2   --> G_4            
     e( 55 - 56) =     12.10400  eV     2   --> G_3            
     e( 55 - 56) =     12.10400  eV     2   --> G_4            
     e( 57 - 58) =     13.21146  eV     2   --> G_3            
     e( 57 - 58) =     13.21146  eV     2   --> G_4            
     e( 59 - 60) =     13.21671  eV     2   --> G_3            
     e( 59 - 60) =     13.21671  eV     2   --> G_4            
     e( 61 - 62) =     13.66330  eV     2   --> G_3            
     e( 61 - 62) =     13.66330  eV     2   --> G_4            
     e( 63 - 64) =     13.66441  eV     2   --> G_3            
     e( 63 - 64) =     13.66441  eV     2   --> G_4            
     e( 65 - 66) =     15.01506  eV     2   --> G_3            
     e( 65 - 66) =     15.01506  eV     2   --> G_4            
     e( 67 - 68) =     15.01617  eV     2   --> G_3            
     e( 67 - 68) =     15.01617  eV     2   --> G_4            
     e( 69 - 70) =     17.53133  eV     2   --> G_3            
     e( 69 - 70) =     17.53133  eV     2   --> G_4            

 **************************************************************************

 **************************************************************************

                    xk=(  -0.33333,   0.57735,   0.12828  )

     double point group D_3 (32)   
     there are  6 classes and  3 irreducible representations
     the character table:

       E     -E    2C3   -2C3   3C2' -3C2'
                                          
G_4    2.00 -2.00  1.00 -1.00  0.00  0.00
G_5    1.00 -1.00 -1.00  1.00  0.00  0.00
G_6    1.00 -1.00 -1.00  1.00  0.00  0.00

     imaginary part

       E     -E    2C3   -2C3   3C2' -3C2'
                                          
G_4    0.00  0.00  0.00  0.00  0.00  0.00
G_5    0.00  0.00  0.00  0.00  1.00 -1.00
G_6    0.00  0.00  0.00  0.00 -1.00  1.00

     the symmetry operations in each class and the name of the first element:

     E             1
                                                                 
     -E           -1
                                                                 
     2C3           3    4
                                                                 
     -2C3         -3   -4
                                                                 
      3C2'         5    6   -2
                                                                 
     -3C2'         2   -5   -6
                                                                 

     Band symmetry, D_3 (32)    double point group:

     e(  1 -  4) =    -50.58830  eV     4   --> G_4            
     e(  1 -  4) =    -50.58830  eV     4   --> G_5            
     e(  1 -  4) =    -50.58830  eV     4   --> G_6            
     e(  5 -  8) =    -24.83993  eV     4   --> G_4            
     e(  5 -  8) =    -24.83993  eV     4   --> G_5            
     e(  5 -  8) =    -24.83993  eV     4   --> G_6            
     e(  9 - 12) =    -24.79682  eV     4   -->   2 G_4            
     e( 13 - 16) =    -24.68677  eV     4   --> G_4            
     e( 13 - 16) =    -24.68677  eV     4   --> G_5            
     e( 13 - 16) =    -24.68677  eV     4   --> G_6            
     e( 17 - 20) =     -1.69427  eV     4   --> G_4            
     e( 17 - 20) =     -1.69427  eV     4   --> G_5            
     e( 17 - 20) =     -1.69427  eV     4   --> G_6            
     e( 21 - 24) =     -1.64372  eV     4   --> G_4            
     e( 21 - 24) =     -1.64372  eV     4   --> G_5            
     e( 21 - 24) =     -1.64372  eV     4   --> G_6            
     e( 25 - 26) =      4.82222  eV     2   --> G_4            
     e( 27 - 28) =      4.82380  eV     2   --> G_4            
     e( 29 - 32) =      5.60148  eV     4   --> G_4            
     e( 29 - 32) =      5.60148  eV     4   --> G_5            
     e( 29 - 32) =      5.60148  eV     4   --> G_6            
     e( 33 - 34) =      6.16964  eV     2   --> G_4            
     e( 35 - 36) =      6.17188  eV     2   --> G_4            
     e( 37 - 40) =      6.51124  eV     4   --> G_4            
     e( 37 - 40) =      6.51124  eV     4   --> G_5            
     e( 37 - 40) =      6.51124  eV     4   --> G_6            
     e( 41 - 44) =      7.49670  eV     4   --> G_4            
     e( 41 - 44) =      7.49670  eV     4   --> G_5            
     e( 41 - 44) =      7.49670  eV     4   --> G_6            
     e( 45 - 48) =      8.04402  eV     4   --> G_4            
     e( 45 - 48) =      8.04402  eV     4   --> G_5            
     e( 45 - 48) =      8.04402  eV     4   --> G_6            
     e( 49 - 50) =     10.22760  eV     2   --> G_4            
     e( 51 - 52) =     10.22881  eV     2   --> G_4            
     e( 53 - 56) =     11.97445  eV     4   --> G_4            
     e( 53 - 56) =     11.97445  eV     4   --> G_5            
     e( 53 - 56) =     11.97445  eV     4   --> G_6            
     e( 57 - 58) =     13.19965  eV     2   --> G_4            
     e( 59 - 60) =     13.20555  eV     2   --> G_4            
     e( 61 - 64) =     13.76841  eV     4   --> G_4            
     e( 61 - 64) =     13.76841  eV     4   --> G_5            
     e( 61 - 64) =     13.76841  eV     4   --> G_6            
     e( 65 - 68) =     15.05455  eV     4   --> G_4            
     e( 65 - 68) =     15.05455  eV     4   --> G_5            
     e( 65 - 68) =     15.05455  eV     4   --> G_6            
     e( 69 - 70) =     17.54882  eV     2   --> G_4            

 **************************************************************************

     BANDS        :   1m41.73s CPU   1m44.58s WALL


   This run was terminated on:   8:19:50  18Apr2024            

=------------------------------------------------------------------------------=
   JOB DONE.
=------------------------------------------------------------------------------=
