
     Program BANDS v.7.2 starts on 17Apr2024 at 22:23:21 

     This program is part of the open-source Quantum ESPRESSO suite
     for quantum simulation of materials; please cite
         "P. Giannozzi et al., J. Phys.:Condens. Matter 21 395502 (2009);
         "P. Giannozzi et al., J. Phys.:Condens. Matter 29 465901 (2017);
         "P. Giannozzi et al., J. Chem. Phys. 152 154105 (2020);
          URL http://www.quantum-espresso.org", 
     in publications or presentations arising from this work. More details at
     http://www.quantum-espresso.org/quote

     Parallel version (MPI & OpenMP), running on       8 processor cores
     Number of MPI processes:                 8
     Threads/MPI process:                     1

     MPI processes distributed on     1 nodes
     R & G space division:  proc/nbgrp/npool/nimage =       8
     0 MiB available memory on the printing compute node when the environment starts


     Reading xml data from directory:

     ./tmp/MoS2_bulk_pbe_vdW_nsoc.save/

     IMPORTANT: XC functional enforced from input :
     Exchange-correlation= VDW-DF2-B86R
                           (   1   4  26   0   2   0   0)
     Any further DFT definition will be discarded
     Please, verify this is what you really want


     Parallelization info
     --------------------
     sticks:   dense  smooth     PW     G-vecs:    dense   smooth      PW
     Min          85      85     24                 7173     7173    1130
     Max          86      86     25                 7186     7186    1149
     Sum         685     685    199                57449    57449    9157

     Using Slab Decomposition



     %%%%%%%%%%%%%%%%%%%%%%%%%%%%%%%%%%%%%%%%%%%%%%%%%%%%%%%%%%%%%%%%%%%%%%%%
     %                                                                      %
     % You are using vdW-DF, which was implemented by the Thonhauser group. %
     % Please cite the following two papers that made this development      %
     % possible and the two reviews that describe the various versions:     %
     %                                                                      %
     %   T. Thonhauser et al., PRL 115, 136402 (2015).                      %
     %   T. Thonhauser et al., PRB 76, 125112 (2007).                       %
     %   K. Berland et al., Rep. Prog. Phys. 78, 066501 (2015).             %
     %   D.C. Langreth et al., J. Phys.: Condens. Matter 21, 084203 (2009). %
     %                                                                      %
     % If you are calculating stress with vdW-DF, please also cite:         %
     %                                                                      %
     %   R. Sabatini et al., J. Phys.: Condens. Matter 24, 424209 (2012).   %
     %                                                                      %
     %%%%%%%%%%%%%%%%%%%%%%%%%%%%%%%%%%%%%%%%%%%%%%%%%%%%%%%%%%%%%%%%%%%%%%%%

     %%%%%%%%%%%%%%%%%%%%%%%%%%%%%%%%%%%%%%%%%%%%%%%%%%%%%%%%%%%%%%%%%%%%%%%%
     %                                                                      %
     %  vdW-DF NEWS:                                                        %
     %                                                                      %
     %  * vdW-DF3 is now available. DOI: 10.1021/acs.jctc.0c00471           %
     %    use with input_dft = 'vdW-DF3-opt1' or 'vdW-DF3-opt2'             %
     %                                                                      %
     %  * Unscreened and range-separated hybrid vdW-DF-cx functionals       %
     %    DOI: 10.1063/1.4986522 and 10.1088/1361-648X/ac2ad2               %
     %    use with input_dft = 'vdW-DF-cx0'    and 'vdW-DF-ahcx'            %
     %  * Unscreened and range-separated hybrid vdW-DF2-b86r functionals    %
     %    DOI: 10.1063/1.4986522 and DOI: 10.1103/PhysRevX.12.041003        %
     %    use with input_dft = 'vdW-DF2-br0' and 'vdW-DF2-ahbr'             %
     %                                                                      %
     %%%%%%%%%%%%%%%%%%%%%%%%%%%%%%%%%%%%%%%%%%%%%%%%%%%%%%%%%%%%%%%%%%%%%%%%


     Reading collected, re-writing distributed wavefunctions
     high-symmetry point:  0.0000 0.0000 0.0000   x coordinate   0.0000
     high-symmetry point: -0.3333 0.5774 0.0000   x coordinate   0.6667
     high-symmetry point:  0.0000 0.5774 0.0000   x coordinate   1.0000
     high-symmetry point:  0.0000 0.0000 0.0000   x coordinate   1.5773
     high-symmetry point:  0.0000 0.0000 0.1283   x coordinate   1.7056
     high-symmetry point: -0.3333 0.5774 0.1283   x coordinate   1.7056

     Plottable bands (eV) written to file Bande_MoS2_bulk_pbe_vdW_nsoc.dat.gnu
     Bands written to file Bande_MoS2_bulk_pbe_vdW_nsoc.dat

 **************************************************************************

                    xk=(   0.00000,   0.00000,   0.00000  )

     point group D_3d (-3m) 
     there are  6 classes
     the character table:

       E     2C3   3C2'  i     2S6   3s_d 
A_1g   1.00  1.00  1.00  1.00  1.00  1.00
A_2g   1.00  1.00 -1.00  1.00  1.00 -1.00
E_g    2.00 -1.00  0.00  2.00 -1.00  0.00
A_1u   1.00  1.00  1.00 -1.00 -1.00 -1.00
A_2u   1.00  1.00 -1.00 -1.00 -1.00  1.00
E_u    2.00 -1.00  0.00 -2.00  1.00  0.00

     the symmetry operations in each class and the name of the first element:

     E        1
                                                                 
     2C3      3    4
                                                                 
     3C2'     2    5    6
                                                                 
     i        7
                                                                 
     2S6      9   10
                                                                 
     3s_d     8   11   12
                                                                 

     Band symmetry, D_3d (-3m)  point group:

     e(  1 -  2) =    -50.62596  eV     2   --> A_1g L_1       
     e(  1 -  2) =    -50.62596  eV     2   --> A_2u L_2'      
     e(  3 -  3) =    -24.78784  eV     1   --> A_1g L_1       
     e(  4 -  4) =    -24.78766  eV     1   --> A_2u L_2'      
     e(  5 -  8) =    -24.56263  eV     4   --> E_g  L_3       
     e(  5 -  8) =    -24.56263  eV     4   --> E_u  L_3'      
     e(  9 -  9) =     -4.05447  eV     1   --> A_1g L_1       
     e( 10 - 10) =     -3.78203  eV     1   --> A_2u L_2'      
     e( 11 - 11) =     -2.86556  eV     1   --> A_1g L_1       
     e( 12 - 12) =     -2.42172  eV     1   --> A_2u L_2'      
     e( 13 - 13) =      4.02414  eV     1   --> A_1g L_1       
     e( 14 - 14) =      5.07003  eV     1   --> A_2u L_2'      
     e( 15 - 15) =      7.33768  eV     1   --> A_1g L_1       
     e( 16 - 17) =      7.61014  eV     2   --> E_g  L_3       
     e( 18 - 19) =      7.62320  eV     2   --> E_u  L_3'      
     e( 20 - 21) =      8.70367  eV     2   --> E_g  L_3       
     e( 22 - 23) =      8.74996  eV     2   --> E_u  L_3'      
     e( 24 - 24) =      9.67028  eV     1   --> A_2u L_2'      
     e( 25 - 25) =      9.67260  eV     1   --> A_1g L_1       
     e( 26 - 26) =     10.83688  eV     1   --> A_2u L_2'      
     e( 27 - 28) =     12.95727  eV     2   --> E_g  L_3       
     e( 29 - 30) =     12.98587  eV     2   --> E_u  L_3'      
     e( 31 - 32) =     13.10444  eV     2   --> E_g  L_3       
     e( 33 - 34) =     13.27524  eV     2   --> E_u  L_3'      
     e( 35 - 35) =     16.39871  eV     1   --> A_1g L_1       
     e( 36 - 36) =     16.55693  eV     1   --> A_2u L_2'      
     e( 37 - 37) =     18.95088  eV     1   --> A_2u L_2'      
     e( 38 - 38) =     19.37271  eV     1   --> A_1g L_1       
     e( 39 - 39) =     19.48071  eV     1   --> A_1g L_1       
     e( 40 - 41) =     20.75414  eV     2   --> E_u  L_3'      
     e( 42 - 42) =     20.89043  eV     1   --> A_1g L_1       
     e( 43 - 44) =     21.17512  eV     2   --> E_g  L_3       
     e( 45 - 45) =     22.34776  eV     1   --> A_2u L_2'      
     e( 46 - 47) =     22.51009  eV     2   --> E_g  L_3       
     e( 48 - 49) =     23.23159  eV     2   --> E_u  L_3'      
     e( 50 - 50) =     23.60129  eV     1   --> A_1g L_1       
     e( 51 - 52) =     25.68402  eV     2   --> E_g  L_3       
     e( 53 - 53) =     25.70296  eV     1   --> A_2u L_2'      
     e( 54 - 55) =     25.84379  eV     2   --> E_u  L_3'      
     e( 56 - 56) =     26.05219  eV     1   --> A_2u L_2'      
     e( 57 - 58) =     26.56332  eV     2   --> E_g  L_3       
     e( 59 - 59) =     26.80507  eV     1   --> A_1g L_1       
     e( 60 - 60) =     27.13291  eV     1   -->   ?

 **************************************************************************

 **************************************************************************

                    xk=(  -0.01587,   0.02749,   0.00000  )

     point group C_2  (2)   
     there are  2 classes
     the character table:

       E     C2   
A      1.00  1.00
B      1.00 -1.00

     the symmetry operations in each class and the name of the first element:

     E        1
                                                                 
     C2       2
                                                                 

     Band symmetry, C_2  (2)    point group:

     e(  1 -  2) =    -50.62567  eV     2   --> A              
     e(  1 -  2) =    -50.62567  eV     2   --> B              
     e(  3 -  3) =    -24.78723  eV     1   --> A              
     e(  4 -  4) =    -24.78704  eV     1   --> B              
     e(  5 -  5) =    -24.56561  eV     1   --> B              
     e(  6 -  6) =    -24.56549  eV     1   --> A              
     e(  7 -  8) =    -24.56329  eV     2   --> A              
     e(  7 -  8) =    -24.56329  eV     2   --> B              
     e(  9 -  9) =     -4.04297  eV     1   --> A              
     e( 10 - 10) =     -3.77069  eV     1   --> B              
     e( 11 - 11) =     -2.86003  eV     1   --> A              
     e( 12 - 12) =     -2.41761  eV     1   --> B              
     e( 13 - 13) =      4.03767  eV     1   --> A              
     e( 14 - 14) =      5.08337  eV     1   --> B              
     e( 15 - 15) =      7.31349  eV     1   --> A              
     e( 16 - 16) =      7.58315  eV     1   --> B              
     e( 17 - 17) =      7.59660  eV     1   --> A              
     e( 18 - 18) =      7.62215  eV     1   --> A              
     e( 19 - 19) =      7.63536  eV     1   --> B              
     e( 20 - 20) =      8.65035  eV     1   --> B              
     e( 21 - 21) =      8.68405  eV     1   --> A              
     e( 22 - 22) =      8.73096  eV     1   --> B              
     e( 23 - 23) =      8.76166  eV     1   --> A              
     e( 24 - 24) =      9.67462  eV     1   --> A              
     e( 25 - 25) =      9.69913  eV     1   --> B              
     e( 26 - 26) =     10.81523  eV     1   --> B              
     e( 27 - 27) =     12.94346  eV     1   --> B              
     e( 28 - 28) =     12.96114  eV     1   --> A              
     e( 29 - 29) =     12.98110  eV     1   --> A              
     e( 30 - 30) =     13.00816  eV     1   --> B              
     e( 31 - 31) =     13.08910  eV     1   --> A              
     e( 32 - 32) =     13.09024  eV     1   --> B              
     e( 33 - 33) =     13.23373  eV     1   --> A              
     e( 34 - 34) =     13.26317  eV     1   --> B              
     e( 35 - 35) =     16.45745  eV     1   --> A              
     e( 36 - 36) =     16.61243  eV     1   --> B              
     e( 37 - 37) =     19.00352  eV     1   --> B              
     e( 38 - 38) =     19.37475  eV     1   --> A              
     e( 39 - 39) =     19.53634  eV     1   --> A              
     e( 40 - 40) =     20.73057  eV     1   --> A              
     e( 41 - 41) =     20.79021  eV     1   --> B              
     e( 42 - 42) =     20.89349  eV     1   --> A              
     e( 43 - 43) =     21.13705  eV     1   --> B              
     e( 44 - 44) =     21.21212  eV     1   --> A              
     e( 45 - 45) =     22.33577  eV     1   --> B              
     e( 46 - 46) =     22.41540  eV     1   --> B              
     e( 47 - 47) =     22.50755  eV     1   --> A              
     e( 48 - 48) =     23.12965  eV     1   --> A              
     e( 49 - 49) =     23.24196  eV     1   --> B              
     e( 50 - 50) =     23.61294  eV     1   --> A              
     e( 51 - 51) =     25.53484  eV     1   --> B              
     e( 52 - 52) =     25.63301  eV     1   --> A              
     e( 53 - 53) =     25.77521  eV     1   --> A              
     e( 54 - 54) =     25.86615  eV     1   --> B              
     e( 55 - 55) =     25.86643  eV     1   --> B              
     e( 56 - 56) =     26.16257  eV     1   --> B              
     e( 57 - 57) =     26.48250  eV     1   --> B              
     e( 58 - 58) =     26.57733  eV     1   --> A              
     e( 59 - 59) =     26.93961  eV     1   --> A              
     e( 60 - 60) =     27.11200  eV     1   --> B              

 **************************************************************************

 **************************************************************************

                    xk=(  -0.03175,   0.05499,   0.00000  )

     Band symmetry, C_2  (2)    point group:

     e(  1 -  2) =    -50.62480  eV     2   --> A              
     e(  1 -  2) =    -50.62480  eV     2   --> B              
     e(  3 -  3) =    -24.78551  eV     1   --> A              
     e(  4 -  4) =    -24.78534  eV     1   --> B              
     e(  5 -  6) =    -24.57432  eV     2   --> A              
     e(  5 -  6) =    -24.57432  eV     2   --> B              
     e(  7 -  8) =    -24.56532  eV     2   --> A              
     e(  7 -  8) =    -24.56532  eV     2   --> B              
     e(  9 -  9) =     -4.00865  eV     1   --> A              
     e( 10 - 10) =     -3.73689  eV     1   --> B              
     e( 11 - 11) =     -2.84351  eV     1   --> A              
     e( 12 - 12) =     -2.40537  eV     1   --> B              
     e( 13 - 13) =      4.07777  eV     1   --> A              
     e( 14 - 14) =      5.12275  eV     1   --> B              
     e( 15 - 15) =      7.24521  eV     1   --> A              
     e( 16 - 16) =      7.50486  eV     1   --> B              
     e( 17 - 17) =      7.51961  eV     1   --> A              
     e( 18 - 18) =      7.65742  eV     1   --> A              
     e( 19 - 19) =      7.67134  eV     1   --> B              
     e( 20 - 20) =      8.51285  eV     1   --> B              
     e( 21 - 21) =      8.62447  eV     1   --> A              
     e( 22 - 22) =      8.67353  eV     1   --> B              
     e( 23 - 23) =      8.79354  eV     1   --> A              
     e( 24 - 24) =      9.67978  eV     1   --> A              
     e( 25 - 25) =      9.76256  eV     1   --> B              
     e( 26 - 26) =     10.75004  eV     1   --> B              
     e( 27 - 27) =     12.90521  eV     1   --> A              
     e( 28 - 28) =     12.91054  eV     1   --> B              
     e( 29 - 29) =     13.03724  eV     1   --> A              
     e( 30 - 30) =     13.03840  eV     1   --> A              
     e( 31 - 31) =     13.05377  eV     1   --> B              
     e( 32 - 32) =     13.07206  eV     1   --> B              
     e( 33 - 33) =     13.12439  eV     1   --> A              
     e( 34 - 34) =     13.22609  eV     1   --> B              
     e( 35 - 35) =     16.62545  eV     1   --> A              
     e( 36 - 36) =     16.77376  eV     1   --> B              
     e( 37 - 37) =     19.15334  eV     1   --> B              
     e( 38 - 38) =     19.37786  eV     1   --> A              
     e( 39 - 39) =     19.69520  eV     1   --> A              
     e( 40 - 40) =     20.66734  eV     1   --> A              
     e( 41 - 41) =     20.88992  eV     1   --> B              
     e( 42 - 42) =     20.90094  eV     1   --> A              
     e( 43 - 43) =     21.03743  eV     1   --> B              
     e( 44 - 44) =     21.32179  eV     1   --> A              
     e( 45 - 45) =     22.17165  eV     1   --> B              
     e( 46 - 46) =     22.29478  eV     1   --> B              
     e( 47 - 47) =     22.48754  eV     1   --> A              
     e( 48 - 48) =     22.87982  eV     1   --> A              
     e( 49 - 49) =     23.26973  eV     1   --> B              
     e( 50 - 50) =     23.63671  eV     1   --> A              
     e( 51 - 51) =     25.36946  eV     1   --> B              
     e( 52 - 52) =     25.49754  eV     1   --> A              
     e( 53 - 53) =     25.60658  eV     1   --> A              
     e( 54 - 54) =     25.91698  eV     1   --> B              
     e( 55 - 55) =     26.07396  eV     1   --> B              
     e( 56 - 56) =     26.20043  eV     1   --> B              
     e( 57 - 57) =     26.54342  eV     1   --> B              
     e( 58 - 58) =     26.60830  eV     1   --> A              
     e( 59 - 59) =     27.04912  eV     1   --> B              
     e( 60 - 60) =     27.13606  eV     1   --> A              

 **************************************************************************

 **************************************************************************

                    xk=(  -0.04762,   0.08248,   0.00000  )

     Band symmetry, C_2  (2)    point group:

     e(  1 -  2) =    -50.62339  eV     2   --> A              
     e(  1 -  2) =    -50.62339  eV     2   --> B              
     e(  3 -  3) =    -24.78269  eV     1   --> A              
     e(  4 -  4) =    -24.78254  eV     1   --> B              
     e(  5 -  6) =    -24.58842  eV     2   --> A              
     e(  5 -  6) =    -24.58842  eV     2   --> B              
     e(  7 -  8) =    -24.56868  eV     2   --> A              
     e(  7 -  8) =    -24.56868  eV     2   --> B              
     e(  9 -  9) =     -3.95202  eV     1   --> A              
     e( 10 - 10) =     -3.68122  eV     1   --> B              
     e( 11 - 11) =     -2.81626  eV     1   --> A              
     e( 12 - 12) =     -2.38521  eV     1   --> B              
     e( 13 - 13) =      4.14298  eV     1   --> A              
     e( 14 - 14) =      5.18619  eV     1   --> B              
     e( 15 - 15) =      7.14328  eV     1   --> A              
     e( 16 - 16) =      7.38231  eV     1   --> B              
     e( 17 - 17) =      7.39891  eV     1   --> A              
     e( 18 - 18) =      7.71494  eV     1   --> A              
     e( 19 - 19) =      7.73016  eV     1   --> B              
     e( 20 - 20) =      8.32952  eV     1   --> B              
     e( 21 - 21) =      8.52336  eV     1   --> A              
     e( 22 - 22) =      8.57697  eV     1   --> B              
     e( 23 - 23) =      8.83860  eV     1   --> A              
     e( 24 - 24) =      9.68541  eV     1   --> A              
     e( 25 - 25) =      9.82167  eV     1   --> B              
     e( 26 - 26) =     10.64146  eV     1   --> B              
     e( 27 - 27) =     12.82442  eV     1   --> A              
     e( 28 - 28) =     12.87284  eV     1   --> B              
     e( 29 - 29) =     12.90659  eV     1   --> A              
     e( 30 - 30) =     13.00868  eV     1   --> B              
     e( 31 - 31) =     13.01318  eV     1   --> A              
     e( 32 - 32) =     13.13249  eV     1   --> A              
     e( 33 - 33) =     13.16333  eV     1   --> B              
     e( 34 - 34) =     13.17697  eV     1   --> B              
     e( 35 - 35) =     16.88278  eV     1   --> A              
     e( 36 - 36) =     17.02754  eV     1   --> B              
     e( 37 - 37) =     19.37608  eV     1   --> A              
     e( 38 - 38) =     19.37701  eV     1   --> B              
     e( 39 - 39) =     19.93330  eV     1   --> A              
     e( 40 - 40) =     20.58134  eV     1   --> A              
     e( 41 - 41) =     20.86296  eV     1   --> B              
     e( 42 - 42) =     20.90915  eV     1   --> A              
     e( 43 - 43) =     21.07598  eV     1   --> B              
     e( 44 - 44) =     21.49862  eV     1   --> A              
     e( 45 - 45) =     21.85575  eV     1   --> B              
     e( 46 - 46) =     22.21980  eV     1   --> B              
     e( 47 - 47) =     22.34284  eV     1   --> A              
     e( 48 - 48) =     22.67354  eV     1   --> A              
     e( 49 - 49) =     23.31064  eV     1   --> B              
     e( 50 - 50) =     23.64663  eV     1   --> A              
     e( 51 - 51) =     25.18167  eV     1   --> B              
     e( 52 - 52) =     25.31294  eV     1   --> A              
     e( 53 - 53) =     25.40929  eV     1   --> A              
     e( 54 - 54) =     25.87034  eV     1   --> B              
     e( 55 - 55) =     26.01760  eV     1   --> B              
     e( 56 - 56) =     26.32164  eV     1   --> B              
     e( 57 - 57) =     26.65139  eV     1   --> A              
     e( 58 - 58) =     26.95201  eV     1   --> B              
     e( 59 - 59) =     27.01235  eV     1   --> B              
     e( 60 - 60) =     27.10260  eV     1   --> A              

 **************************************************************************

 **************************************************************************

                    xk=(  -0.06349,   0.10997,   0.00000  )

     Band symmetry, C_2  (2)    point group:

     e(  1 -  2) =    -50.62146  eV     2   --> A              
     e(  1 -  2) =    -50.62146  eV     2   --> B              
     e(  3 -  3) =    -24.77885  eV     1   --> A              
     e(  4 -  4) =    -24.77874  eV     1   --> B              
     e(  5 -  6) =    -24.60758  eV     2   --> A              
     e(  5 -  6) =    -24.60758  eV     2   --> B              
     e(  7 -  8) =    -24.57342  eV     2   --> A              
     e(  7 -  8) =    -24.57342  eV     2   --> B              
     e(  9 -  9) =     -3.87398  eV     1   --> A              
     e( 10 - 10) =     -3.60467  eV     1   --> B              
     e( 11 - 11) =     -2.77868  eV     1   --> A              
     e( 12 - 12) =     -2.35751  eV     1   --> B              
     e( 13 - 13) =      4.23076  eV     1   --> A              
     e( 14 - 14) =      5.27013  eV     1   --> B              
     e( 15 - 15) =      7.01990  eV     1   --> A              
     e( 16 - 16) =      7.22600  eV     1   --> B              
     e( 17 - 17) =      7.24447  eV     1   --> A              
     e( 18 - 18) =      7.79247  eV     1   --> A              
     e( 19 - 19) =      7.80980  eV     1   --> B              
     e( 20 - 20) =      8.12667  eV     1   --> B              
     e( 21 - 21) =      8.37961  eV     1   --> A              
     e( 22 - 22) =      8.44138  eV     1   --> B              
     e( 23 - 23) =      8.88950  eV     1   --> A              
     e( 24 - 24) =      9.68706  eV     1   --> A              
     e( 25 - 25) =      9.85166  eV     1   --> B              
     e( 26 - 26) =     10.49192  eV     1   --> B              
     e( 27 - 27) =     12.70563  eV     1   --> A              
     e( 28 - 28) =     12.73732  eV     1   --> A              
     e( 29 - 29) =     12.84623  eV     1   --> B              
     e( 30 - 30) =     12.91977  eV     1   --> A              
     e( 31 - 31) =     12.96737  eV     1   --> B              
     e( 32 - 32) =     13.07823  eV     1   --> B              
     e( 33 - 33) =     13.25602  eV     1   --> A              
     e( 34 - 34) =     13.31999  eV     1   --> B              
     e( 35 - 35) =     17.20567  eV     1   --> A              
     e( 36 - 36) =     17.35610  eV     1   --> B              
     e( 37 - 37) =     19.36654  eV     1   --> A              
     e( 38 - 38) =     19.63621  eV     1   --> B              
     e( 39 - 39) =     20.20546  eV     1   --> A              
     e( 40 - 40) =     20.48803  eV     1   --> A              
     e( 41 - 41) =     20.68677  eV     1   --> B              
     e( 42 - 42) =     20.91984  eV     1   --> A              
     e( 43 - 43) =     21.26745  eV     1   --> B              
     e( 44 - 44) =     21.53566  eV     1   --> B              
     e( 45 - 45) =     21.72855  eV     1   --> A              
     e( 46 - 46) =     22.00291  eV     1   --> A              
     e( 47 - 47) =     22.12778  eV     1   --> B              
     e( 48 - 48) =     22.65594  eV     1   --> A              
     e( 49 - 49) =     23.35927  eV     1   --> B              
     e( 50 - 50) =     23.62107  eV     1   --> A              
     e( 51 - 51) =     24.96057  eV     1   --> B              
     e( 52 - 52) =     25.10424  eV     1   --> A              
     e( 53 - 53) =     25.24280  eV     1   --> A              
     e( 54 - 54) =     25.53726  eV     1   --> B              
     e( 55 - 55) =     26.11435  eV     1   --> B              
     e( 56 - 56) =     26.53120  eV     1   --> B              
     e( 57 - 57) =     26.70653  eV     1   --> A              
     e( 58 - 58) =     26.90602  eV     1   --> B              
     e( 59 - 59) =     27.02927  eV     1   --> A              
     e( 60 - 60) =     27.57888  eV     1   --> B              

 **************************************************************************

 **************************************************************************

                    xk=(  -0.07936,   0.13746,   0.00000  )

     Band symmetry, C_2  (2)    point group:

     e(  1 -  2) =    -50.61908  eV     2   --> A              
     e(  1 -  2) =    -50.61908  eV     2   --> B              
     e(  3 -  3) =    -24.77417  eV     1   --> A              
     e(  4 -  4) =    -24.77402  eV     1   --> B              
     e(  5 -  6) =    -24.63073  eV     2   --> A              
     e(  5 -  6) =    -24.63073  eV     2   --> B              
     e(  7 -  8) =    -24.57952  eV     2   --> A              
     e(  7 -  8) =    -24.57952  eV     2   --> B              
     e(  9 -  9) =     -3.77575  eV     1   --> A              
     e( 10 - 10) =     -3.50862  eV     1   --> B              
     e( 11 - 11) =     -2.73136  eV     1   --> A              
     e( 12 - 12) =     -2.32281  eV     1   --> B              
     e( 13 - 13) =      4.33732  eV     1   --> A              
     e( 14 - 14) =      5.36892  eV     1   --> B              
     e( 15 - 15) =      6.88606  eV     1   --> A              
     e( 16 - 16) =      7.04884  eV     1   --> B              
     e( 17 - 17) =      7.06804  eV     1   --> A              
     e( 18 - 18) =      7.88640  eV     1   --> A              
     e( 19 - 19) =      7.90685  eV     1   --> B              
     e( 20 - 20) =      7.91845  eV     1   --> B              
     e( 21 - 21) =      8.19427  eV     1   --> A              
     e( 22 - 22) =      8.26943  eV     1   --> B              
     e( 23 - 23) =      8.94043  eV     1   --> A              
     e( 24 - 24) =      9.67876  eV     1   --> A              
     e( 25 - 25) =      9.84337  eV     1   --> B              
     e( 26 - 26) =     10.30787  eV     1   --> B              
     e( 27 - 27) =     12.48834  eV     1   --> A              
     e( 28 - 28) =     12.65890  eV     1   --> A              
     e( 29 - 29) =     12.81939  eV     1   --> A              
     e( 30 - 30) =     12.84233  eV     1   --> B              
     e( 31 - 31) =     12.92826  eV     1   --> B              
     e( 32 - 32) =     12.98487  eV     1   --> B              
     e( 33 - 33) =     13.40102  eV     1   --> A              
     e( 34 - 34) =     13.49634  eV     1   --> B              
     e( 35 - 35) =     17.56959  eV     1   --> A              
     e( 36 - 36) =     17.74047  eV     1   --> B              
     e( 37 - 37) =     19.35403  eV     1   --> A              
     e( 38 - 38) =     19.87031  eV     1   --> B              
     e( 39 - 39) =     20.39249  eV     1   --> A              
     e( 40 - 40) =     20.42260  eV     1   --> A              
     e( 41 - 41) =     20.49030  eV     1   --> B              
     e( 42 - 42) =     20.95371  eV     1   --> A              
     e( 43 - 43) =     21.27657  eV     1   --> B              
     e( 44 - 44) =     21.42341  eV     1   --> B              
     e( 45 - 45) =     21.66094  eV     1   --> A              
     e( 46 - 46) =     21.98222  eV     1   --> A              
     e( 47 - 47) =     22.09144  eV     1   --> B              
     e( 48 - 48) =     22.71145  eV     1   --> A              
     e( 49 - 49) =     23.40130  eV     1   --> B              
     e( 50 - 50) =     23.56575  eV     1   --> A              
     e( 51 - 51) =     24.69579  eV     1   --> B              
     e( 52 - 52) =     24.87349  eV     1   --> A              
     e( 53 - 53) =     25.14468  eV     1   --> A              
     e( 54 - 54) =     25.23002  eV     1   --> B              
     e( 55 - 55) =     26.24422  eV     1   --> B              
     e( 56 - 56) =     26.45886  eV     1   --> B              
     e( 57 - 57) =     26.77403  eV     1   --> A              
     e( 58 - 58) =     26.93705  eV     1   --> A              
     e( 59 - 59) =     27.16348  eV     1   --> B              
     e( 60 - 60) =     28.18924  eV     1   --> B              

 **************************************************************************

 **************************************************************************

                    xk=(  -0.09524,   0.16496,   0.00000  )

     Band symmetry, C_2  (2)    point group:

     e(  1 -  2) =    -50.61632  eV     2   --> A              
     e(  1 -  2) =    -50.61632  eV     2   --> B              
     e(  3 -  3) =    -24.76872  eV     1   --> A              
     e(  4 -  4) =    -24.76860  eV     1   --> B              
     e(  5 -  6) =    -24.65720  eV     2   --> A              
     e(  5 -  6) =    -24.65720  eV     2   --> B              
     e(  7 -  8) =    -24.58703  eV     2   --> A              
     e(  7 -  8) =    -24.58703  eV     2   --> B              
     e(  9 -  9) =     -3.65891  eV     1   --> A              
     e( 10 - 10) =     -3.39485  eV     1   --> B              
     e( 11 - 11) =     -2.67505  eV     1   --> A              
     e( 12 - 12) =     -2.28176  eV     1   --> B              
     e( 13 - 13) =      4.45736  eV     1   --> A              
     e( 14 - 14) =      5.47357  eV     1   --> B              
     e( 15 - 15) =      6.75060  eV     1   --> A              
     e( 16 - 16) =      6.86609  eV     1   --> B              
     e( 17 - 17) =      6.88224  eV     1   --> A              
     e( 18 - 18) =      7.71053  eV     1   --> B              
     e( 19 - 19) =      7.97150  eV     1   --> A              
     e( 20 - 20) =      7.99108  eV     1   --> A              
     e( 21 - 21) =      8.01557  eV     1   --> B              
     e( 22 - 22) =      8.06860  eV     1   --> B              
     e( 23 - 23) =      8.98716  eV     1   --> A              
     e( 24 - 24) =      9.65410  eV     1   --> A              
     e( 25 - 25) =      9.79767  eV     1   --> B              
     e( 26 - 26) =     10.10011  eV     1   --> B              
     e( 27 - 27) =     12.27796  eV     1   --> A              
     e( 28 - 28) =     12.59975  eV     1   --> A              
     e( 29 - 29) =     12.71679  eV     1   --> A              
     e( 30 - 30) =     12.83643  eV     1   --> B              
     e( 31 - 31) =     12.86601  eV     1   --> B              
     e( 32 - 32) =     12.94785  eV     1   --> B              
     e( 33 - 33) =     13.55838  eV     1   --> A              
     e( 34 - 34) =     13.69781  eV     1   --> B              
     e( 35 - 35) =     17.94716  eV     1   --> A              
     e( 36 - 36) =     18.16054  eV     1   --> B              
     e( 37 - 37) =     19.35139  eV     1   --> A              
     e( 38 - 38) =     19.98681  eV     1   --> B              
     e( 39 - 39) =     20.28047  eV     1   --> B              
     e( 40 - 40) =     20.29761  eV     1   --> A              
     e( 41 - 41) =     20.46979  eV     1   --> A              
     e( 42 - 42) =     20.93105  eV     1   --> A              
     e( 43 - 43) =     21.16121  eV     1   --> B              
     e( 44 - 44) =     21.43375  eV     1   --> B              
     e( 45 - 45) =     21.52970  eV     1   --> A              
     e( 46 - 46) =     22.20193  eV     1   --> A              
     e( 47 - 47) =     22.22763  eV     1   --> B              
     e( 48 - 48) =     22.81532  eV     1   --> A              
     e( 49 - 49) =     23.40470  eV     1   --> B              
     e( 50 - 50) =     23.52845  eV     1   --> A              
     e( 51 - 51) =     24.37864  eV     1   --> B              
     e( 52 - 52) =     24.61348  eV     1   --> A              
     e( 53 - 53) =     25.02123  eV     1   --> B              
     e( 54 - 54) =     25.13194  eV     1   --> A              
     e( 55 - 55) =     26.25910  eV     1   --> B              
     e( 56 - 56) =     26.39589  eV     1   --> B              
     e( 57 - 57) =     26.85531  eV     1   --> A              
     e( 58 - 58) =     26.86279  eV     1   --> A              
     e( 59 - 59) =     27.58296  eV     1   --> B              
     e( 60 - 60) =     28.80911  eV     1   --> B              

 **************************************************************************

 **************************************************************************

                    xk=(  -0.11111,   0.19245,   0.00000  )

     Band symmetry, C_2  (2)    point group:

     e(  1 -  2) =    -50.61326  eV     2   --> A              
     e(  1 -  2) =    -50.61326  eV     2   --> B              
     e(  3 -  3) =    -24.76267  eV     1   --> A              
     e(  4 -  4) =    -24.76249  eV     1   --> B              
     e(  5 -  6) =    -24.68577  eV     2   --> A              
     e(  5 -  6) =    -24.68577  eV     2   --> B              
     e(  7 -  8) =    -24.59583  eV     2   --> A              
     e(  7 -  8) =    -24.59583  eV     2   --> B              
     e(  9 -  9) =     -3.52537  eV     1   --> A              
     e( 10 - 10) =     -3.26551  eV     1   --> B              
     e( 11 - 11) =     -2.61065  eV     1   --> A              
     e( 12 - 12) =     -2.23518  eV     1   --> B              
     e( 13 - 13) =      4.58354  eV     1   --> A              
     e( 14 - 14) =      5.56934  eV     1   --> B              
     e( 15 - 15) =      6.62005  eV     1   --> A              
     e( 16 - 16) =      6.69705  eV     1   --> B              
     e( 17 - 17) =      6.70027  eV     1   --> A              
     e( 18 - 18) =      7.50060  eV     1   --> B              
     e( 19 - 19) =      7.71865  eV     1   --> A              
     e( 20 - 20) =      7.85378  eV     1   --> B              
     e( 21 - 21) =      8.09771  eV     1   --> A              
     e( 22 - 22) =      8.12665  eV     1   --> B              
     e( 23 - 23) =      9.02642  eV     1   --> A              
     e( 24 - 24) =      9.60868  eV     1   --> A              
     e( 25 - 25) =      9.72004  eV     1   --> B              
     e( 26 - 26) =      9.88352  eV     1   --> B              
     e( 27 - 27) =     12.08877  eV     1   --> A              
     e( 28 - 28) =     12.56518  eV     1   --> A              
     e( 29 - 29) =     12.62416  eV     1   --> A              
     e( 30 - 30) =     12.71761  eV     1   --> B              
     e( 31 - 31) =     12.91573  eV     1   --> B              
     e( 32 - 32) =     12.94950  eV     1   --> B              
     e( 33 - 33) =     13.71825  eV     1   --> A              
     e( 34 - 34) =     13.91428  eV     1   --> B              
     e( 35 - 35) =     18.30231  eV     1   --> A              
     e( 36 - 36) =     18.59062  eV     1   --> B              
     e( 37 - 37) =     19.37729  eV     1   --> A              
     e( 38 - 38) =     19.93368  eV     1   --> B              
     e( 39 - 39) =     20.06186  eV     1   --> B              
     e( 40 - 40) =     20.19601  eV     1   --> A              
     e( 41 - 41) =     20.38185  eV     1   --> A              
     e( 42 - 42) =     20.70167  eV     1   --> A              
     e( 43 - 43) =     21.22683  eV     1   --> B              
     e( 44 - 44) =     21.34559  eV     1   --> B              
     e( 45 - 45) =     21.72820  eV     1   --> A              
     e( 46 - 46) =     22.30123  eV     1   --> A              
     e( 47 - 47) =     22.49720  eV     1   --> B              
     e( 48 - 48) =     22.96552  eV     1   --> A              
     e( 49 - 49) =     23.32905  eV     1   --> B              
     e( 50 - 50) =     23.56628  eV     1   --> A              
     e( 51 - 51) =     24.00790  eV     1   --> B              
     e( 52 - 52) =     24.35926  eV     1   --> A              
     e( 53 - 53) =     24.97347  eV     1   --> B              
     e( 54 - 54) =     25.20192  eV     1   --> A              
     e( 55 - 55) =     26.04897  eV     1   --> B              
     e( 56 - 56) =     26.56462  eV     1   --> B              
     e( 57 - 57) =     26.83183  eV     1   --> A              
     e( 58 - 58) =     26.95943  eV     1   --> A              
     e( 59 - 59) =     28.06630  eV     1   --> B              
     e( 60 - 60) =     29.40683  eV     1   --> B              

 **************************************************************************

 **************************************************************************

                    xk=(  -0.12698,   0.21994,   0.00000  )

     Band symmetry, C_2  (2)    point group:

     e(  1 -  2) =    -50.60997  eV     2   --> A              
     e(  1 -  2) =    -50.60997  eV     2   --> B              
     e(  3 -  3) =    -24.75622  eV     1   --> A              
     e(  4 -  4) =    -24.75603  eV     1   --> B              
     e(  5 -  6) =    -24.71556  eV     2   --> A              
     e(  5 -  6) =    -24.71556  eV     2   --> B              
     e(  7 -  8) =    -24.60604  eV     2   --> A              
     e(  7 -  8) =    -24.60604  eV     2   --> B              
     e(  9 -  9) =     -3.37743  eV     1   --> A              
     e( 10 - 10) =     -3.12314  eV     1   --> B              
     e( 11 - 11) =     -2.53925  eV     1   --> A              
     e( 12 - 12) =     -2.18403  eV     1   --> B              
     e( 13 - 13) =      4.70591  eV     1   --> A              
     e( 14 - 14) =      5.63235  eV     1   --> B              
     e( 15 - 15) =      6.49844  eV     1   --> A              
     e( 16 - 16) =      6.53625  eV     1   --> A              
     e( 17 - 17) =      6.56801  eV     1   --> B              
     e( 18 - 18) =      7.27758  eV     1   --> B              
     e( 19 - 19) =      7.44579  eV     1   --> A              
     e( 20 - 20) =      7.64879  eV     1   --> B              
     e( 21 - 21) =      8.19279  eV     1   --> A              
     e( 22 - 22) =      8.22475  eV     1   --> B              
     e( 23 - 23) =      9.05536  eV     1   --> A              
     e( 24 - 24) =      9.54404  eV     1   --> A              
     e( 25 - 25) =      9.61652  eV     1   --> B              
     e( 26 - 26) =      9.67744  eV     1   --> B              
     e( 27 - 27) =     11.92932  eV     1   --> A              
     e( 28 - 28) =     12.55523  eV     1   --> A              
     e( 29 - 29) =     12.55679  eV     1   --> A              
     e( 30 - 30) =     12.60524  eV     1   --> B              
     e( 31 - 31) =     12.96285  eV     1   --> B              
     e( 32 - 32) =     12.98797  eV     1   --> B              
     e( 33 - 33) =     13.87070  eV     1   --> A              
     e( 34 - 34) =     14.13478  eV     1   --> B              
     e( 35 - 35) =     18.58588  eV     1   --> A              
     e( 36 - 36) =     18.97447  eV     1   --> B              
     e( 37 - 37) =     19.44358  eV     1   --> A              
     e( 38 - 38) =     19.78689  eV     1   --> B              
     e( 39 - 39) =     19.87045  eV     1   --> B              
     e( 40 - 40) =     20.10166  eV     1   --> A              
     e( 41 - 41) =     20.22302  eV     1   --> A              
     e( 42 - 42) =     20.45036  eV     1   --> A              
     e( 43 - 43) =     21.25868  eV     1   --> B              
     e( 44 - 44) =     21.38516  eV     1   --> B              
     e( 45 - 45) =     22.01360  eV     1   --> A              
     e( 46 - 46) =     22.23915  eV     1   --> A              
     e( 47 - 47) =     22.78601  eV     1   --> B              
     e( 48 - 48) =     23.15468  eV     1   --> A              
     e( 49 - 49) =     23.17171  eV     1   --> B              
     e( 50 - 50) =     23.56267  eV     1   --> A              
     e( 51 - 51) =     23.60114  eV     1   --> B              
     e( 52 - 52) =     24.29971  eV     1   --> A              
     e( 53 - 53) =     25.09782  eV     1   --> B              
     e( 54 - 54) =     25.32971  eV     1   --> A              
     e( 55 - 55) =     25.87241  eV     1   --> B              
     e( 56 - 56) =     26.74888  eV     1   --> B              
     e( 57 - 57) =     26.85178  eV     1   --> A              
     e( 58 - 58) =     27.10349  eV     1   --> A              
     e( 59 - 59) =     28.59288  eV     1   --> B              
     e( 60 - 60) =     29.94836  eV     1   --> B              

 **************************************************************************

 **************************************************************************

                    xk=(  -0.14286,   0.24744,   0.00000  )

     Band symmetry, C_2  (2)    point group:

     e(  1 -  2) =    -50.60656  eV     2   --> A              
     e(  1 -  2) =    -50.60656  eV     2   --> B              
     e(  3 -  3) =    -24.74949  eV     1   --> A              
     e(  4 -  4) =    -24.74927  eV     1   --> B              
     e(  5 -  6) =    -24.74536  eV     2   --> A              
     e(  5 -  6) =    -24.74536  eV     2   --> B              
     e(  7 -  8) =    -24.61763  eV     2   --> A              
     e(  7 -  8) =    -24.61763  eV     2   --> B              
     e(  9 -  9) =     -3.21776  eV     1   --> A              
     e( 10 - 10) =     -2.97073  eV     1   --> B              
     e( 11 - 11) =     -2.46209  eV     1   --> A              
     e( 12 - 12) =     -2.12936  eV     1   --> B              
     e( 13 - 13) =      4.81165  eV     1   --> A              
     e( 14 - 14) =      5.63452  eV     1   --> B              
     e( 15 - 15) =      6.38644  eV     1   --> A              
     e( 16 - 16) =      6.40550  eV     1   --> A              
     e( 17 - 17) =      6.50729  eV     1   --> B              
     e( 18 - 18) =      7.02982  eV     1   --> B              
     e( 19 - 19) =      7.16579  eV     1   --> A              
     e( 20 - 20) =      7.47753  eV     1   --> B              
     e( 21 - 21) =      8.25646  eV     1   --> A              
     e( 22 - 22) =      8.28665  eV     1   --> B              
     e( 23 - 23) =      9.07139  eV     1   --> A              
     e( 24 - 24) =      9.47171  eV     1   --> A              
     e( 25 - 25) =      9.49200  eV     1   --> B              
     e( 26 - 26) =      9.50681  eV     1   --> B              
     e( 27 - 27) =     11.80481  eV     1   --> A              
     e( 28 - 28) =     12.51587  eV     1   --> B              
     e( 29 - 29) =     12.52289  eV     1   --> A              
     e( 30 - 30) =     12.57137  eV     1   --> A              
     e( 31 - 31) =     12.97995  eV     1   --> B              
     e( 32 - 32) =     13.07648  eV     1   --> B              
     e( 33 - 33) =     14.00662  eV     1   --> A              
     e( 34 - 34) =     14.34857  eV     1   --> B              
     e( 35 - 35) =     18.75858  eV     1   --> A              
     e( 36 - 36) =     19.12191  eV     1   --> B              
     e( 37 - 37) =     19.49151  eV     1   --> A              
     e( 38 - 38) =     19.62975  eV     1   --> B              
     e( 39 - 39) =     19.88170  eV     1   --> B              
     e( 40 - 40) =     20.02930  eV     1   --> A              
     e( 41 - 41) =     20.08863  eV     1   --> A              
     e( 42 - 42) =     20.25426  eV     1   --> A              
     e( 43 - 43) =     21.21466  eV     1   --> B              
     e( 44 - 44) =     21.54811  eV     1   --> B              
     e( 45 - 45) =     22.05310  eV     1   --> A              
     e( 46 - 46) =     22.28870  eV     1   --> A              
     e( 47 - 47) =     22.91045  eV     1   --> B              
     e( 48 - 48) =     22.97545  eV     1   --> B              
     e( 49 - 49) =     23.28846  eV     1   --> B              
     e( 50 - 50) =     23.36624  eV     1   --> A              
     e( 51 - 51) =     23.37917  eV     1   --> A              
     e( 52 - 52) =     24.58093  eV     1   --> A              
     e( 53 - 53) =     25.34197  eV     1   --> B              
     e( 54 - 54) =     25.46640  eV     1   --> A              
     e( 55 - 55) =     25.77650  eV     1   --> B              
     e( 56 - 56) =     26.91467  eV     1   --> A              
     e( 57 - 57) =     26.95102  eV     1   --> B              
     e( 58 - 58) =     27.32346  eV     1   --> A              
     e( 59 - 59) =     29.14969  eV     1   --> B              
     e( 60 - 60) =     30.39913  eV     1   --> B              

 **************************************************************************

 **************************************************************************

                    xk=(  -0.15873,   0.27493,   0.00000  )

     Band symmetry, C_2  (2)    point group:

     e(  1 -  2) =    -50.60311  eV     2   --> A              
     e(  1 -  2) =    -50.60311  eV     2   --> B              
     e(  3 -  4) =    -24.77420  eV     2   --> A              
     e(  3 -  4) =    -24.77420  eV     2   --> B              
     e(  5 -  5) =    -24.74267  eV     1   --> A              
     e(  6 -  6) =    -24.74251  eV     1   --> B              
     e(  7 -  8) =    -24.63051  eV     2   --> A              
     e(  7 -  8) =    -24.63051  eV     2   --> B              
     e(  9 -  9) =     -3.04943  eV     1   --> A              
     e( 10 - 10) =     -2.81165  eV     1   --> B              
     e( 11 - 11) =     -2.38057  eV     1   --> A              
     e( 12 - 12) =     -2.07240  eV     1   --> B              
     e( 13 - 13) =      4.88693  eV     1   --> A              
     e( 14 - 14) =      5.57068  eV     1   --> B              
     e( 15 - 15) =      6.27843  eV     1   --> A              
     e( 16 - 16) =      6.32270  eV     1   --> A              
     e( 17 - 17) =      6.51811  eV     1   --> B              
     e( 18 - 18) =      6.75975  eV     1   --> B              
     e( 19 - 19) =      6.89664  eV     1   --> A              
     e( 20 - 20) =      7.34867  eV     1   --> B              
     e( 21 - 21) =      8.26420  eV     1   --> A              
     e( 22 - 22) =      8.28537  eV     1   --> B              
     e( 23 - 23) =      9.07214  eV     1   --> A              
     e( 24 - 24) =      9.35012  eV     1   --> B              
     e( 25 - 25) =      9.39826  eV     1   --> B              
     e( 26 - 26) =      9.41210  eV     1   --> A              
     e( 27 - 27) =     11.72080  eV     1   --> A              
     e( 28 - 28) =     12.46527  eV     1   --> B              
     e( 29 - 29) =     12.52987  eV     1   --> A              
     e( 30 - 30) =     12.60636  eV     1   --> A              
     e( 31 - 31) =     12.99214  eV     1   --> B              
     e( 32 - 32) =     13.17611  eV     1   --> B              
     e( 33 - 33) =     14.11886  eV     1   --> A              
     e( 34 - 34) =     14.54606  eV     1   --> B              
     e( 35 - 35) =     18.82605  eV     1   --> A              
     e( 36 - 36) =     18.94346  eV     1   --> B              
     e( 37 - 37) =     19.40711  eV     1   --> A              
     e( 38 - 38) =     19.49987  eV     1   --> B              
     e( 39 - 39) =     19.85391  eV     1   --> A              
     e( 40 - 40) =     20.10981  eV     1   --> A              
     e( 41 - 41) =     20.17033  eV     1   --> B              
     e( 42 - 42) =     20.23002  eV     1   --> A              
     e( 43 - 43) =     21.22823  eV     1   --> B              
     e( 44 - 44) =     21.68065  eV     1   --> B              
     e( 45 - 45) =     21.79121  eV     1   --> A              
     e( 46 - 46) =     22.53394  eV     1   --> A              
     e( 47 - 47) =     22.57527  eV     1   --> B              
     e( 48 - 48) =     22.78388  eV     1   --> B              
     e( 49 - 49) =     23.19226  eV     1   --> A              
     e( 50 - 50) =     23.32837  eV     1   --> B              
     e( 51 - 51) =     23.58342  eV     1   --> A              
     e( 52 - 52) =     25.01867  eV     1   --> A              
     e( 53 - 53) =     25.55558  eV     1   --> A              
     e( 54 - 54) =     25.63324  eV     1   --> B              
     e( 55 - 55) =     25.81709  eV     1   --> B              
     e( 56 - 56) =     27.01105  eV     1   --> A              
     e( 57 - 57) =     27.17947  eV     1   --> B              
     e( 58 - 58) =     27.65950  eV     1   --> A              
     e( 59 - 59) =     29.72133  eV     1   --> B              
     e( 60 - 60) =     30.29628  eV     1   --> A              

 **************************************************************************

 **************************************************************************

                    xk=(  -0.17460,   0.30242,   0.00000  )

     Band symmetry, C_2  (2)    point group:

     e(  1 -  2) =    -50.59971  eV     2   --> A              
     e(  1 -  2) =    -50.59971  eV     2   --> B              
     e(  3 -  4) =    -24.80094  eV     2   --> A              
     e(  3 -  4) =    -24.80094  eV     2   --> B              
     e(  5 -  5) =    -24.73596  eV     1   --> A              
     e(  6 -  6) =    -24.73578  eV     1   --> B              
     e(  7 -  8) =    -24.64466  eV     2   --> A              
     e(  7 -  8) =    -24.64466  eV     2   --> B              
     e(  9 -  9) =     -2.87595  eV     1   --> A              
     e( 10 - 10) =     -2.64971  eV     1   --> B              
     e( 11 - 11) =     -2.29628  eV     1   --> A              
     e( 12 - 12) =     -2.01448  eV     1   --> B              
     e( 13 - 13) =      4.92312  eV     1   --> A              
     e( 14 - 14) =      5.46893  eV     1   --> B              
     e( 15 - 15) =      6.15544  eV     1   --> A              
     e( 16 - 16) =      6.29619  eV     1   --> A              
     e( 17 - 17) =      6.48021  eV     1   --> B              
     e( 18 - 18) =      6.56869  eV     1   --> B              
     e( 19 - 19) =      6.66788  eV     1   --> A              
     e( 20 - 20) =      7.25884  eV     1   --> B              
     e( 21 - 21) =      8.19782  eV     1   --> A              
     e( 22 - 22) =      8.21023  eV     1   --> B              
     e( 23 - 23) =      9.05573  eV     1   --> A              
     e( 24 - 24) =      9.19384  eV     1   --> B              
     e( 25 - 25) =      9.36211  eV     1   --> B              
     e( 26 - 26) =      9.38339  eV     1   --> A              
     e( 27 - 27) =     11.68453  eV     1   --> A              
     e( 28 - 28) =     12.46725  eV     1   --> B              
     e( 29 - 29) =     12.57178  eV     1   --> A              
     e( 30 - 30) =     12.65574  eV     1   --> A              
     e( 31 - 31) =     12.99109  eV     1   --> B              
     e( 32 - 32) =     13.28101  eV     1   --> B              
     e( 33 - 33) =     14.20395  eV     1   --> A              
     e( 34 - 34) =     14.71969  eV     1   --> B              
     e( 35 - 35) =     18.66213  eV     1   --> B              
     e( 36 - 36) =     18.79743  eV     1   --> A              
     e( 37 - 37) =     19.24013  eV     1   --> A              
     e( 38 - 38) =     19.41229  eV     1   --> B              
     e( 39 - 39) =     19.72312  eV     1   --> A              
     e( 40 - 40) =     20.01251  eV     1   --> A              
     e( 41 - 41) =     20.42801  eV     1   --> A              
     e( 42 - 42) =     20.47705  eV     1   --> B              
     e( 43 - 43) =     21.30997  eV     1   --> B              
     e( 44 - 44) =     21.52284  eV     1   --> A              
     e( 45 - 45) =     21.77301  eV     1   --> B              
     e( 46 - 46) =     22.17390  eV     1   --> B              
     e( 47 - 47) =     22.62692  eV     1   --> B              
     e( 48 - 48) =     22.74845  eV     1   --> A              
     e( 49 - 49) =     23.09270  eV     1   --> A              
     e( 50 - 50) =     23.33747  eV     1   --> B              
     e( 51 - 51) =     23.77419  eV     1   --> A              
     e( 52 - 52) =     25.50479  eV     1   --> A              
     e( 53 - 53) =     25.57339  eV     1   --> A              
     e( 54 - 54) =     25.90351  eV     1   --> B              
     e( 55 - 55) =     26.02647  eV     1   --> B              
     e( 56 - 56) =     27.13425  eV     1   --> A              
     e( 57 - 57) =     27.44186  eV     1   --> B              
     e( 58 - 58) =     28.12611  eV     1   --> A              
     e( 59 - 59) =     29.90543  eV     1   --> A              
     e( 60 - 60) =     30.28239  eV     1   --> B              

 **************************************************************************

 **************************************************************************

                    xk=(  -0.19047,   0.32992,   0.00000  )

     Band symmetry, C_2  (2)    point group:

     e(  1 -  2) =    -50.59644  eV     2   --> A              
     e(  1 -  2) =    -50.59644  eV     2   --> B              
     e(  3 -  4) =    -24.82482  eV     2   --> A              
     e(  3 -  4) =    -24.82482  eV     2   --> B              
     e(  5 -  5) =    -24.72947  eV     1   --> A              
     e(  6 -  6) =    -24.72933  eV     1   --> B              
     e(  7 -  8) =    -24.65990  eV     2   --> A              
     e(  7 -  8) =    -24.65990  eV     2   --> B              
     e(  9 -  9) =     -2.70126  eV     1   --> A              
     e( 10 - 10) =     -2.48910  eV     1   --> B              
     e( 11 - 11) =     -2.21094  eV     1   --> A              
     e( 12 - 12) =     -1.95704  eV     1   --> B              
     e( 13 - 13) =      4.92444  eV     1   --> A              
     e( 14 - 14) =      5.36082  eV     1   --> B              
     e( 15 - 15) =      5.98791  eV     1   --> A              
     e( 16 - 16) =      6.20364  eV     1   --> B              
     e( 17 - 17) =      6.32060  eV     1   --> A              
     e( 18 - 18) =      6.51789  eV     1   --> A              
     e( 19 - 19) =      6.62284  eV     1   --> B              
     e( 20 - 20) =      7.20313  eV     1   --> B              
     e( 21 - 21) =      8.05903  eV     1   --> A              
     e( 22 - 22) =      8.07986  eV     1   --> B              
     e( 23 - 23) =      9.02103  eV     1   --> A              
     e( 24 - 24) =      9.02618  eV     1   --> B              
     e( 25 - 25) =      9.38188  eV     1   --> B              
     e( 26 - 26) =      9.38814  eV     1   --> A              
     e( 27 - 27) =     11.70136  eV     1   --> A              
     e( 28 - 28) =     12.52992  eV     1   --> B              
     e( 29 - 29) =     12.63747  eV     1   --> A              
     e( 30 - 30) =     12.71217  eV     1   --> A              
     e( 31 - 31) =     12.96834  eV     1   --> B              
     e( 32 - 32) =     13.38529  eV     1   --> B              
     e( 33 - 33) =     14.26378  eV     1   --> A              
     e( 34 - 34) =     14.86460  eV     1   --> B              
     e( 35 - 35) =     18.36666  eV     1   --> B              
     e( 36 - 36) =     18.65464  eV     1   --> A              
     e( 37 - 37) =     19.07009  eV     1   --> A              
     e( 38 - 38) =     19.37240  eV     1   --> B              
     e( 39 - 39) =     19.64645  eV     1   --> A              
     e( 40 - 40) =     19.96717  eV     1   --> A              
     e( 41 - 41) =     20.55620  eV     1   --> A              
     e( 42 - 42) =     20.62648  eV     1   --> B              
     e( 43 - 43) =     21.35699  eV     1   --> A              
     e( 44 - 44) =     21.45278  eV     1   --> B              
     e( 45 - 45) =     21.82085  eV     1   --> B              
     e( 46 - 46) =     21.91640  eV     1   --> B              
     e( 47 - 47) =     22.52713  eV     1   --> B              
     e( 48 - 48) =     22.93522  eV     1   --> A              
     e( 49 - 49) =     23.08173  eV     1   --> A              
     e( 50 - 50) =     23.23943  eV     1   --> B              
     e( 51 - 51) =     23.90098  eV     1   --> A              
     e( 52 - 52) =     25.54826  eV     1   --> A              
     e( 53 - 53) =     25.98072  eV     1   --> A              
     e( 54 - 54) =     26.10715  eV     1   --> B              
     e( 55 - 55) =     26.37664  eV     1   --> B              
     e( 56 - 56) =     27.27954  eV     1   --> A              
     e( 57 - 57) =     27.72110  eV     1   --> B              
     e( 58 - 58) =     28.70284  eV     1   --> A              
     e( 59 - 59) =     29.52705  eV     1   --> A              
     e( 60 - 60) =     30.77492  eV     1   --> B              

 **************************************************************************

 **************************************************************************

                    xk=(  -0.20635,   0.35741,   0.00000  )

     Band symmetry, C_2  (2)    point group:

     e(  1 -  2) =    -50.59339  eV     2   --> A              
     e(  1 -  2) =    -50.59339  eV     2   --> B              
     e(  3 -  4) =    -24.84494  eV     2   --> A              
     e(  3 -  4) =    -24.84494  eV     2   --> B              
     e(  5 -  5) =    -24.72341  eV     1   --> A              
     e(  6 -  6) =    -24.72329  eV     1   --> B              
     e(  7 -  8) =    -24.67625  eV     2   --> A              
     e(  7 -  8) =    -24.67625  eV     2   --> B              
     e(  9 -  9) =     -2.52968  eV     1   --> A              
     e( 10 - 10) =     -2.33435  eV     1   --> B              
     e( 11 - 11) =     -2.12640  eV     1   --> A              
     e( 12 - 12) =     -1.90160  eV     1   --> B              
     e( 13 - 13) =      4.90719  eV     1   --> A              
     e( 14 - 14) =      5.26678  eV     1   --> B              
     e( 15 - 15) =      5.77618  eV     1   --> A              
     e( 16 - 16) =      5.93949  eV     1   --> B              
     e( 17 - 17) =      6.37825  eV     1   --> A              
     e( 18 - 18) =      6.45343  eV     1   --> A              
     e( 19 - 19) =      6.65666  eV     1   --> B              
     e( 20 - 20) =      7.17759  eV     1   --> B              
     e( 21 - 21) =      7.86536  eV     1   --> A              
     e( 22 - 22) =      7.92160  eV     1   --> B              
     e( 23 - 23) =      8.85068  eV     1   --> B              
     e( 24 - 24) =      8.96784  eV     1   --> A              
     e( 25 - 25) =      9.41847  eV     1   --> A              
     e( 26 - 26) =      9.43620  eV     1   --> B              
     e( 27 - 27) =     11.76897  eV     1   --> A              
     e( 28 - 28) =     12.65223  eV     1   --> B              
     e( 29 - 29) =     12.71405  eV     1   --> A              
     e( 30 - 30) =     12.76636  eV     1   --> A              
     e( 31 - 31) =     12.91639  eV     1   --> B              
     e( 32 - 32) =     13.48283  eV     1   --> B              
     e( 33 - 33) =     14.30647  eV     1   --> A              
     e( 34 - 34) =     14.97929  eV     1   --> B              
     e( 35 - 35) =     18.08624  eV     1   --> B              
     e( 36 - 36) =     18.41360  eV     1   --> A              
     e( 37 - 37) =     18.89779  eV     1   --> A              
     e( 38 - 38) =     19.38048  eV     1   --> B              
     e( 39 - 39) =     19.62142  eV     1   --> A              
     e( 40 - 40) =     19.98128  eV     1   --> A              
     e( 41 - 41) =     20.51901  eV     1   --> B              
     e( 42 - 42) =     20.57888  eV     1   --> A              
     e( 43 - 43) =     21.35921  eV     1   --> A              
     e( 44 - 44) =     21.55815  eV     1   --> B              
     e( 45 - 45) =     21.82174  eV     1   --> B              
     e( 46 - 46) =     21.98881  eV     1   --> B              
     e( 47 - 47) =     22.50122  eV     1   --> B              
     e( 48 - 48) =     23.08655  eV     1   --> B              
     e( 49 - 49) =     23.09625  eV     1   --> A              
     e( 50 - 50) =     23.14313  eV     1   --> A              
     e( 51 - 51) =     23.91434  eV     1   --> A              
     e( 52 - 52) =     25.53960  eV     1   --> A              
     e( 53 - 53) =     26.23369  eV     1   --> B              
     e( 54 - 54) =     26.37954  eV     1   --> A              
     e( 55 - 55) =     26.80358  eV     1   --> B              
     e( 56 - 56) =     27.43741  eV     1   --> A              
     e( 57 - 57) =     27.95338  eV     1   --> B              
     e( 58 - 58) =     29.25371  eV     1   --> A              
     e( 59 - 59) =     29.35350  eV     1   --> A              
     e( 60 - 60) =     31.05814  eV     1   --> B              

 **************************************************************************

 **************************************************************************

                    xk=(  -0.22222,   0.38490,   0.00000  )

     Band symmetry, C_2  (2)    point group:

     e(  1 -  2) =    -50.59062  eV     2   --> A              
     e(  1 -  2) =    -50.59062  eV     2   --> B              
     e(  3 -  4) =    -24.86074  eV     2   --> A              
     e(  3 -  4) =    -24.86074  eV     2   --> B              
     e(  5 -  6) =    -24.71789  eV     2   --> A              
     e(  5 -  6) =    -24.71789  eV     2   --> B              
     e(  7 -  8) =    -24.69351  eV     2   --> A              
     e(  7 -  8) =    -24.69351  eV     2   --> B              
     e(  9 -  9) =     -2.36579  eV     1   --> A              
     e( 10 - 10) =     -2.19007  eV     1   --> B              
     e( 11 - 11) =     -2.04463  eV     1   --> A              
     e( 12 - 12) =     -1.84978  eV     1   --> B              
     e( 13 - 13) =      4.89098  eV     1   --> A              
     e( 14 - 14) =      5.19900  eV     1   --> B              
     e( 15 - 15) =      5.55141  eV     1   --> A              
     e( 16 - 16) =      5.69495  eV     1   --> B              
     e( 17 - 17) =      6.44740  eV     1   --> A              
     e( 18 - 18) =      6.45024  eV     1   --> A              
     e( 19 - 19) =      6.65835  eV     1   --> B              
     e( 20 - 20) =      7.17823  eV     1   --> B              
     e( 21 - 21) =      7.63565  eV     1   --> A              
     e( 22 - 22) =      7.75248  eV     1   --> B              
     e( 23 - 23) =      8.67180  eV     1   --> B              
     e( 24 - 24) =      8.89702  eV     1   --> A              
     e( 25 - 25) =      9.46943  eV     1   --> A              
     e( 26 - 26) =      9.51550  eV     1   --> B              
     e( 27 - 27) =     11.87316  eV     1   --> A              
     e( 28 - 28) =     12.79218  eV     1   --> A              
     e( 29 - 29) =     12.80775  eV     1   --> A              
     e( 30 - 30) =     12.81398  eV     1   --> B              
     e( 31 - 31) =     12.83903  eV     1   --> B              
     e( 32 - 32) =     13.56762  eV     1   --> B              
     e( 33 - 33) =     14.34540  eV     1   --> A              
     e( 34 - 34) =     15.06537  eV     1   --> B              
     e( 35 - 35) =     17.83835  eV     1   --> B              
     e( 36 - 36) =     18.12146  eV     1   --> A              
     e( 37 - 37) =     18.70114  eV     1   --> A              
     e( 38 - 38) =     19.43317  eV     1   --> B              
     e( 39 - 39) =     19.64167  eV     1   --> A              
     e( 40 - 40) =     20.05841  eV     1   --> A              
     e( 41 - 41) =     20.24008  eV     1   --> B              
     e( 42 - 42) =     20.59023  eV     1   --> A              
     e( 43 - 43) =     21.45416  eV     1   --> A              
     e( 44 - 44) =     21.66377  eV     1   --> B              
     e( 45 - 45) =     21.78658  eV     1   --> B              
     e( 46 - 46) =     22.22469  eV     1   --> B              
     e( 47 - 47) =     22.54853  eV     1   --> B              
     e( 48 - 48) =     22.96432  eV     1   --> B              
     e( 49 - 49) =     23.22949  eV     1   --> A              
     e( 50 - 50) =     23.25659  eV     1   --> A              
     e( 51 - 51) =     23.78640  eV     1   --> A              
     e( 52 - 52) =     25.58866  eV     1   --> A              
     e( 53 - 53) =     26.29693  eV     1   --> B              
     e( 54 - 54) =     26.61932  eV     1   --> A              
     e( 55 - 55) =     27.24405  eV     1   --> B              
     e( 56 - 56) =     27.58569  eV     1   --> A              
     e( 57 - 57) =     28.04700  eV     1   --> B              
     e( 58 - 58) =     29.18237  eV     1   --> A              
     e( 59 - 59) =     30.03306  eV     1   --> A              
     e( 60 - 60) =     31.05867  eV     1   --> B              

 **************************************************************************

 **************************************************************************

                    xk=(  -0.23809,   0.41239,   0.00000  )

     Band symmetry, C_2  (2)    point group:

     e(  1 -  2) =    -50.58818  eV     2   --> A              
     e(  1 -  2) =    -50.58818  eV     2   --> B              
     e(  3 -  4) =    -24.87185  eV     2   --> A              
     e(  3 -  4) =    -24.87185  eV     2   --> B              
     e(  5 -  6) =    -24.71307  eV     2   --> A              
     e(  5 -  6) =    -24.71307  eV     2   --> B              
     e(  7 -  8) =    -24.71162  eV     2   --> A              
     e(  7 -  8) =    -24.71162  eV     2   --> B              
     e(  9 -  9) =     -2.21424  eV     1   --> A              
     e( 10 - 10) =     -2.06078  eV     1   --> B              
     e( 11 - 11) =     -1.96766  eV     1   --> A              
     e( 12 - 12) =     -1.80318  eV     1   --> B              
     e( 13 - 13) =      4.89223  eV     1   --> A              
     e( 14 - 14) =      5.16503  eV     1   --> B              
     e( 15 - 15) =      5.33697  eV     1   --> A              
     e( 16 - 16) =      5.47566  eV     1   --> B              
     e( 17 - 17) =      6.48414  eV     1   --> A              
     e( 18 - 18) =      6.51721  eV     1   --> A              
     e( 19 - 19) =      6.62639  eV     1   --> B              
     e( 20 - 20) =      7.19985  eV     1   --> B              
     e( 21 - 21) =      7.38389  eV     1   --> A              
     e( 22 - 22) =      7.57901  eV     1   --> B              
     e( 23 - 23) =      8.49553  eV     1   --> B              
     e( 24 - 24) =      8.81046  eV     1   --> A              
     e( 25 - 25) =      9.54134  eV     1   --> A              
     e( 26 - 26) =      9.61782  eV     1   --> B              
     e( 27 - 27) =     11.98623  eV     1   --> A              
     e( 28 - 28) =     12.70588  eV     1   --> B              
     e( 29 - 29) =     12.82678  eV     1   --> A              
     e( 30 - 30) =     12.87267  eV     1   --> A              
     e( 31 - 31) =     13.02477  eV     1   --> B              
     e( 32 - 32) =     13.63440  eV     1   --> B              
     e( 33 - 33) =     14.39544  eV     1   --> A              
     e( 34 - 34) =     15.12658  eV     1   --> B              
     e( 35 - 35) =     17.63760  eV     1   --> B              
     e( 36 - 36) =     17.80852  eV     1   --> A              
     e( 37 - 37) =     18.49816  eV     1   --> A              
     e( 38 - 38) =     19.52405  eV     1   --> B              
     e( 39 - 39) =     19.70154  eV     1   --> A              
     e( 40 - 40) =     19.91781  eV     1   --> B              
     e( 41 - 41) =     20.19549  eV     1   --> A              
     e( 42 - 42) =     20.65464  eV     1   --> A              
     e( 43 - 43) =     21.56957  eV     1   --> A              
     e( 44 - 44) =     21.73901  eV     1   --> B              
     e( 45 - 45) =     21.79581  eV     1   --> B              
     e( 46 - 46) =     22.34779  eV     1   --> B              
     e( 47 - 47) =     22.65186  eV     1   --> B              
     e( 48 - 48) =     23.01975  eV     1   --> B              
     e( 49 - 49) =     23.30897  eV     1   --> A              
     e( 50 - 50) =     23.39688  eV     1   --> A              
     e( 51 - 51) =     23.56045  eV     1   --> A              
     e( 52 - 52) =     25.68278  eV     1   --> A              
     e( 53 - 53) =     26.31502  eV     1   --> B              
     e( 54 - 54) =     26.65104  eV     1   --> A              
     e( 55 - 55) =     27.64780  eV     1   --> B              
     e( 56 - 56) =     27.72304  eV     1   --> A              
     e( 57 - 57) =     27.94260  eV     1   --> B              
     e( 58 - 58) =     29.33047  eV     1   --> A              
     e( 59 - 59) =     30.64128  eV     1   --> A              
     e( 60 - 60) =     30.87331  eV     1   --> B              

 **************************************************************************

 **************************************************************************

                    xk=(  -0.25397,   0.43989,   0.00000  )

     Band symmetry, C_2  (2)    point group:

     e(  1 -  2) =    -50.58612  eV     2   --> A              
     e(  1 -  2) =    -50.58612  eV     2   --> B              
     e(  3 -  4) =    -24.87788  eV     2   --> A              
     e(  3 -  4) =    -24.87788  eV     2   --> B              
     e(  5 -  5) =    -24.73027  eV     1   --> A              
     e(  6 -  6) =    -24.73013  eV     1   --> B              
     e(  7 -  7) =    -24.70900  eV     1   --> A              
     e(  8 -  8) =    -24.70889  eV     1   --> B              
     e(  9 -  9) =     -2.07942  eV     1   --> A              
     e( 10 - 10) =     -1.95045  eV     1   --> B              
     e( 11 - 11) =     -1.89745  eV     1   --> A              
     e( 12 - 12) =     -1.76333  eV     1   --> B              
     e( 13 - 13) =      4.92273  eV     1   --> A              
     e( 14 - 14) =      5.14515  eV     1   --> A              
     e( 15 - 15) =      5.16917  eV     1   --> B              
     e( 16 - 16) =      5.28604  eV     1   --> B              
     e( 17 - 17) =      6.54955  eV     1   --> A              
     e( 18 - 18) =      6.56672  eV     1   --> B              
     e( 19 - 19) =      6.57444  eV     1   --> A              
     e( 20 - 20) =      7.11983  eV     1   --> A              
     e( 21 - 21) =      7.23441  eV     1   --> B              
     e( 22 - 22) =      7.40306  eV     1   --> B              
     e( 23 - 23) =      8.33052  eV     1   --> B              
     e( 24 - 24) =      8.71097  eV     1   --> A              
     e( 25 - 25) =      9.63456  eV     1   --> A              
     e( 26 - 26) =      9.74051  eV     1   --> B              
     e( 27 - 27) =     12.06940  eV     1   --> A              
     e( 28 - 28) =     12.55225  eV     1   --> B              
     e( 29 - 29) =     12.81883  eV     1   --> A              
     e( 30 - 30) =     12.97097  eV     1   --> A              
     e( 31 - 31) =     13.22953  eV     1   --> B              
     e( 32 - 32) =     13.67985  eV     1   --> B              
     e( 33 - 33) =     14.46745  eV     1   --> A              
     e( 34 - 34) =     15.16681  eV     1   --> B              
     e( 35 - 35) =     17.49535  eV     1   --> A              
     e( 36 - 36) =     17.49798  eV     1   --> B              
     e( 37 - 37) =     18.31713  eV     1   --> A              
     e( 38 - 38) =     19.60438  eV     1   --> B              
     e( 39 - 39) =     19.64418  eV     1   --> B              
     e( 40 - 40) =     19.79679  eV     1   --> A              
     e( 41 - 41) =     20.38362  eV     1   --> A              
     e( 42 - 42) =     20.77317  eV     1   --> A              
     e( 43 - 43) =     21.68808  eV     1   --> A              
     e( 44 - 44) =     21.70178  eV     1   --> B              
     e( 45 - 45) =     21.88059  eV     1   --> B              
     e( 46 - 46) =     22.37565  eV     1   --> B              
     e( 47 - 47) =     22.79133  eV     1   --> B              
     e( 48 - 48) =     23.12211  eV     1   --> A              
     e( 49 - 49) =     23.26369  eV     1   --> B              
     e( 50 - 50) =     23.48600  eV     1   --> A              
     e( 51 - 51) =     23.53730  eV     1   --> A              
     e( 52 - 52) =     25.78080  eV     1   --> A              
     e( 53 - 53) =     26.30194  eV     1   --> B              
     e( 54 - 54) =     26.52514  eV     1   --> A              
     e( 55 - 55) =     27.65680  eV     1   --> B              
     e( 56 - 56) =     27.87813  eV     1   --> A              
     e( 57 - 57) =     27.98273  eV     1   --> B              
     e( 58 - 58) =     29.54243  eV     1   --> A              
     e( 59 - 59) =     30.52355  eV     1   --> B              
     e( 60 - 60) =     30.83490  eV     1   --> B              

 **************************************************************************

 **************************************************************************

                    xk=(  -0.26984,   0.46738,   0.00000  )

     Band symmetry, C_2  (2)    point group:

     e(  1 -  2) =    -50.58445  eV     2   --> A              
     e(  1 -  2) =    -50.58445  eV     2   --> B              
     e(  3 -  4) =    -24.87903  eV     2   --> A              
     e(  3 -  4) =    -24.87903  eV     2   --> B              
     e(  5 -  5) =    -24.74923  eV     1   --> A              
     e(  6 -  6) =    -24.74910  eV     1   --> B              
     e(  7 -  8) =    -24.70567  eV     2   --> A              
     e(  7 -  8) =    -24.70567  eV     2   --> B              
     e(  9 -  9) =     -1.96502  eV     1   --> A              
     e( 10 - 10) =     -1.86215  eV     1   --> B              
     e( 11 - 11) =     -1.83587  eV     1   --> A              
     e( 12 - 12) =     -1.73159  eV     1   --> B              
     e( 13 - 13) =      4.98290  eV     1   --> A              
     e( 14 - 14) =      4.99003  eV     1   --> A              
     e( 15 - 15) =      5.12941  eV     1   --> B              
     e( 16 - 16) =      5.21237  eV     1   --> B              
     e( 17 - 17) =      6.48877  eV     1   --> B              
     e( 18 - 18) =      6.61766  eV     1   --> A              
     e( 19 - 19) =      6.63851  eV     1   --> A              
     e( 20 - 20) =      6.85080  eV     1   --> A              
     e( 21 - 21) =      7.22661  eV     1   --> B              
     e( 22 - 22) =      7.26881  eV     1   --> B              
     e( 23 - 23) =      8.19021  eV     1   --> B              
     e( 24 - 24) =      8.60216  eV     1   --> A              
     e( 25 - 25) =      9.74488  eV     1   --> A              
     e( 26 - 26) =      9.87604  eV     1   --> B              
     e( 27 - 27) =     12.09006  eV     1   --> A              
     e( 28 - 28) =     12.37846  eV     1   --> B              
     e( 29 - 29) =     12.78674  eV     1   --> A              
     e( 30 - 30) =     13.10500  eV     1   --> A              
     e( 31 - 31) =     13.41343  eV     1   --> B              
     e( 32 - 32) =     13.70364  eV     1   --> B              
     e( 33 - 33) =     14.56417  eV     1   --> A              
     e( 34 - 34) =     15.18800  eV     1   --> B              
     e( 35 - 35) =     17.20089  eV     1   --> A              
     e( 36 - 36) =     17.43283  eV     1   --> B              
     e( 37 - 37) =     18.17110  eV     1   --> A              
     e( 38 - 38) =     19.31207  eV     1   --> B              
     e( 39 - 39) =     19.78193  eV     1   --> B              
     e( 40 - 40) =     19.92262  eV     1   --> A              
     e( 41 - 41) =     20.60986  eV     1   --> A              
     e( 42 - 42) =     20.93108  eV     1   --> A              
     e( 43 - 43) =     21.69252  eV     1   --> B              
     e( 44 - 44) =     21.81027  eV     1   --> A              
     e( 45 - 45) =     21.84580  eV     1   --> B              
     e( 46 - 46) =     22.51135  eV     1   --> B              
     e( 47 - 47) =     22.75001  eV     1   --> A              
     e( 48 - 48) =     22.94659  eV     1   --> B              
     e( 49 - 49) =     23.51247  eV     1   --> A              
     e( 50 - 50) =     23.54211  eV     1   --> B              
     e( 51 - 51) =     23.64819  eV     1   --> A              
     e( 52 - 52) =     25.85001  eV     1   --> A              
     e( 53 - 53) =     26.26659  eV     1   --> B              
     e( 54 - 54) =     26.34298  eV     1   --> A              
     e( 55 - 55) =     27.25876  eV     1   --> B              
     e( 56 - 56) =     28.05347  eV     1   --> A              
     e( 57 - 57) =     28.23946  eV     1   --> B              
     e( 58 - 58) =     29.58051  eV     1   --> A              
     e( 59 - 59) =     30.03808  eV     1   --> B              
     e( 60 - 60) =     30.49502  eV     1   --> B              

 **************************************************************************

 **************************************************************************

                    xk=(  -0.28571,   0.49487,   0.00000  )

     Band symmetry, C_2  (2)    point group:

     e(  1 -  2) =    -50.58318  eV     2   --> A              
     e(  1 -  2) =    -50.58318  eV     2   --> B              
     e(  3 -  4) =    -24.87540  eV     2   --> A              
     e(  3 -  4) =    -24.87540  eV     2   --> B              
     e(  5 -  6) =    -24.76808  eV     2   --> A              
     e(  5 -  6) =    -24.76808  eV     2   --> B              
     e(  7 -  8) =    -24.70313  eV     2   --> A              
     e(  7 -  8) =    -24.70313  eV     2   --> B              
     e(  9 -  9) =     -1.87366  eV     1   --> A              
     e( 10 - 10) =     -1.79762  eV     1   --> B              
     e( 11 - 11) =     -1.78449  eV     1   --> A              
     e( 12 - 12) =     -1.70902  eV     1   --> B              
     e( 13 - 13) =      4.85454  eV     1   --> A              
     e( 14 - 14) =      5.00807  eV     1   --> B              
     e( 15 - 15) =      5.09751  eV     1   --> A              
[...]

 **************************************************************************

                    xk=(  -0.20000,   0.34641,   0.12828  )

     Band symmetry, C_2  (2)    point group:

     e(  1 -  2) =    -50.59458  eV     2   --> A              
     e(  1 -  2) =    -50.59458  eV     2   --> B              
     e(  3 -  4) =    -24.83735  eV     2   --> A              
     e(  3 -  4) =    -24.83735  eV     2   --> B              
     e(  5 -  6) =    -24.72567  eV     2   --> A              
     e(  5 -  6) =    -24.72567  eV     2   --> B              
     e(  7 -  8) =    -24.66954  eV     2   --> A              
     e(  7 -  8) =    -24.66954  eV     2   --> B              
     e(  9 -  9) =     -2.52135  eV     1   --> B              
     e( 10 - 10) =     -2.52073  eV     1   --> A              
     e( 11 - 11) =     -2.01892  eV     1   --> B              
     e( 12 - 12) =     -2.01556  eV     1   --> A              
     e( 13 - 13) =      5.09049  eV     1   --> B              
     e( 14 - 14) =      5.09276  eV     1   --> A              
     e( 15 - 15) =      5.94573  eV     1   --> B              
     e( 16 - 16) =      5.94763  eV     1   --> A              
     e( 17 - 17) =      6.33129  eV     1   --> B              
     e( 18 - 18) =      6.33150  eV     1   --> A              
     e( 19 - 19) =      7.05670  eV     1   --> B              
     e( 20 - 20) =      7.06136  eV     1   --> A              
     e( 21 - 21) =      7.94514  eV     1   --> B              
     e( 22 - 22) =      7.94600  eV     1   --> A              
     e( 23 - 23) =      8.91354  eV     1   --> A              
     e( 24 - 24) =      8.91600  eV     1   --> B              
     e( 25 - 25) =      9.41241  eV     1   --> A              
     e( 26 - 26) =      9.41263  eV     1   --> B              
     e( 27 - 27) =     12.09018  eV     1   --> B              
     e( 28 - 28) =     12.09208  eV     1   --> A              
     e( 29 - 29) =     12.74572  eV     1   --> B              
     e( 30 - 30) =     12.74616  eV     1   --> A              
     e( 31 - 31) =     13.23806  eV     1   --> B              
     e( 32 - 32) =     13.24296  eV     1   --> A              
     e( 33 - 33) =     14.61085  eV     1   --> B              
     e( 34 - 34) =     14.61402  eV     1   --> A              
     e( 35 - 35) =     18.30184  eV     1   --> A              
     e( 36 - 36) =     18.30241  eV     1   --> B              
     e( 37 - 37) =     19.30609  eV     1   --> A              
     e( 38 - 38) =     19.32282  eV     1   --> B              
     e( 39 - 39) =     20.09285  eV     1   --> B              
     e( 40 - 40) =     20.09602  eV     1   --> A              
     e( 41 - 41) =     20.33230  eV     1   -->   ?
     e( 42 - 42) =     20.33245  eV     1   -->   ?
     e( 43 - 43) =     20.95163  eV     1   --> B              
     e( 44 - 44) =     20.95325  eV     1   --> A              
     e( 45 - 45) =     22.01221  eV     1   --> A              
     e( 46 - 46) =     22.01279  eV     1   --> B              
     e( 47 - 48) =     22.53439  eV     2   --> A              
     e( 47 - 48) =     22.53439  eV     2   --> B              
     e( 49 - 49) =     23.89532  eV     1   --> A              
     e( 50 - 50) =     23.89964  eV     1   --> B              
     e( 51 - 51) =     24.73536  eV     1   --> A              
     e( 52 - 52) =     24.73552  eV     1   --> B              
     e( 53 - 53) =     25.40994  eV     1   --> A              
     e( 54 - 54) =     25.42313  eV     1   --> B              
     e( 55 - 56) =     27.23217  eV     2   --> A              
     e( 55 - 56) =     27.23217  eV     2   --> B              
     e( 57 - 57) =     28.79739  eV     1   --> A              
     e( 58 - 58) =     28.80672  eV     1   --> B              
     e( 59 - 59) =     30.15613  eV     1   --> A              
     e( 60 - 60) =     30.16643  eV     1   --> B              

 **************************************************************************

 **************************************************************************

                    xk=(  -0.23333,   0.40415,   0.12828  )

     Band symmetry, C_2  (2)    point group:

     e(  1 -  2) =    -50.58888  eV     2   --> A              
     e(  1 -  2) =    -50.58888  eV     2   --> B              
     e(  3 -  4) =    -24.86902  eV     2   --> A              
     e(  3 -  4) =    -24.86902  eV     2   --> B              
     e(  5 -  6) =    -24.71437  eV     2   --> A              
     e(  5 -  6) =    -24.71437  eV     2   --> B              
     e(  7 -  8) =    -24.70606  eV     2   --> A              
     e(  7 -  8) =    -24.70606  eV     2   --> B              
     e(  9 - 10) =     -2.20120  eV     2   --> A              
     e(  9 - 10) =     -2.20120  eV     2   --> B              
     e( 11 - 11) =     -1.88164  eV     1   --> B              
     e( 12 - 12) =     -1.87856  eV     1   --> A              
     e( 13 - 13) =      5.01847  eV     1   --> B              
     e( 14 - 14) =      5.01997  eV     1   --> A              
     e( 15 - 15) =      5.47498  eV     1   --> B              
     e( 16 - 16) =      5.47655  eV     1   --> A              
     e( 17 - 17) =      6.36665  eV     1   --> B              
     e( 18 - 18) =      6.36736  eV     1   --> A              
     e( 19 - 19) =      7.07352  eV     1   --> B              
     e( 20 - 20) =      7.07674  eV     1   --> A              
     e( 21 - 21) =      7.52558  eV     1   --> B              
     e( 22 - 22) =      7.52828  eV     1   --> A              
     e( 23 - 23) =      8.65169  eV     1   --> A              
     e( 24 - 24) =      8.65546  eV     1   --> B              
     e( 25 - 25) =      9.55574  eV     1   --> B              
     e( 26 - 26) =      9.55618  eV     1   --> A              
     e( 27 - 27) =     12.27319  eV     1   --> B              
     e( 28 - 28) =     12.27522  eV     1   --> A              
     e( 29 - 29) =     12.83825  eV     1   --> B              
     e( 30 - 30) =     12.83845  eV     1   --> A              
     e( 31 - 31) =     13.35069  eV     1   --> B              
     e( 32 - 32) =     13.35564  eV     1   --> A              
     e( 33 - 33) =     14.73019  eV     1   --> B              
     e( 34 - 34) =     14.73315  eV     1   --> A              
     e( 35 - 35) =     17.91073  eV     1   -->   ?
     e( 36 - 36) =     17.91098  eV     1   -->   ?
     e( 37 - 37) =     19.10805  eV     1   --> A              
     e( 38 - 38) =     19.11861  eV     1   --> B              
     e( 39 - 39) =     19.50651  eV     1   --> B              
     e( 40 - 40) =     19.50902  eV     1   --> A              
     e( 41 - 41) =     20.43728  eV     1   --> A              
     e( 42 - 42) =     20.43935  eV     1   --> B              
     e( 43 - 43) =     21.30796  eV     1   --> B              
     e( 44 - 44) =     21.31006  eV     1   --> A              
     e( 45 - 45) =     22.39350  eV     1   --> B              
     e( 46 - 46) =     22.39529  eV     1   --> A              
     e( 47 - 47) =     22.85836  eV     1   --> B              
     e( 48 - 48) =     22.85954  eV     1   --> A              
     e( 49 - 49) =     23.64383  eV     1   --> A              
     e( 50 - 50) =     23.65147  eV     1   --> B              
     e( 51 - 52) =     24.49636  eV     2   --> A              
     e( 51 - 52) =     24.49636  eV     2   --> B              
     e( 53 - 53) =     25.68773  eV     1   --> A              
     e( 54 - 54) =     25.70159  eV     1   --> B              
     e( 55 - 55) =     28.00687  eV     1   --> B              
     e( 56 - 56) =     28.01085  eV     1   --> A              
     e( 57 - 57) =     29.75311  eV     1   --> A              
     e( 58 - 58) =     29.76456  eV     1   --> B              
     e( 59 - 59) =     29.98188  eV     1   --> A              
     e( 60 - 60) =     29.98924  eV     1   --> B              

 **************************************************************************

 **************************************************************************

                    xk=(  -0.26666,   0.46188,   0.12828  )

     Band symmetry, C_2  (2)    point group:

     e(  1 -  2) =    -50.58475  eV     2   --> A              
     e(  1 -  2) =    -50.58475  eV     2   --> B              
     e(  3 -  4) =    -24.87916  eV     2   --> A              
     e(  3 -  4) =    -24.87916  eV     2   --> B              
     e(  5 -  6) =    -24.74535  eV     2   --> A              
     e(  5 -  6) =    -24.74535  eV     2   --> B              
     e(  7 -  8) =    -24.70622  eV     2   --> A              
     e(  7 -  8) =    -24.70622  eV     2   --> B              
     e(  9 -  9) =     -1.95120  eV     1   --> A              
     e( 10 - 10) =     -1.95042  eV     1   --> B              
     e( 11 - 11) =     -1.77496  eV     1   --> B              
     e( 12 - 12) =     -1.77216  eV     1   --> A              
     e( 13 - 14) =      5.02618  eV     2   --> A              
     e( 13 - 14) =      5.02618  eV     2   --> B              
     e( 15 - 15) =      5.14681  eV     1   --> B              
     e( 16 - 16) =      5.14950  eV     1   --> A              
     e( 17 - 17) =      6.41116  eV     1   --> A              
     e( 18 - 18) =      6.41138  eV     1   --> B              
     e( 19 - 19) =      6.91253  eV     1   --> B              
     e( 20 - 20) =      6.91369  eV     1   --> A              
     e( 21 - 21) =      7.28945  eV     1   --> B              
     e( 22 - 22) =      7.29524  eV     1   --> A              
     e( 23 - 23) =      8.36515  eV     1   --> A              
     e( 24 - 24) =      8.36974  eV     1   --> B              
     e( 25 - 25) =      9.78448  eV     1   --> B              
     e( 26 - 26) =      9.78536  eV     1   --> A              
     e( 27 - 27) =     12.25737  eV     1   --> B              
     e( 28 - 28) =     12.25860  eV     1   --> A              
     e( 29 - 29) =     13.01118  eV     1   --> B              
     e( 30 - 30) =     13.01264  eV     1   --> A              
     e( 31 - 31) =     13.43488  eV     1   --> B              
     e( 32 - 32) =     13.43901  eV     1   --> A              
     e( 33 - 33) =     14.84065  eV     1   --> B              
     e( 34 - 34) =     14.84277  eV     1   --> A              
     e( 35 - 35) =     17.57941  eV     1   --> B              
     e( 36 - 36) =     17.58027  eV     1   --> A              
     e( 37 - 37) =     18.70001  eV     1   --> B              
     e( 38 - 38) =     18.70150  eV     1   --> A              
     e( 39 - 39) =     19.36389  eV     1   --> A              
     e( 40 - 40) =     19.37004  eV     1   --> B              
     e( 41 - 41) =     20.84012  eV     1   --> A              
     e( 42 - 42) =     20.84199  eV     1   --> B              
     e( 43 - 43) =     21.76712  eV     1   --> B              
     e( 44 - 44) =     21.76924  eV     1   --> A              
     e( 45 - 45) =     22.45962  eV     1   --> B              
     e( 46 - 46) =     22.46088  eV     1   --> A              
     e( 47 - 47) =     23.15275  eV     1   --> B              
     e( 48 - 48) =     23.15295  eV     1   --> A              
     e( 49 - 49) =     23.47528  eV     1   --> A              
     e( 50 - 50) =     23.48373  eV     1   --> B              
     e( 51 - 51) =     24.27824  eV     1   --> B              
     e( 52 - 52) =     24.27992  eV     1   --> A              
     e( 53 - 53) =     25.76845  eV     1   --> A              
     e( 54 - 54) =     25.77651  eV     1   --> B              
     e( 55 - 55) =     28.36318  eV     1   --> B              
     e( 56 - 56) =     28.37278  eV     1   --> A              
     e( 57 - 57) =     29.66181  eV     1   --> A              
     e( 58 - 58) =     29.66954  eV     1   --> B              
     e( 59 - 59) =     29.85517  eV     1   --> A              
     e( 60 - 60) =     29.85790  eV     1   --> B              

 **************************************************************************

 **************************************************************************

                    xk=(  -0.30000,   0.51962,   0.12828  )

     Band symmetry, C_2  (2)    point group:

     e(  1 -  2) =    -50.58238  eV     2   --> A              
     e(  1 -  2) =    -50.58238  eV     2   --> B              
     e(  3 -  4) =    -24.86865  eV     2   --> A              
     e(  3 -  4) =    -24.86865  eV     2   --> B              
     e(  5 -  6) =    -24.78447  eV     2   --> A              
     e(  5 -  6) =    -24.78447  eV     2   --> B              
     e(  7 -  8) =    -24.70155  eV     2   --> A              
     e(  7 -  8) =    -24.70155  eV     2   --> B              
     e(  9 -  9) =     -1.79583  eV     1   --> A              
     e( 10 - 10) =     -1.79448  eV     1   --> B              
     e( 11 - 11) =     -1.71460  eV     1   --> B              
     e( 12 - 12) =     -1.71229  eV     1   --> A              
     e( 13 - 13) =      4.83934  eV     1   --> B              
     e( 14 - 14) =      4.84032  eV     1   --> A              
     e( 15 - 15) =      5.32649  eV     1   --> B              
     e( 16 - 16) =      5.32786  eV     1   --> A              
     e( 17 - 17) =      6.32935  eV     1   --> A              
     e( 18 - 18) =      6.32997  eV     1   --> B              
     e( 19 - 19) =      6.56454  eV     1   --> B              
     e( 20 - 20) =      6.56675  eV     1   --> A              
     e( 21 - 21) =      7.37438  eV     1   --> B              
     e( 22 - 22) =      7.37879  eV     1   --> A              
     e( 23 - 23) =      8.10759  eV     1   --> A              
     e( 24 - 24) =      8.11171  eV     1   --> B              
     e( 25 - 25) =     10.03137  eV     1   --> B              
     e( 26 - 26) =     10.03244  eV     1   --> A              
     e( 27 - 27) =     12.02553  eV     1   --> B              
     e( 28 - 28) =     12.02590  eV     1   --> A              
     e( 29 - 29) =     13.11756  eV     1   --> B              
     e( 30 - 30) =     13.12216  eV     1   --> A              
     e( 31 - 31) =     13.58479  eV     1   --> B              
     e( 32 - 32) =     13.58592  eV     1   --> A              
     e( 33 - 33) =     14.94043  eV     1   --> B              
     e( 34 - 34) =     14.94146  eV     1   --> A              
     e( 35 - 35) =     17.43399  eV     1   --> B              
     e( 36 - 36) =     17.43703  eV     1   --> A              
     e( 37 - 37) =     18.28714  eV     1   --> B              
     e( 38 - 38) =     18.28888  eV     1   --> A              
     e( 39 - 39) =     19.51756  eV     1   --> A              
     e( 40 - 40) =     19.52133  eV     1   --> B              
     e( 41 - 41) =     21.38264  eV     1   --> A              
     e( 42 - 42) =     21.38431  eV     1   --> B              
     e( 43 - 43) =     22.08621  eV     1   --> A              
     e( 44 - 44) =     22.08758  eV     1   --> B              
     e( 45 - 45) =     22.45334  eV     1   --> B              
     e( 46 - 46) =     22.45399  eV     1   --> A              
     e( 47 - 47) =     23.06335  eV     1   --> A              
     e( 48 - 48) =     23.06724  eV     1   --> B              
     e( 49 - 49) =     23.43602  eV     1   --> A              
     e( 50 - 50) =     23.43860  eV     1   --> B              
     e( 51 - 51) =     24.26478  eV     1   --> B              
     e( 52 - 52) =     24.27037  eV     1   --> A              
     e( 53 - 53) =     25.67202  eV     1   --> A              
     e( 54 - 54) =     25.67413  eV     1   --> B              
     e( 55 - 55) =     28.24147  eV     1   --> B              
     e( 56 - 56) =     28.25430  eV     1   --> A              
     e( 57 - 57) =     29.14821  eV     1   --> B              
     e( 58 - 58) =     29.14960  eV     1   --> A              
     e( 59 - 59) =     29.37375  eV     1   --> A              
     e( 60 - 60) =     29.38155  eV     1   --> B              

 **************************************************************************

 **************************************************************************

                    xk=(  -0.33333,   0.57735,   0.12828  )

     point group D_3 (32)   
     there are  3 classes
     the character table:

       E     2C3   3C2' 
A_1    1.00  1.00  1.00
A_2    1.00  1.00 -1.00
E      2.00 -1.00  0.00

     the symmetry operations in each class and the name of the first element:

     E        1
                                                                 
     2C3      3    4
                                                                 
     3C2'     2    5    6
                                                                 

     Band symmetry, D_3 (32)    point group:

     e(  1 -  2) =    -50.58166  eV     2   --> E              
     e(  3 -  4) =    -24.85222  eV     2   --> E              
     e(  5 -  6) =    -24.80956  eV     2   --> A_1            
     e(  5 -  6) =    -24.80956  eV     2   --> A_2            
     e(  7 -  8) =    -24.70018  eV     2   --> E              
     e(  9 - 10) =     -1.74161  eV     2   --> E              
     e( 11 - 12) =     -1.69987  eV     2   --> E              
     e( 13 - 13) =      4.76571  eV     1   --> A_2            
     e( 14 - 14) =      4.76686  eV     1   --> A_1            
     e( 15 - 16) =      5.54829  eV     2   --> E              
     e( 17 - 17) =      6.11985  eV     1   --> A_2            
     e( 18 - 18) =      6.12244  eV     1   --> A_1            
     e( 19 - 20) =      6.46856  eV     2   --> E              
     e( 21 - 22) =      7.45630  eV     2   --> E              
     e( 23 - 24) =      7.98885  eV     2   --> E              
     e( 25 - 25) =     10.14201  eV     1   --> A_2            
     e( 26 - 26) =     10.14310  eV     1   --> A_1            
     e( 27 - 28) =     11.89701  eV     2   --> E              
     e( 29 - 29) =     13.10522  eV     1   --> A_2            
     e( 30 - 30) =     13.11063  eV     1   --> A_1            
     e( 31 - 32) =     13.68928  eV     2   --> E              
     e( 33 - 34) =     14.97869  eV     2   --> E              
     e( 35 - 35) =     17.45510  eV     1   --> A_2            
     e( 36 - 36) =     17.46001  eV     1   --> A_1            
     e( 37 - 38) =     18.09227  eV     2   --> E              
     e( 39 - 40) =     19.61431  eV     2   --> E              
     e( 41 - 41) =     21.78516  eV     1   --> A_1            
     e( 42 - 42) =     21.78731  eV     1   --> A_2            
     e( 43 - 43) =     21.96888  eV     1   --> A_1            
     e( 44 - 44) =     21.97304  eV     1   --> A_2            
     e( 45 - 46) =     22.74902  eV     2   --> E              
     e( 47 - 48) =     22.88799  eV     2   --> E              
     e( 49 - 50) =     23.34382  eV     2   --> E              
     e( 51 - 51) =     24.19941  eV     1   --> A_2            
     e( 52 - 52) =     24.20729  eV     1   --> A_1            
     e( 53 - 54) =     25.60088  eV     2   --> E              
     e( 55 - 55) =     28.13936  eV     1   --> A_2            
     e( 56 - 56) =     28.15352  eV     1   --> A_1            
     e( 57 - 58) =     28.74303  eV     2   --> E              
     e( 59 - 60) =     29.29611  eV     2   --> E              

 **************************************************************************

     BANDS        :     21.00s CPU     21.35s WALL


   This run was terminated on:  22:23:42  17Apr2024            

=------------------------------------------------------------------------------=
   JOB DONE.
=------------------------------------------------------------------------------=
