
     Program PWSCF v.7.2 starts on 18Apr2024 at  8:12:29 

     This program is part of the open-source Quantum ESPRESSO suite
     for quantum simulation of materials; please cite
         "P. Giannozzi et al., J. Phys.:Condens. Matter 21 395502 (2009);
         "P. Giannozzi et al., J. Phys.:Condens. Matter 29 465901 (2017);
         "P. Giannozzi et al., J. Chem. Phys. 152 154105 (2020);
          URL http://www.quantum-espresso.org", 
     in publications or presentations arising from this work. More details at
     http://www.quantum-espresso.org/quote

     Parallel version (MPI & OpenMP), running on       8 processor cores
     Number of MPI processes:                 8
     Threads/MPI process:                     1

     MPI processes distributed on     1 nodes
     0 MiB available memory on the printing compute node when the environment starts

     Waiting for input...
     Reading input from standard input
Warning: card &IONS ignored
Warning: card     ION_DYNAMICS='BFGS', ignored
Warning: card     UPSCALE=10 ignored
Warning: card / ignored

     Current dimensions of program PWSCF are:
     Max number of different atomic species (ntypx) = 10
     Max number of k-points (npk) =  40000
     Max angular momentum in pseudopotentials (lmaxx) =  4

     Atomic positions and unit cell read from directory:
     ./tmp/MoS2_bulk_pbe_vdW_wsoc.save/
     Atomic positions from file used, from input discarded

     Message from routine setup:
     At least one non s.o. pseudo

     R & G space division:  proc/nbgrp/npool/nimage =       8
     Subspace diagonalization in iterative solution of the eigenvalue problem:
     a serial algorithm will be used


     Parallelization info
     --------------------
     sticks:   dense  smooth     PW     G-vecs:    dense   smooth      PW
     Min          85      85     24                 7173     7173    1130
     Max          86      86     25                 7186     7186    1149
     Sum         685     685    199                57449    57449    9157

     Using Slab Decomposition



     bravais-lattice index     =            4
     lattice parameter (alat)  =       5.9926  a.u.
     unit-cell volume          =     726.4071 (a.u.)^3
     number of atoms/cell      =            6
     number of atomic types    =            2
     number of electrons       =        52.00
     number of Kohn-Sham states=           70
     kinetic-energy cutoff     =      70.0000  Ry
     charge density cutoff     =     280.0000  Ry
     Exchange-correlation= PBE
                           (   1   4   3   4   0   0   0)
     Non magnetic calculation with spin-orbit


     celldm(1)=   5.992589  celldm(2)=   0.000000  celldm(3)=   3.897678
     celldm(4)=   0.000000  celldm(5)=   0.000000  celldm(6)=   0.000000

     crystal axes: (cart. coord. in units of alat)
               a(1) = (   1.000000   0.000000   0.000000 )  
               a(2) = (  -0.500000   0.866025   0.000000 )  
               a(3) = (   0.000000   0.000000   3.897678 )  

     reciprocal axes: (cart. coord. in units 2 pi/alat)
               b(1) = (  1.000000  0.577350 -0.000000 )  
               b(2) = (  0.000000  1.154701  0.000000 )  
               b(3) = (  0.000000 -0.000000  0.256563 )  


     PseudoPot. # 1 for S  read from file:
     ../../../Pseudo/PBE/S.upf
     MD5 check sum: b72b6a9ca752e39de1a6cc592280dae2
     Pseudo is Norm-conserving + core correction, Zval =  6.0
     Generated using ONCVPSP code by D. R. Hamann
     Using radial grid of 1148 points,  6 beta functions with: 
                l(1) =   0
                l(2) =   0
                l(3) =   1
                l(4) =   1
                l(5) =   2
                l(6) =   2

     PseudoPot. # 2 for Mo read from file:
     ../../../Pseudo/PBE/Mo.upf
     MD5 check sum: 7ca7a9feba7bf08d88d14bc7fbf60c1e
     Pseudo is Norm-conserving + core correction, Zval = 14.0
     Generated using ONCVPSP code by D. R. Hamann
     Using radial grid of 1640 points,  6 beta functions with: 
                l(1) =   0
                l(2) =   0
                l(3) =   1
                l(4) =   1
                l(5) =   2
                l(6) =   2

     atomic species   valence    mass     pseudopotential
        S              6.00    32.06500     S ( 1.00)
        Mo            14.00   183.84000     Mo( 1.00)

     12 Sym. Ops., with inversion, found


                                    s                        frac. trans.

      isym =  1     identity                                     

 cryst.   s( 1) = (     1          0          0      )
                  (     0          1          0      )
                  (     0          0          1      )

 cart.    s( 1) = (  1.0000000  0.0000000  0.0000000 )
                  (  0.0000000  1.0000000  0.0000000 )
                  (  0.0000000  0.0000000  1.0000000 )


      isym =  2     180 deg rotation - cart. axis [1,0,0]        

 cryst.   s( 2) = (     1          0          0      )
                  (    -1         -1          0      )
                  (     0          0         -1      )

 cart.    s( 2) = (  1.0000000  0.0000000  0.0000000 )
                  (  0.0000000 -1.0000000  0.0000000 )
                  (  0.0000000  0.0000000 -1.0000000 )


      isym =  3     120 deg rotation - cryst. axis [0,0,1]       

 cryst.   s( 3) = (     0          1          0      )
                  (    -1         -1          0      )
                  (     0          0          1      )

 cart.    s( 3) = ( -0.5000000 -0.8660254  0.0000000 )
                  (  0.8660254 -0.5000000  0.0000000 )
                  (  0.0000000  0.0000000  1.0000000 )


      isym =  4     120 deg rotation - cryst. axis [0,0,-1]      

 cryst.   s( 4) = (    -1         -1          0      )
                  (     1          0          0      )
                  (     0          0          1      )

 cart.    s( 4) = ( -0.5000000  0.8660254  0.0000000 )
                  ( -0.8660254 -0.5000000  0.0000000 )
                  (  0.0000000  0.0000000  1.0000000 )


      isym =  5     180 deg rotation - cryst. axis [0,1,0]       

 cryst.   s( 5) = (    -1         -1          0      )
                  (     0          1          0      )
                  (     0          0         -1      )

 cart.    s( 5) = ( -0.5000000 -0.8660254  0.0000000 )
                  ( -0.8660254  0.5000000  0.0000000 )
                  (  0.0000000  0.0000000 -1.0000000 )


      isym =  6     180 deg rotation - cryst. axis [1,1,0]       

 cryst.   s( 6) = (     0          1          0      )
                  (     1          0          0      )
                  (     0          0         -1      )

 cart.    s( 6) = ( -0.5000000  0.8660254  0.0000000 )
                  (  0.8660254  0.5000000  0.0000000 )
                  (  0.0000000  0.0000000 -1.0000000 )


      isym =  7     inversion                                    

 cryst.   s( 7) = (    -1          0          0      )
                  (     0         -1          0      )
                  (     0          0         -1      )

 cart.    s( 7) = ( -1.0000000  0.0000000  0.0000000 )
                  (  0.0000000 -1.0000000  0.0000000 )
                  (  0.0000000  0.0000000 -1.0000000 )


      isym =  8     inv. 180 deg rotation - cart. axis [1,0,0]   

 cryst.   s( 8) = (    -1          0          0      )
                  (     1          1          0      )
                  (     0          0          1      )

 cart.    s( 8) = ( -1.0000000  0.0000000  0.0000000 )
                  (  0.0000000  1.0000000  0.0000000 )
                  (  0.0000000  0.0000000  1.0000000 )


      isym =  9     inv. 120 deg rotation - cryst. axis [0,0,1]  

 cryst.   s( 9) = (     0         -1          0      )
                  (     1          1          0      )
                  (     0          0         -1      )

 cart.    s( 9) = (  0.5000000  0.8660254  0.0000000 )
                  ( -0.8660254  0.5000000  0.0000000 )
                  (  0.0000000  0.0000000 -1.0000000 )


      isym = 10     inv. 120 deg rotation - cryst. axis [0,0,-1] 

 cryst.   s(10) = (     1          1          0      )
                  (    -1          0          0      )
                  (     0          0         -1      )

 cart.    s(10) = (  0.5000000 -0.8660254  0.0000000 )
                  (  0.8660254  0.5000000  0.0000000 )
                  (  0.0000000  0.0000000 -1.0000000 )


      isym = 11     inv. 180 deg rotation - cryst. axis [0,1,0]  

 cryst.   s(11) = (     1          1          0      )
                  (     0         -1          0      )
                  (     0          0          1      )

 cart.    s(11) = (  0.5000000  0.8660254  0.0000000 )
                  (  0.8660254 -0.5000000  0.0000000 )
                  (  0.0000000  0.0000000  1.0000000 )


      isym = 12     inv. 180 deg rotation - cryst. axis [1,1,0]  

 cryst.   s(12) = (     0         -1          0      )
                  (    -1          0          0      )
                  (     0          0          1      )

 cart.    s(12) = (  0.5000000 -0.8660254  0.0000000 )
                  ( -0.8660254 -0.5000000  0.0000000 )
                  (  0.0000000  0.0000000  1.0000000 )


     double point group D_3d (-3m) 
     there are 12 classes and  6 irreducible representations
     the character table:

       E     -E    2C3   -2C3  3C2'  -3C2' i     -i    2S6   -2S6  3s_v  -3s_v
                                                                              
G_4+   2.00 -2.00  1.00 -1.00  0.00  0.00  2.00 -2.00  1.00 -1.00  0.00  0.00
G_5+   1.00 -1.00 -1.00  1.00  0.00  0.00  1.00 -1.00 -1.00  1.00  0.00  0.00
G_6+   1.00 -1.00 -1.00  1.00  0.00  0.00  1.00 -1.00 -1.00  1.00  0.00  0.00
G_4-   2.00 -2.00  1.00 -1.00  0.00  0.00 -2.00  2.00 -1.00  1.00  0.00  0.00
G_5-   1.00 -1.00 -1.00  1.00  0.00  0.00 -1.00  1.00  1.00 -1.00  0.00  0.00
G_6-   1.00 -1.00 -1.00  1.00  0.00  0.00 -1.00  1.00  1.00 -1.00  0.00  0.00

     imaginary part

       E     -E    2C3   -2C3  3C2'  -3C2' i     -i    2S6   -2S6  3s_v  -3s_v
                                                                              
G_4+   0.00  0.00  0.00  0.00  0.00  0.00  0.00  0.00  0.00  0.00  0.00  0.00
G_5+   0.00  0.00  0.00  0.00  1.00 -1.00  0.00  0.00  0.00  0.00  1.00 -1.00
G_6+   0.00  0.00  0.00  0.00 -1.00  1.00  0.00  0.00  0.00  0.00 -1.00  1.00
G_4-   0.00  0.00  0.00  0.00  0.00  0.00  0.00  0.00  0.00  0.00  0.00  0.00
G_5-   0.00  0.00  0.00  0.00  1.00 -1.00  0.00  0.00  0.00  0.00 -1.00  1.00
G_6-   0.00  0.00  0.00  0.00 -1.00  1.00  0.00  0.00  0.00  0.00  1.00 -1.00

     the symmetry operations in each class and the name of the first element:

     E             1
          identity                                               
     -E           -1
          identity E                                             
     2C3           3    4
          120 deg rotation - cryst. axis [0,0,1]                 
     -2C3         -3   -4
          120 deg rotation - cryst. axis [0,0,1] E               
     3C2'          5    6   -2
          180 deg rotation - cryst. axis [0,1,0]                 
     -3C2'         2   -5   -6
          180 deg rotation - cart. axis [1,0,0]                  
     i             7
          inversion                                              
     -i           -7
          inversion E                                            
     2S6           9   10
          inv. 120 deg rotation - cryst. axis [0,0,1]            
     -2S6         -9  -10
          inv. 120 deg rotation - cryst. axis [0,0,1] E          
     3s_v         11   12   -8
          inv. 180 deg rotation - cryst. axis [0,1,0]            
     -3s_v         8  -11  -12
          inv. 180 deg rotation - cart. axis [1,0,0]             

   Cartesian axes

     site n.     atom                  positions (alat units)
         1           Mo  tau(   1) = (  -0.0000003   0.5773503  -0.9751726  )
         2           Mo  tau(   2) = (   0.5000002   0.2886748   0.9751726  )
         3           S   tau(   3) = (   0.5000002   0.2886748  -0.4800038  )
         4           S   tau(   4) = (  -0.0000003   0.5773503   0.4800038  )
         5           S   tau(   5) = (  -0.0000003   0.5773503   1.4703207  )
         6           S   tau(   6) = (   0.5000002   0.2886748  -1.4703207  )

   Crystallographic axes

     site n.     atom                  positions (cryst. coord.)
         1           Mo  tau(   1) = (  0.3333330  0.6666667 -0.2501932  )
         2           Mo  tau(   2) = (  0.6666667  0.3333330  0.2501932  )
         3           S   tau(   3) = (  0.6666667  0.3333330 -0.1231512  )
         4           S   tau(   4) = (  0.3333330  0.6666667  0.1231512  )
         5           S   tau(   5) = (  0.3333330  0.6666667  0.3772299  )
         6           S   tau(   6) = (  0.6666667  0.3333330 -0.3772299  )

     number of k points=    71  Marzari-Vanderbilt smearing, width (Ry)=  0.0050
                       cart. coord. in units 2pi/alat
        k(    1) = (   0.0000000   0.0000000   0.0000000), wk =   0.0140845
        k(    2) = (  -0.0158729   0.0274930   0.0000000), wk =   0.0140845
        k(    3) = (  -0.0317457   0.0549860   0.0000000), wk =   0.0140845
        k(    4) = (  -0.0476186   0.0824789   0.0000000), wk =   0.0140845
        k(    5) = (  -0.0634914   0.1099719   0.0000000), wk =   0.0140845
        k(    6) = (  -0.0793643   0.1374649   0.0000000), wk =   0.0140845
        k(    7) = (  -0.0952371   0.1649579   0.0000000), wk =   0.0140845
        k(    8) = (  -0.1111100   0.1924509   0.0000000), wk =   0.0140845
        k(    9) = (  -0.1269829   0.2199438   0.0000000), wk =   0.0140845
        k(   10) = (  -0.1428557   0.2474368   0.0000000), wk =   0.0140845
        k(   11) = (  -0.1587286   0.2749298   0.0000000), wk =   0.0140845
        k(   12) = (  -0.1746014   0.3024228   0.0000000), wk =   0.0140845
        k(   13) = (  -0.1904743   0.3299158   0.0000000), wk =   0.0140845
        k(   14) = (  -0.2063471   0.3574087   0.0000000), wk =   0.0140845
        k(   15) = (  -0.2222200   0.3849017   0.0000000), wk =   0.0140845
        k(   16) = (  -0.2380929   0.4123947   0.0000000), wk =   0.0140845
        k(   17) = (  -0.2539657   0.4398877   0.0000000), wk =   0.0140845
        k(   18) = (  -0.2698386   0.4673807   0.0000000), wk =   0.0140845
        k(   19) = (  -0.2857114   0.4948736   0.0000000), wk =   0.0140845
        k(   20) = (  -0.3015843   0.5223666   0.0000000), wk =   0.0140845
        k(   21) = (  -0.3174571   0.5498596   0.0000000), wk =   0.0140845
        k(   22) = (  -0.3333300   0.5773526   0.0000000), wk =   0.0140845
        k(   23) = (  -0.3030273   0.5773524   0.0000000), wk =   0.0140845
        k(   24) = (  -0.2727245   0.5773522   0.0000000), wk =   0.0140845
        k(   25) = (  -0.2424218   0.5773519   0.0000000), wk =   0.0140845
        k(   26) = (  -0.2121191   0.5773517   0.0000000), wk =   0.0140845
        k(   27) = (  -0.1818164   0.5773515   0.0000000), wk =   0.0140845
        k(   28) = (  -0.1515136   0.5773513   0.0000000), wk =   0.0140845
        k(   29) = (  -0.1212109   0.5773511   0.0000000), wk =   0.0140845
        k(   30) = (  -0.0909082   0.5773509   0.0000000), wk =   0.0140845
        k(   31) = (  -0.0606055   0.5773507   0.0000000), wk =   0.0140845
        k(   32) = (  -0.0303027   0.5773505   0.0000000), wk =   0.0140845
        k(   33) = (   0.0000000   0.5773503   0.0000000), wk =   0.0140845
        k(   34) = (   0.0000000   0.5452753   0.0000000), wk =   0.0140845
        k(   35) = (   0.0000000   0.5132002   0.0000000), wk =   0.0140845
        k(   36) = (   0.0000000   0.4811252   0.0000000), wk =   0.0140845
        k(   37) = (   0.0000000   0.4490502   0.0000000), wk =   0.0140845
        k(   38) = (   0.0000000   0.4169752   0.0000000), wk =   0.0140845
        k(   39) = (   0.0000000   0.3849002   0.0000000), wk =   0.0140845
        k(   40) = (   0.0000000   0.3528252   0.0000000), wk =   0.0140845
        k(   41) = (   0.0000000   0.3207501   0.0000000), wk =   0.0140845
        k(   42) = (   0.0000000   0.2886751   0.0000000), wk =   0.0140845
        k(   43) = (   0.0000000   0.2566001   0.0000000), wk =   0.0140845
        k(   44) = (   0.0000000   0.2245251   0.0000000), wk =   0.0140845
        k(   45) = (   0.0000000   0.1924501   0.0000000), wk =   0.0140845
        k(   46) = (   0.0000000   0.1603751   0.0000000), wk =   0.0140845
        k(   47) = (   0.0000000   0.1283001   0.0000000), wk =   0.0140845
        k(   48) = (   0.0000000   0.0962250   0.0000000), wk =   0.0140845
        k(   49) = (   0.0000000   0.0641500   0.0000000), wk =   0.0140845
        k(   50) = (   0.0000000   0.0320750   0.0000000), wk =   0.0140845
        k(   51) = (   0.0000000   0.0000000   0.0000000), wk =   0.0140845
        k(   52) = (   0.0000000   0.0000000   0.0128282), wk =   0.0140845
        k(   53) = (   0.0000000   0.0000000   0.0256563), wk =   0.0140845
        k(   54) = (   0.0000000   0.0000000   0.0384845), wk =   0.0140845
        k(   55) = (   0.0000000   0.0000000   0.0513126), wk =   0.0140845
        k(   56) = (   0.0000000   0.0000000   0.0641408), wk =   0.0140845
        k(   57) = (   0.0000000   0.0000000   0.0769689), wk =   0.0140845
        k(   58) = (   0.0000000   0.0000000   0.0897971), wk =   0.0140845
        k(   59) = (   0.0000000   0.0000000   0.1026252), wk =   0.0140845
        k(   60) = (   0.0000000   0.0000000   0.1154534), wk =   0.0140845
        k(   61) = (   0.0000000   0.0000000   0.1282815), wk =   0.0140845
        k(   62) = (  -0.0333330   0.0577353   0.1282815), wk =   0.0140845
        k(   63) = (  -0.0666660   0.1154705   0.1282815), wk =   0.0140845
        k(   64) = (  -0.0999990   0.1732058   0.1282815), wk =   0.0140845
        k(   65) = (  -0.1333320   0.2309410   0.1282815), wk =   0.0140845
        k(   66) = (  -0.1666650   0.2886763   0.1282815), wk =   0.0140845
        k(   67) = (  -0.1999980   0.3464115   0.1282815), wk =   0.0140845
        k(   68) = (  -0.2333310   0.4041468   0.1282815), wk =   0.0140845
        k(   69) = (  -0.2666640   0.4618821   0.1282815), wk =   0.0140845
        k(   70) = (  -0.2999970   0.5196173   0.1282815), wk =   0.0140845
        k(   71) = (  -0.3333300   0.5773526   0.1282815), wk =   0.0140845

                       cryst. coord.
        k(    1) = (   0.0000000   0.0000000   0.0000000), wk =   0.0140845
        k(    2) = (  -0.0158729   0.0317460   0.0000000), wk =   0.0140845
        k(    3) = (  -0.0317457   0.0634921   0.0000000), wk =   0.0140845
        k(    4) = (  -0.0476186   0.0952381   0.0000000), wk =   0.0140845
        k(    5) = (  -0.0634914   0.1269842   0.0000000), wk =   0.0140845
        k(    6) = (  -0.0793643   0.1587302   0.0000000), wk =   0.0140845
        k(    7) = (  -0.0952371   0.1904763   0.0000000), wk =   0.0140845
        k(    8) = (  -0.1111100   0.2222223   0.0000000), wk =   0.0140845
        k(    9) = (  -0.1269829   0.2539684   0.0000000), wk =   0.0140845
        k(   10) = (  -0.1428557   0.2857144   0.0000000), wk =   0.0140845
        k(   11) = (  -0.1587286   0.3174605   0.0000000), wk =   0.0140845
        k(   12) = (  -0.1746014   0.3492065   0.0000000), wk =   0.0140845
        k(   13) = (  -0.1904743   0.3809526   0.0000000), wk =   0.0140845
        k(   14) = (  -0.2063471   0.4126986   0.0000000), wk =   0.0140845
        k(   15) = (  -0.2222200   0.4444447   0.0000000), wk =   0.0140845
        k(   16) = (  -0.2380929   0.4761907   0.0000000), wk =   0.0140845
        k(   17) = (  -0.2539657   0.5079368   0.0000000), wk =   0.0140845
        k(   18) = (  -0.2698386   0.5396828   0.0000000), wk =   0.0140845
        k(   19) = (  -0.2857114   0.5714289   0.0000000), wk =   0.0140845
        k(   20) = (  -0.3015843   0.6031749   0.0000000), wk =   0.0140845
        k(   21) = (  -0.3174571   0.6349210   0.0000000), wk =   0.0140845
        k(   22) = (  -0.3333300   0.6666670   0.0000000), wk =   0.0140845
        k(   23) = (  -0.3030273   0.6515155   0.0000000), wk =   0.0140845
        k(   24) = (  -0.2727245   0.6363639   0.0000000), wk =   0.0140845
        k(   25) = (  -0.2424218   0.6212124   0.0000000), wk =   0.0140845
        k(   26) = (  -0.2121191   0.6060608   0.0000000), wk =   0.0140845
        k(   27) = (  -0.1818164   0.5909093   0.0000000), wk =   0.0140845
        k(   28) = (  -0.1515136   0.5757577   0.0000000), wk =   0.0140845
        k(   29) = (  -0.1212109   0.5606062   0.0000000), wk =   0.0140845
        k(   30) = (  -0.0909082   0.5454546   0.0000000), wk =   0.0140845
        k(   31) = (  -0.0606055   0.5303031   0.0000000), wk =   0.0140845
        k(   32) = (  -0.0303027   0.5151515   0.0000000), wk =   0.0140845
        k(   33) = (   0.0000000   0.5000000   0.0000000), wk =   0.0140845
        k(   34) = (   0.0000000   0.4722222   0.0000000), wk =   0.0140845
        k(   35) = (   0.0000000   0.4444444   0.0000000), wk =   0.0140845
        k(   36) = (   0.0000000   0.4166667   0.0000000), wk =   0.0140845
        k(   37) = (   0.0000000   0.3888889   0.0000000), wk =   0.0140845
        k(   38) = (   0.0000000   0.3611111   0.0000000), wk =   0.0140845
        k(   39) = (   0.0000000   0.3333333   0.0000000), wk =   0.0140845
        k(   40) = (   0.0000000   0.3055556   0.0000000), wk =   0.0140845
        k(   41) = (   0.0000000   0.2777778   0.0000000), wk =   0.0140845
        k(   42) = (   0.0000000   0.2500000   0.0000000), wk =   0.0140845
        k(   43) = (   0.0000000   0.2222222   0.0000000), wk =   0.0140845
        k(   44) = (   0.0000000   0.1944444   0.0000000), wk =   0.0140845
        k(   45) = (   0.0000000   0.1666667   0.0000000), wk =   0.0140845
        k(   46) = (   0.0000000   0.1388889   0.0000000), wk =   0.0140845
        k(   47) = (   0.0000000   0.1111111   0.0000000), wk =   0.0140845
        k(   48) = (   0.0000000   0.0833333   0.0000000), wk =   0.0140845
        k(   49) = (   0.0000000   0.0555556   0.0000000), wk =   0.0140845
        k(   50) = (   0.0000000   0.0277778   0.0000000), wk =   0.0140845
        k(   51) = (   0.0000000   0.0000000   0.0000000), wk =   0.0140845
        k(   52) = (   0.0000000   0.0000000   0.0500000), wk =   0.0140845
        k(   53) = (   0.0000000   0.0000000   0.1000000), wk =   0.0140845
        k(   54) = (   0.0000000   0.0000000   0.1500000), wk =   0.0140845
        k(   55) = (   0.0000000   0.0000000   0.2000000), wk =   0.0140845
        k(   56) = (   0.0000000   0.0000000   0.2500000), wk =   0.0140845
        k(   57) = (   0.0000000   0.0000000   0.3000000), wk =   0.0140845
        k(   58) = (   0.0000000   0.0000000   0.3500000), wk =   0.0140845
        k(   59) = (   0.0000000   0.0000000   0.4000000), wk =   0.0140845
        k(   60) = (   0.0000000   0.0000000   0.4500000), wk =   0.0140845
        k(   61) = (   0.0000000   0.0000000   0.5000000), wk =   0.0140845
        k(   62) = (  -0.0333330   0.0666667   0.5000000), wk =   0.0140845
        k(   63) = (  -0.0666660   0.1333334   0.5000000), wk =   0.0140845
        k(   64) = (  -0.0999990   0.2000001   0.5000000), wk =   0.0140845
        k(   65) = (  -0.1333320   0.2666668   0.5000000), wk =   0.0140845
        k(   66) = (  -0.1666650   0.3333335   0.5000000), wk =   0.0140845
        k(   67) = (  -0.1999980   0.4000002   0.5000000), wk =   0.0140845
        k(   68) = (  -0.2333310   0.4666669   0.5000000), wk =   0.0140845
        k(   69) = (  -0.2666640   0.5333336   0.5000000), wk =   0.0140845
        k(   70) = (  -0.2999970   0.6000003   0.5000000), wk =   0.0140845
        k(   71) = (  -0.3333300   0.6666670   0.5000000), wk =   0.0140845

     Dense  grid:    57449 G-vectors     FFT dimensions: (  32,  32, 125)

     Dynamical RAM for                 wfc:       1.92 MB

     Dynamical RAM for     wfc (w. buffer):       1.92 MB

     Dynamical RAM for           str. fact:       0.22 MB

     Dynamical RAM for           local pot:       0.00 MB

     Dynamical RAM for          nlocal pot:       1.48 MB

     Dynamical RAM for                qrad:       2.69 MB

     Dynamical RAM for          rho,v,vnew:       2.82 MB

     Dynamical RAM for           G-vectors:       0.47 MB

     Dynamical RAM for          h,s,v(r/c):       0.90 MB

     Dynamical RAM for          <psi|beta>:       0.23 MB

     Dynamical RAM for                 psi:       3.84 MB

     Dynamical RAM for                hpsi:       3.84 MB

     Dynamical RAM for      wfcinit/wfcrot:       3.08 MB

     Estimated static dynamical RAM per process >      10.92 MB

     Estimated max dynamical RAM per process >      19.72 MB

     Estimated total dynamical RAM >     157.73 MB

     The potential is recalculated from file :
     ./tmp/MoS2_bulk_pbe_vdW_wsoc.save/charge-density

     Starting wfcs are   72 randomized atomic wfcs

     Band Structure Calculation
     Davidson diagonalization with overlap

     Computing kpt #:     1  of    71
     total cpu time spent up to now is        7.7 secs

     Computing kpt #:     2  of    71
     total cpu time spent up to now is       13.6 secs

     Computing kpt #:     3  of    71
     total cpu time spent up to now is       20.4 secs

     Computing kpt #:     4  of    71
     total cpu time spent up to now is       26.5 secs

     Computing kpt #:     5  of    71
     total cpu time spent up to now is       31.9 secs

     Computing kpt #:     6  of    71
     total cpu time spent up to now is       37.7 secs

     Computing kpt #:     7  of    71
     total cpu time spent up to now is       44.1 secs

     Computing kpt #:     8  of    71
     total cpu time spent up to now is       50.6 secs

     Computing kpt #:     9  of    71
     total cpu time spent up to now is       57.5 secs

     Computing kpt #:    10  of    71
     total cpu time spent up to now is       63.9 secs

     Computing kpt #:    11  of    71
     total cpu time spent up to now is       71.3 secs

     Computing kpt #:    12  of    71
     total cpu time spent up to now is       80.0 secs

     Computing kpt #:    13  of    71
     total cpu time spent up to now is       87.2 secs

     Computing kpt #:    14  of    71
     total cpu time spent up to now is       93.1 secs

     Computing kpt #:    15  of    71
     total cpu time spent up to now is       98.9 secs

     Computing kpt #:    16  of    71
     total cpu time spent up to now is      104.8 secs

     Computing kpt #:    17  of    71
     total cpu time spent up to now is      111.8 secs

     Computing kpt #:    18  of    71
     total cpu time spent up to now is      118.4 secs

     Computing kpt #:    19  of    71
     total cpu time spent up to now is      124.1 secs

     Computing kpt #:    20  of    71
     total cpu time spent up to now is      129.9 secs

     Computing kpt #:    21  of    71
     total cpu time spent up to now is      134.2 secs

     Computing kpt #:    22  of    71
     total cpu time spent up to now is      137.9 secs

     Computing kpt #:    23  of    71
     total cpu time spent up to now is      141.4 secs

     Computing kpt #:    24  of    71
     total cpu time spent up to now is      144.7 secs

     Computing kpt #:    25  of    71
     total cpu time spent up to now is      148.0 secs

     Computing kpt #:    26  of    71
     total cpu time spent up to now is      151.6 secs

     Computing kpt #:    27  of    71
     total cpu time spent up to now is      154.9 secs

     Computing kpt #:    28  of    71
     total cpu time spent up to now is      158.3 secs

     Computing kpt #:    29  of    71
     total cpu time spent up to now is      161.6 secs

     Computing kpt #:    30  of    71
     total cpu time spent up to now is      165.4 secs

     Computing kpt #:    31  of    71
     total cpu time spent up to now is      169.5 secs

     Computing kpt #:    32  of    71
     total cpu time spent up to now is      173.3 secs

     Computing kpt #:    33  of    71
     total cpu time spent up to now is      177.2 secs

     Computing kpt #:    34  of    71
     total cpu time spent up to now is      181.0 secs

     Computing kpt #:    35  of    71
     total cpu time spent up to now is      184.4 secs

     Computing kpt #:    36  of    71
     total cpu time spent up to now is      187.7 secs

     Computing kpt #:    37  of    71
     total cpu time spent up to now is      191.0 secs

     Computing kpt #:    38  of    71
     total cpu time spent up to now is      194.8 secs

     Computing kpt #:    39  of    71
     total cpu time spent up to now is      198.5 secs

     Computing kpt #:    40  of    71
     total cpu time spent up to now is      202.4 secs

     Computing kpt #:    41  of    71
     total cpu time spent up to now is      206.2 secs

     Computing kpt #:    42  of    71
     total cpu time spent up to now is      210.5 secs

     Computing kpt #:    43  of    71
     total cpu time spent up to now is      214.3 secs

     Computing kpt #:    44  of    71
     total cpu time spent up to now is      218.4 secs

     Computing kpt #:    45  of    71
     total cpu time spent up to now is      222.6 secs

     Computing kpt #:    46  of    71
     total cpu time spent up to now is      226.6 secs

     Computing kpt #:    47  of    71
     total cpu time spent up to now is      230.6 secs

     Computing kpt #:    48  of    71
     total cpu time spent up to now is      234.5 secs

     Computing kpt #:    49  of    71
     total cpu time spent up to now is      238.4 secs

     Computing kpt #:    50  of    71
     total cpu time spent up to now is      242.3 secs

     Computing kpt #:    51  of    71
     total cpu time spent up to now is      245.7 secs

     Computing kpt #:    52  of    71
     total cpu time spent up to now is      249.1 secs

     Computing kpt #:    53  of    71
     total cpu time spent up to now is      252.5 secs

     Computing kpt #:    54  of    71
     total cpu time spent up to now is      256.2 secs

     Computing kpt #:    55  of    71
     total cpu time spent up to now is      260.1 secs

     Computing kpt #:    56  of    71
     total cpu time spent up to now is      264.1 secs

     Computing kpt #:    57  of    71
     total cpu time spent up to now is      268.2 secs

     Computing kpt #:    58  of    71
     total cpu time spent up to now is      272.0 secs

     Computing kpt #:    59  of    71
     total cpu time spent up to now is      275.6 secs

     Computing kpt #:    60  of    71
     total cpu time spent up to now is      279.3 secs

     Computing kpt #:    61  of    71
     total cpu time spent up to now is      283.8 secs

     Computing kpt #:    62  of    71
     total cpu time spent up to now is      288.0 secs

     Computing kpt #:    63  of    71
     total cpu time spent up to now is      293.3 secs

     Computing kpt #:    64  of    71
     total cpu time spent up to now is      298.0 secs

     Computing kpt #:    65  of    71
     c_bands:  2 eigenvalues not converged
     total cpu time spent up to now is      303.7 secs

     Computing kpt #:    66  of    71
     total cpu time spent up to now is      308.6 secs

     Computing kpt #:    67  of    71
     total cpu time spent up to now is      314.1 secs

     Computing kpt #:    68  of    71
     c_bands:  1 eigenvalues not converged
     total cpu time spent up to now is      319.7 secs

     Computing kpt #:    69  of    71
     total cpu time spent up to now is      324.4 secs

     Computing kpt #:    70  of    71
     total cpu time spent up to now is      330.0 secs

     Computing kpt #:    71  of    71
     total cpu time spent up to now is      334.2 secs

     ethr =  1.92E-10,  avg # of iterations = 52.8

     total cpu time spent up to now is      334.2 secs

     End of band structure calculation

          k = 0.0000 0.0000 0.0000 (  7113 PWs)   bands (ev):

   -50.6323 -50.6323 -50.6323 -50.6323 -24.7738 -24.7738 -24.7736 -24.7736
   -24.5520 -24.5520 -24.5520 -24.5520 -24.5519 -24.5519 -24.5519 -24.5519
    -4.0024  -4.0024  -3.7357  -3.7357  -2.8090  -2.8090  -2.3743  -2.3743
     4.0925   4.0925   5.1125   5.1125   7.4442   7.4442   7.6775   7.6775
     7.6775   7.6775   7.6905   7.6905   7.6905   7.6905   8.7644   8.7644
     8.7645   8.7645   8.8101   8.8101   8.8102   8.8102   9.7197   9.7197
     9.7653   9.7653  10.8953  10.8953  13.0118  13.0118  13.0118  13.0118
    13.0405  13.0405  13.0405  13.0405  13.1660  13.1660  13.1660  13.1660
    13.3340  13.3340  13.3340  13.3340  16.4685  16.4685

          k =-0.0159 0.0275 0.0000 (  7108 PWs)   bands (ev):

   -50.6320 -50.6320 -50.6320 -50.6320 -24.7732 -24.7732 -24.7730 -24.7730
   -24.5550 -24.5550 -24.5549 -24.5549 -24.5527 -24.5527 -24.5526 -24.5526
    -3.9909  -3.9909  -3.7244  -3.7244  -2.8035  -2.8035  -2.3702  -2.3702
     4.1059   4.1059   5.1257   5.1257   7.4192   7.4192   7.6503   7.6503
     7.6637   7.6637   7.6894   7.6894   7.7026   7.7026   8.7111   8.7111
     8.7448   8.7448   8.7911   8.7911   8.8222   8.8222   9.7482   9.7482
     9.7670   9.7670  10.8736  10.8736  12.9984  12.9984  13.0162  13.0162
    13.0356  13.0356  13.0628  13.0628  13.1508  13.1508  13.1523  13.1523
    13.2934  13.2934  13.3219  13.3219  16.5269  16.5269

          k =-0.0317 0.0550 0.0000 (  7116 PWs)   bands (ev):

   -50.6311 -50.6311 -50.6311 -50.6311 -24.7715 -24.7715 -24.7713 -24.7713
   -24.5636 -24.5636 -24.5636 -24.5636 -24.5547 -24.5547 -24.5546 -24.5546
    -3.9566  -3.9566  -3.6906  -3.6906  -2.7870  -2.7870  -2.3578  -2.3578
     4.1458   4.1458   5.1648   5.1648   7.3489   7.3489   7.5715   7.5715
     7.5862   7.5862   7.7245   7.7245   7.7384   7.7384   8.5736   8.5736
     8.6851   8.6851   8.7335   8.7335   8.8551   8.8551   9.7712   9.7712
     9.8106   9.8106  10.8084  10.8084  12.9614  12.9614  12.9666  12.9666
    13.0929  13.0929  13.0999  13.0999  13.1172  13.1172  13.1267  13.1267
    13.1862  13.1862  13.2849  13.2849  16.6944  16.6944

          k =-0.0476 0.0825 0.0000 (  7110 PWs)   bands (ev):

   -50.6297 -50.6297 -50.6297 -50.6297 -24.7687 -24.7687 -24.7685 -24.7685
   -24.5776 -24.5776 -24.5776 -24.5776 -24.5580 -24.5580 -24.5580 -24.5580
    -3.9000  -3.9000  -3.6350  -3.6350  -2.7598  -2.7598  -2.3375  -2.3375
     4.2106   4.2106   5.2278   5.2278   7.2442   7.2442   7.4481   7.4481
     7.4646   7.4646   7.7817   7.7817   7.7968   7.7968   8.3903   8.3903
     8.5839   8.5839   8.6367   8.6367   8.9010   8.9010   9.7751   9.7751
     9.8682   9.8682  10.6999  10.6999  12.8824  12.8824  12.9304  12.9304
    12.9728  12.9728  13.0738  13.0738  13.0757  13.0757  13.1875  13.1875
    13.2226  13.2226  13.2315  13.2315  16.9516  16.9516

          k =-0.0635 0.1100 0.0000 (  7130 PWs)   bands (ev):

   -50.6278 -50.6278 -50.6278 -50.6278 -24.7649 -24.7649 -24.7648 -24.7648
   -24.5967 -24.5967 -24.5966 -24.5966 -24.5627 -24.5627 -24.5627 -24.5627
    -3.8221  -3.8221  -3.5585  -3.5585  -2.7222  -2.7222  -2.3096  -2.3096
     4.2979   4.2979   5.3111   5.3111   7.1180   7.1180   7.2906   7.2906
     7.3090   7.3090   7.8587   7.8587   7.8759   7.8759   8.1874   8.1874
     8.4398   8.4398   8.5007   8.5007   8.9522   8.9522   9.7744   9.7744
     9.8966   9.8966  10.5508  10.5508  12.7766  12.7766  12.7976  12.7976
    12.9056  12.9056  12.9830  12.9830  13.0341  13.0341  13.1379  13.1379
    13.3116  13.3116  13.3748  13.3748  17.2752  17.2752

          k =-0.0794 0.1375 0.0000 (  7134 PWs)   bands (ev):

   -50.6255 -50.6255 -50.6255 -50.6255 -24.7602 -24.7602 -24.7601 -24.7601
   -24.6196 -24.6196 -24.6196 -24.6196 -24.5688 -24.5688 -24.5688 -24.5688
    -3.7240  -3.7240  -3.4625  -3.4625  -2.6749  -2.6749  -2.2745  -2.2745
     4.4038   4.4038   5.4093   5.4093   6.9815   6.9815   7.1120   7.1120
     7.1311   7.1311   7.9519   7.9519   7.9721   7.9721   7.9791   7.9791
     8.2539   8.2539   8.3280   8.3280   9.0029   9.0029   9.7631   9.7631
     9.8871   9.8871  10.3677  10.3677  12.5642  12.5642  12.7222  12.7222
    12.8838  12.8838  12.9035  12.9035  12.9949  12.9949  13.0467  13.0467
    13.4573  13.4573  13.5513  13.5513  17.6413  17.6413

          k =-0.0952 0.1650 0.0000 (  7154 PWs)   bands (ev):

   -50.6227 -50.6227 -50.6227 -50.6227 -24.7548 -24.7548 -24.7547 -24.7547
   -24.6459 -24.6459 -24.6458 -24.6458 -24.5763 -24.5763 -24.5762 -24.5762
    -3.6073  -3.6073  -3.3488  -3.3488  -2.6186  -2.6186  -2.2331  -2.2331
     4.5231   4.5231   5.5135   5.5135   6.8436   6.8436   6.9274   6.9274
     6.9436   6.9436   7.7710   7.7710   8.0304   8.0304   8.0556   8.0556
     8.0797   8.0797   8.1262   8.1262   9.0487   9.0487   9.7351   9.7351
     9.8409   9.8409  10.1612  10.1612  12.3588  12.3588  12.6664  12.6664
    12.7828  12.7828  12.8999  12.8999  12.9284  12.9284  13.0149  13.0149
    13.6157  13.6157  13.7529  13.7529  18.0231  18.0231

          k =-0.1111 0.1925 0.0000 (  7150 PWs)   bands (ev):

   -50.6197 -50.6197 -50.6197 -50.6197 -24.7488 -24.7488 -24.7486 -24.7486
   -24.6743 -24.6743 -24.6743 -24.6743 -24.5850 -24.5850 -24.5850 -24.5850
    -3.4739  -3.4739  -3.2195  -3.2195  -2.5543  -2.5543  -2.1861  -2.1861
     4.6485   4.6485   5.6093   5.6093   6.7108   6.7108   6.7557   6.7557
     6.7598   6.7598   7.5607   7.5607   7.7769   7.7769   7.9104   7.9104
     8.1609   8.1609   8.1893   8.1893   9.0865   9.0865   9.6862   9.6862
     9.7634   9.7634   9.9464   9.9464  12.1745  12.1745  12.6354  12.6354
    12.6923  12.6923  12.7817  12.7817  12.9793  12.9793  13.0178  13.0178
    13.7770  13.7770  13.9695  13.9695  18.3849  18.3849

          k =-0.1270 0.2199 0.0000 (  7168 PWs)   bands (ev):

   -50.6164 -50.6164 -50.6164 -50.6164 -24.7424 -24.7424 -24.7422 -24.7422
   -24.7039 -24.7039 -24.7039 -24.7039 -24.5951 -24.5951 -24.5951 -24.5951
    -3.3262  -3.3262  -3.0771  -3.0771  -2.4829  -2.4829  -2.1344  -2.1344
     4.7701   4.7701   5.6738   5.6738   6.5870   6.5870   6.5937   6.5937
     6.6224   6.6224   7.3369   7.3369   7.5033   7.5033   7.7047   7.7047
     8.2543   8.2543   8.2855   8.2855   9.1136   9.1136   9.6187   9.6187
     9.6606   9.6606   9.7424   9.7424  12.0193  12.0193  12.6261  12.6261
    12.6304  12.6304  12.6709  12.6709  13.0317  13.0317  13.0521  13.0521
    13.9312  13.9312  14.1902  14.1902  18.6753  18.6753

          k =-0.1429 0.2474 0.0000 (  7172 PWs)   bands (ev):

   -50.6130 -50.6130 -50.6130 -50.6130 -24.7357 -24.7357 -24.7355 -24.7355
   -24.7335 -24.7335 -24.7334 -24.7334 -24.6066 -24.6066 -24.6066 -24.6066
    -3.1667  -3.1667  -2.9247  -2.9247  -2.4057  -2.4057  -2.0792  -2.0792
     4.8751   4.8751   5.6792   5.6792   6.4603   6.4603   6.4729   6.4729
     6.5557   6.5557   7.0879   7.0879   7.2229   7.2229   7.5330   7.5330
     8.3159   8.3159   8.3453   8.3453   9.1275   9.1275   9.5372   9.5372
     9.5444   9.5444   9.5739   9.5739  11.8984  11.8984  12.5835  12.5835
    12.5957  12.5957  12.6490  12.6490  13.0491  13.0491  13.1410  13.1410
    14.0694  14.0694  14.4041  14.4041  18.8495  18.8495

          k =-0.1587 0.2749 0.0000 (  7196 PWs)   bands (ev):

   -50.6096 -50.6096 -50.6096 -50.6096 -24.7621 -24.7621 -24.7621 -24.7621
   -24.7290 -24.7290 -24.7288 -24.7288 -24.6194 -24.6194 -24.6193 -24.6193
    -2.9986  -2.9986  -2.7657  -2.7657  -2.3242  -2.3242  -2.0216  -2.0216
     4.9496   4.9496   5.6186   5.6186   6.3617   6.3617   6.3750   6.3750
     6.5605   6.5605   6.8166   6.8166   6.9542   6.9542   7.4037   7.4037
     8.3215   8.3215   8.3420   8.3420   9.1261   9.1261   9.3967   9.3967
     9.4672   9.4672   9.4841   9.4841  11.8174  11.8174  12.5349  12.5349
    12.6046  12.6046  12.6875  12.6875  13.0617  13.0617  13.2409  13.2409
    14.1844  14.1844  14.6019  14.6019  18.9144  18.9144

          k =-0.1746 0.3024 0.0000 (  7202 PWs)   bands (ev):

   -50.6062 -50.6062 -50.6062 -50.6062 -24.7887 -24.7887 -24.7886 -24.7886
   -24.7223 -24.7223 -24.7221 -24.7221 -24.6334 -24.6334 -24.6334 -24.6334
    -2.8254  -2.8254  -2.6037  -2.6037  -2.2399  -2.2399  -1.9631  -1.9631
     4.9850   4.9850   5.5187   5.5187   6.2337   6.2337   6.3456   6.3456
     6.5360   6.5360   6.6067   6.6067   6.7281   6.7281   7.3132   7.3132
     8.2532   8.2532   8.2655   8.2655   9.1076   9.1076   9.2420   9.2420
     9.4323   9.4323   9.4557   9.4557  11.7834  11.7834  12.5388  12.5388
    12.6478  12.6478  12.7404  12.7404  13.0611  13.0611  13.3459  13.3459
    14.2727  14.2727  14.7760  14.7760  18.7575  18.7575

          k =-0.1905 0.3299 0.0000 (  7210 PWs)   bands (ev):

   -50.6030 -50.6030 -50.6030 -50.6030 -24.8124 -24.8124 -24.8124 -24.8124
   -24.7158 -24.7158 -24.7157 -24.7157 -24.6486 -24.6486 -24.6486 -24.6486
    -2.6510  -2.6510  -2.4430  -2.4430  -2.1545  -2.1545  -1.9050  -1.9050
     4.9854   4.9854   5.4112   5.4112   6.0589   6.0589   6.2587   6.2587
     6.3672   6.3672   6.5831   6.5831   6.6583   6.6583   7.2566   7.2566
     8.1132   8.1132   8.1337   8.1337   9.0709   9.0709   9.0759   9.0759
     9.4531   9.4531   9.4615   9.4615  11.8015  11.8015  12.6029  12.6029
    12.7141  12.7141  12.8001  12.8001  13.0390  13.0390  13.4503  13.4503
    14.3359  14.3359  14.9216  14.9216  18.4655  18.4655

          k =-0.2063 0.3574 0.0000 (  7202 PWs)   bands (ev):

   -50.5999 -50.5999 -50.5999 -50.5999 -24.8324 -24.8324 -24.8323 -24.8323
   -24.7098 -24.7098 -24.7097 -24.7097 -24.6648 -24.6648 -24.6648 -24.6648
    -2.4798  -2.4798  -2.2882  -2.2882  -2.0700  -2.0700  -1.8489  -1.8489
     4.9671   4.9671   5.3172   5.3172   5.8415   5.8415   5.9939   5.9939
     6.4222   6.4222   6.5220   6.5220   6.6912   6.6912   7.2301   7.2301
     7.9189   7.9189   7.9732   7.9732   8.9020   8.9020   9.0161   9.0161
     9.4937   9.4937   9.5089   9.5089  11.8692  11.8692  12.7259  12.7259
    12.7911  12.7911  12.8576  12.8576  12.9880  12.9880  13.5480  13.5480
    14.3818  14.3818  15.0371  15.0371  18.1875  18.1875

          k =-0.2222 0.3849 0.0000 (  7186 PWs)   bands (ev):

   -50.5972 -50.5972 -50.5972 -50.5972 -24.8481 -24.8481 -24.8480 -24.8480
   -24.7043 -24.7043 -24.7043 -24.7043 -24.6819 -24.6819 -24.6819 -24.6819
    -2.3162  -2.3162  -2.1438  -2.1438  -1.9882  -1.9882  -1.7964  -1.7964
     4.9498   4.9498   5.2492   5.2492   5.6137   5.6137   5.7489   5.7489
     6.4903   6.4903   6.5183   6.5183   6.6936   6.6936   7.2297   7.2297
     7.6888   7.6888   7.8009   7.8009   8.7246   8.7246   8.9439   8.9439
     9.5470   9.5470   9.5899   9.5899  11.9719  11.9719  12.8700  12.8700
    12.8846  12.8846  12.9023  12.9023  12.9151  12.9151  13.6331  13.6331
    14.4233  14.4233  15.1243  15.1243  17.9411  17.9411

          k =-0.2381 0.4124 0.0000 (  7198 PWs)   bands (ev):

   -50.5948 -50.5948 -50.5948 -50.5948 -24.8591 -24.8591 -24.8591 -24.8591
   -24.6999 -24.6999 -24.6998 -24.6998 -24.6996 -24.6996 -24.6995 -24.6995
    -2.1650  -2.1650  -2.0144  -2.0144  -1.9112  -1.9112  -1.7492  -1.7492
     4.9501   4.9501   5.2149   5.2149   5.3977   5.3977   5.5293   5.5293
     6.5520   6.5520   6.5575   6.5575   6.6636   6.6636   7.2503   7.2503
     7.4370   7.4370   7.6236   7.6236   8.5496   8.5496   8.8563   8.8563
     9.6215   9.6215   9.6941   9.6941  12.0817  12.0817  12.7791  12.7791
    12.9248  12.9248  12.9523  12.9523  13.0995  13.0995  13.7002  13.7002
    14.4751  14.4751  15.1868  15.1868  17.7408  17.7408

          k =-0.2540 0.4399 0.0000 (  7192 PWs)   bands (ev):

   -50.5927 -50.5927 -50.5927 -50.5927 -24.8651 -24.8651 -24.8651 -24.8651
   -24.7184 -24.7184 -24.7182 -24.7182 -24.6955 -24.6955 -24.6954 -24.6954
    -2.0306  -2.0306  -1.9040  -1.9040  -1.8409  -1.8409  -1.7088  -1.7088
     4.9797   4.9797   5.2050   5.2050   5.2189   5.2189   5.3395   5.3395
     6.6065   6.6065   6.6111   6.6111   6.6180   6.6180   7.1729   7.1729
     7.2840   7.2840   7.4438   7.4438   8.3856   8.3856   8.7561   8.7561
     9.7171   9.7171   9.8183   9.8183  12.1599  12.1599  12.6268  12.6268
    12.9204  12.9204  13.0535  13.0535  13.3044  13.3044  13.7461  13.7461
    14.5478  14.5478  15.2285  15.2285  17.6006  17.6006

          k =-0.2698 0.4674 0.0000 (  7204 PWs)   bands (ev):

   -50.5911 -50.5911 -50.5911 -50.5911 -24.8663 -24.8663 -24.8662 -24.8662
   -24.7372 -24.7372 -24.7371 -24.7371 -24.6922 -24.6922 -24.6922 -24.6922
    -1.9166  -1.9166  -1.8155  -1.8155  -1.7794  -1.7794  -1.6766  -1.6766
     5.0422   5.0422   5.0463   5.0463   5.1827   5.1827   5.2621   5.2621
     6.5311   6.5311   6.6538   6.6538   6.7042   6.7042   6.9041   6.9041
     7.2641   7.2641   7.3181   7.3181   8.2456   8.2456   8.6469   8.6469
     9.8293   9.8293   9.9550   9.9550  12.1753  12.1753  12.4541  12.4541
    12.8916  12.8916  13.1901  13.1901  13.4890  13.4890  13.7704  13.7704
    14.6442  14.6442  15.2514  15.2514  17.3246  17.3246

          k =-0.2857 0.4949 0.0000 (  7204 PWs)   bands (ev):

   -50.5898 -50.5898 -50.5898 -50.5898 -24.8627 -24.8627 -24.8627 -24.8627
   -24.7559 -24.7559 -24.7558 -24.7558 -24.6897 -24.6897 -24.6897 -24.6897
    -1.8256  -1.8256  -1.7508  -1.7508  -1.7280  -1.7280  -1.6536  -1.6536
     4.9137   4.9137   5.0613   5.0613   5.1529   5.1529   5.3406   5.3406
     6.4471   6.4471   6.6367   6.6367   6.6842   6.6842   6.8080   6.8080
     7.0901   7.0901   7.3323   7.3323   8.1491   8.1491   8.5331   8.5331
     9.9475   9.9475  10.0913  10.0913  12.1301  12.1301  12.2790  12.2790
    12.8477  12.8477  13.3558  13.3558  13.6310  13.6310  13.7764  13.7764
    14.7593  14.7593  15.2546  15.2546  17.0701  17.0701

          k =-0.3016 0.5224 0.0000 (  7196 PWs)   bands (ev):

   -50.5889 -50.5889 -50.5889 -50.5889 -24.8551 -24.8551 -24.8551 -24.8551
   -24.7738 -24.7738 -24.7737 -24.7737 -24.6880 -24.6880 -24.6879 -24.6879
    -1.7587  -1.7587  -1.7101  -1.7101  -1.6880  -1.6880  -1.6405  -1.6405
     4.8217   4.8217   4.9762   4.9762   5.2976   5.2976   5.4414   5.4414
     6.3666   6.3666   6.3800   6.3800   6.7048   6.7048   6.9218   6.9218
     6.9308   6.9308   7.3061   7.3061   8.1156   8.1156   8.4194   8.4194
    10.0548  10.0548  10.2095  10.2095  12.0558  12.0558  12.1247  12.1247
    12.8013  12.8013  13.5221  13.5221  13.7174  13.7174  13.7701  13.7701
    14.8832  14.8832  15.2345  15.2345  16.8711  16.8711

          k =-0.3175 0.5499 0.0000 (  7198 PWs)   bands (ev):

   -50.5885 -50.5885 -50.5885 -50.5885 -24.8456 -24.8456 -24.8455 -24.8455
   -24.7894 -24.7894 -24.7893 -24.7893 -24.6870 -24.6870 -24.6870 -24.6870
    -1.7156  -1.7156  -1.6921  -1.6921  -1.6600  -1.6600  -1.6373  -1.6373
     4.7670   4.7670   4.9268   4.9268   5.4636   5.4636   5.5341   5.5341
     6.1521   6.1521   6.3095   6.3095   6.7202   6.7202   6.8013   6.8013
     7.0373   7.0373   7.2372   7.2372   8.1454   8.1454   8.3118   8.3118
    10.1305  10.1305  10.2895  10.2895  11.9925  11.9925  12.0165  12.0165
    12.7652  12.7652  13.6556  13.6556  13.7469  13.7469  13.7599  13.7599
    15.0037  15.0037  15.1870  15.1870  16.7452  16.7452

          k =-0.3333 0.5774 0.0000 (  7206 PWs)   bands (ev):

   -50.5883 -50.5883 -50.5883 -50.5883 -24.8400 -24.8400 -24.8400 -24.8400
   -24.7969 -24.7969 -24.7969 -24.7969 -24.6866 -24.6866 -24.6866 -24.6866
    -1.6944  -1.6944  -1.6944  -1.6944  -1.6436  -1.6436  -1.6436  -1.6436
     4.7492   4.7492   4.9112   4.9112   5.5685   5.5685   5.5685   5.5685
     6.0339   6.0339   6.2945   6.2945   6.7344   6.7344   6.7344   6.7344
     7.1438   7.1438   7.1439   7.1439   8.2175   8.2175   8.2175   8.2175
    10.1574  10.1574  10.3170  10.3170  11.9731  11.9731  11.9731  11.9731
    12.7508  12.7508  13.7289  13.7289  13.7289  13.7289  13.7545  13.7545
    15.1089  15.1089  15.1089  15.1089  16.7035  16.7035

          k =-0.3030 0.5774 0.0000 (  7192 PWs)   bands (ev):

   -50.5884 -50.5884 -50.5884 -50.5884 -24.8459 -24.8459 -24.8459 -24.8459
   -24.7894 -24.7894 -24.7893 -24.7893 -24.6869 -24.6869 -24.6869 -24.6869
    -1.7121  -1.7121  -1.6918  -1.6918  -1.6574  -1.6574  -1.6382  -1.6382
     4.7646   4.7646   4.9240   4.9240   5.4782   5.4782   5.5218   5.5218
     6.1484   6.1484   6.2856   6.2856   6.7546   6.7546   6.7869   6.7869
     7.0512   7.0512   7.2259   7.2259   8.1478   8.1478   8.3039   8.3039
    10.1349  10.1349  10.2953  10.2953  11.9927  11.9927  12.0080  12.0080
    12.7665  12.7665  13.6804  13.6804  13.7303  13.7303  13.7618  13.7618
    15.0059  15.0059  15.1846  15.1846  16.7352  16.7352

          k =-0.2727 0.5774 0.0000 (  7208 PWs)   bands (ev):

   -50.5888 -50.5888 -50.5888 -50.5888 -24.8583 -24.8583 -24.8583 -24.8583
   -24.7727 -24.7727 -24.7727 -24.7727 -24.6876 -24.6876 -24.6876 -24.6876
    -1.7416  -1.7416  -1.7033  -1.7033  -1.6774  -1.6774  -1.6415  -1.6415
     4.8085   4.8085   4.9590   4.9590   5.2994   5.2994   5.4192   5.4192
     6.2406   6.2406   6.3603   6.3603   6.8057   6.8057   6.9673   6.9673
     6.9708   6.9708   7.2779   7.2779   8.1052   8.1052   8.3915   8.3915
    10.0780  10.0780  10.2422  10.2422  12.0563  12.0563  12.0880  12.0880
    12.8178  12.8178  13.6139  13.6139  13.6691  13.6691  13.7874  13.7874
    14.8779  14.8779  15.2275  15.2275  16.8045  16.8045

          k =-0.2424 0.5774 0.0000 (  7204 PWs)   bands (ev):

   -50.5893 -50.5893 -50.5893 -50.5893 -24.8721 -24.8721 -24.8721 -24.8721
   -24.7526 -24.7526 -24.7525 -24.7525 -24.6886 -24.6886 -24.6886 -24.6886
    -1.7792  -1.7792  -1.7252  -1.7252  -1.7020  -1.7020  -1.6517  -1.6517
     4.8767   4.8767   5.0094   5.0094   5.1115   5.1115   5.2905   5.2905
     6.1757   6.1757   6.5159   6.5159   6.9043   6.9043   6.9579   6.9579
     7.2341   7.2341   7.2948   7.2948   8.0920   8.0920   8.4691   8.4691
    10.0055  10.0055  10.1758  10.1758  12.1430  12.1430  12.1955  12.1955
    12.9091  12.9091  13.5395  13.5395  13.5609  13.5609  13.8357  13.8357
    14.7311  14.7311  15.2322  15.2322  16.8600  16.8600

          k =-0.2121 0.5774 0.0000 (  7192 PWs)   bands (ev):

   -50.5899 -50.5899 -50.5899 -50.5899 -24.8854 -24.8854 -24.8854 -24.8854
   -24.7314 -24.7314 -24.7314 -24.7314 -24.6899 -24.6899 -24.6899 -24.6899
    -1.8214  -1.8214  -1.7541  -1.7541  -1.7292  -1.7292  -1.6669  -1.6669
     4.9335   4.9335   4.9637   4.9637   5.0677   5.0677   5.1545   5.1545
     6.1072   6.1072   6.5666   6.5666   6.8661   6.8661   7.2357   7.2357
     7.2811   7.2811   7.5404   7.5404   8.1019   8.1019   8.5286   8.5286
     9.9331   9.9331  10.1093  10.1093  12.2351  12.2351  12.3124  12.3124
    13.0422  13.0422  13.4240  13.4240  13.4645  13.4645  13.9074  13.9074
    14.5754  14.5754  15.1978  15.1978  16.8606  16.8606

          k =-0.1818 0.5774 0.0000 (  7208 PWs)   bands (ev):

   -50.5906 -50.5906 -50.5906 -50.5906 -24.8977 -24.8977 -24.8977 -24.8977
   -24.7107 -24.7107 -24.7106 -24.7106 -24.6912 -24.6912 -24.6912 -24.6912
    -1.8650  -1.8650  -1.7865  -1.7865  -1.7573  -1.7573  -1.6851  -1.6851
     4.7721   4.7721   5.0224   5.0224   5.0631   5.0631   5.1257   5.1257
     6.0418   6.0418   6.5696   6.5696   6.8583   6.8583   7.2474   7.2474
     7.5700   7.5700   7.8663   7.8663   8.1232   8.1232   8.5645   8.5645
     9.8696   9.8696  10.0484  10.0484  12.3210  12.3210  12.4232  12.4232
    13.2153  13.2153  13.2758  13.2758  13.3940  13.3940  13.9948  13.9948
    14.4271  14.4271  15.1284  15.1284  16.8007  16.8007

          k =-0.1515 0.5774 0.0000 (  7214 PWs)   bands (ev):

   -50.5913 -50.5913 -50.5913 -50.5913 -24.9085 -24.9085 -24.9085 -24.9085
   -24.6926 -24.6926 -24.6926 -24.6926 -24.6913 -24.6913 -24.6913 -24.6913
    -1.9071  -1.9071  -1.8195  -1.8195  -1.7844  -1.7844  -1.7043  -1.7043
     4.6308   4.6308   4.9012   4.9012   5.1677   5.1677   5.1767   5.1767
     5.9824   5.9824   6.5557   6.5557   6.8819   6.8819   7.2053   7.2053
     7.9201   7.9201   8.1461   8.1461   8.1965   8.1965   8.5747   8.5747
     9.8164   9.8164   9.9930   9.9930  12.3943  12.3943  12.5149  12.5149
    13.1327  13.1327  13.3304  13.3304  13.4226  13.4226  14.0566  14.0566
    14.3335  14.3335  15.0339  15.0339  16.6967  16.6967

          k =-0.1212 0.5774 0.0000 (  7196 PWs)   bands (ev):

   -50.5919 -50.5919 -50.5919 -50.5919 -24.9176 -24.9176 -24.9176 -24.9176
   -24.6938 -24.6938 -24.6938 -24.6938 -24.6741 -24.6741 -24.6741 -24.6741
    -1.9450  -1.9450  -1.8502  -1.8502  -1.8089  -1.8089  -1.7227  -1.7227
     4.5120   4.5120   4.7962   4.7962   5.2165   5.2165   5.2696   5.2696
     5.9310   5.9310   6.5356   6.5356   6.9333   6.9333   7.1627   7.1627
     8.1649   8.1649   8.2655   8.2655   8.5174   8.5174   8.5608   8.5608
     9.7693   9.7693   9.9385   9.9385  12.4529  12.4529  12.5738  12.5738
    13.0130  13.0130  13.2751  13.2751  13.6531  13.6531  14.0082  14.0082
    14.3799  14.3799  14.9279  14.9279  16.5688  16.5688

          k =-0.0909 0.5774 0.0000 (  7202 PWs)   bands (ev):

   -50.5924 -50.5924 -50.5924 -50.5924 -24.9249 -24.9249 -24.9249 -24.9249
   -24.6949 -24.6949 -24.6948 -24.6948 -24.6600 -24.6600 -24.6599 -24.6599
    -1.9767  -1.9767  -1.8765  -1.8765  -1.8294  -1.8294  -1.7387  -1.7387
     4.4178   4.4178   4.7109   4.7109   5.2441   5.2441   5.3606   5.3606
     5.8893   5.8893   6.5150   6.5150   7.0025   7.0025   7.1250   7.1250
     8.1780   8.1780   8.5283   8.5283   8.5898   8.5898   8.8165   8.8165
     9.7195   9.7195   9.8775   9.8775  12.4973  12.4973  12.5864  12.5864
    12.9369  12.9369  13.2288  13.2288  13.8893  13.8893  13.9103  13.9103
    14.5008  14.5008  14.8253  14.8253  16.4375  16.4375

          k =-0.0606 0.5774 0.0000 (  7188 PWs)   bands (ev):

   -50.5928 -50.5928 -50.5928 -50.5928 -24.9301 -24.9301 -24.9301 -24.9301
   -24.6957 -24.6957 -24.6956 -24.6956 -24.6494 -24.6494 -24.6493 -24.6493
    -2.0005  -2.0005  -1.8965  -1.8965  -1.8449  -1.8449  -1.7510  -1.7510
     4.3494   4.3494   4.6481   4.6481   5.2612   5.2612   5.4327   5.4327
     5.8585   5.8585   6.4976   6.4976   7.0740   7.0740   7.0958   7.0958
     8.1857   8.1857   8.4879   8.4879   8.8766   8.8766   9.0813   9.0813
     9.6568   9.6568   9.8021   9.8021  12.5287  12.5287  12.5586  12.5586
    12.9078  12.9078  13.1929  13.1929  13.8255  13.8255  14.1043  14.1043
    14.6219  14.6219  14.7400  14.7400  16.3234  16.3234

          k =-0.0303 0.5774 0.0000 (  7188 PWs)   bands (ev):

   -50.5931 -50.5931 -50.5931 -50.5931 -24.9334 -24.9334 -24.9334 -24.9334
   -24.6962 -24.6962 -24.6961 -24.6961 -24.6429 -24.6429 -24.6428 -24.6428
    -2.0153  -2.0153  -1.9091  -1.9091  -1.8545  -1.8545  -1.7588  -1.7588
     4.3080   4.3080   4.6096   4.6096   5.2701   5.2701   5.4791   5.4791
     5.8397   5.8397   6.4861   6.4861   7.0773   7.0773   7.1287   7.1287
     8.1894   8.1894   8.4539   8.4539   9.1031   9.1031   9.2960   9.2960
     9.5779   9.5779   9.7098   9.7098  12.5239  12.5239  12.5476  12.5476
    12.9023  12.9023  13.1696  13.1696  13.7707  13.7707  14.2612  14.2612
    14.6831  14.6831  14.7094  14.7094  16.2457  16.2457

          k = 0.0000 0.5774 0.0000 (  7222 PWs)   bands (ev):

   -50.5932 -50.5932 -50.5932 -50.5932 -24.9345 -24.9345 -24.9345 -24.9345
   -24.6964 -24.6964 -24.6964 -24.6964 -24.6407 -24.6407 -24.6407 -24.6407
    -2.0203  -2.0203  -1.9134  -1.9134  -1.8577  -1.8577  -1.7614  -1.7614
     4.2941   4.2941   4.5967   4.5967   5.2728   5.2728   5.4952   5.4952
     5.8333   5.8333   6.4821   6.4821   7.0710   7.0710   7.1494   7.1494
     8.1905   8.1905   8.4405   8.4405   9.2077   9.2077   9.4036   9.4036
     9.5250   9.5250   9.6445   9.6445  12.5096  12.5096  12.5540  12.5540
    12.9021  12.9021  13.1615  13.1615  13.7519  13.7519  14.3201  14.3201
    14.6628  14.6628  14.7414  14.7414  16.2181  16.2181

          k = 0.0000 0.5453 0.0000 (  7196 PWs)   bands (ev):

   -50.5935 -50.5935 -50.5935 -50.5935 -24.9316 -24.9316 -24.9316 -24.9316
   -24.6970 -24.6970 -24.6969 -24.6969 -24.6400 -24.6400 -24.6400 -24.6400
    -2.0424  -2.0424  -1.9296  -1.9296  -1.8690  -1.8690  -1.7648  -1.7648
     4.3135   4.3135   4.6159   4.6159   5.2890   5.2890   5.5166   5.5166
     5.8421   5.8421   6.4927   6.4927   7.0802   7.0802   7.1586   7.1586
     8.1910   8.1910   8.4557   8.4557   9.1986   9.1986   9.3917   9.3917
     9.4883   9.4883   9.6391   9.6391  12.5021  12.5021  12.5508  12.5508
    12.8733  12.8733  13.1533  13.1533  13.7412  13.7412  14.3163  14.3163
    14.6505  14.6505  14.7348  14.7348  16.2409  16.2409

          k = 0.0000 0.5132 0.0000 (  7186 PWs)   bands (ev):

   -50.5944 -50.5944 -50.5944 -50.5944 -24.9232 -24.9232 -24.9232 -24.9232
   -24.6987 -24.6987 -24.6987 -24.6987 -24.6380 -24.6380 -24.6380 -24.6380
    -2.1062  -2.1062  -1.9782  -1.9782  -1.9008  -1.9008  -1.7761  -1.7761
     4.3695   4.3695   4.6723   4.6723   5.3370   5.3370   5.5802   5.5802
     5.8671   5.8671   6.5226   6.5226   7.1078   7.1078   7.1858   7.1858
     8.1953   8.1953   8.4987   8.4987   9.1711   9.1711   9.3558   9.3558
     9.4014   9.4014   9.6093   9.6093  12.4816  12.4816  12.5425  12.5425
    12.7939  12.7939  13.1308  13.1308  13.7086  13.7086  14.3045  14.3045
    14.6123  14.6123  14.7147  14.7147  16.3433  16.3433

          k = 0.0000 0.4811 0.0000 (  7188 PWs)   bands (ev):

   -50.5958 -50.5958 -50.5958 -50.5958 -24.9096 -24.9096 -24.9095 -24.9095
   -24.7016 -24.7016 -24.7015 -24.7015 -24.6348 -24.6348 -24.6347 -24.6347
    -2.2056  -2.2056  -2.0578  -2.0578  -1.9491  -1.9491  -1.7972  -1.7972
     4.4562   4.4562   4.7625   4.7625   5.4150   5.4150   5.6837   5.6837
     5.9041   5.9041   6.5654   6.5654   7.1535   7.1535   7.2309   7.2309
     8.2090   8.2090   8.5647   8.5647   9.1246   9.1246   9.2960   9.2960
     9.2969   9.2969   9.5507   9.5507  12.4535  12.4535  12.5332  12.5332
    12.6800  12.6800  13.0993  13.0993  13.6537  13.6537  14.2841  14.2841
    14.5452  14.5452  14.6805  14.6805  16.5426  16.5426

          k = 0.0000 0.4491 0.0000 (  7178 PWs)   bands (ev):

   -50.5978 -50.5978 -50.5978 -50.5978 -24.8909 -24.8909 -24.8908 -24.8908
   -24.7055 -24.7055 -24.7054 -24.7054 -24.6304 -24.6304 -24.6303 -24.6303
    -2.3334  -2.3334  -2.1648  -2.1648  -2.0103  -2.0103  -1.8282  -1.8282
     4.5638   4.5638   4.8816   4.8816   5.5199   5.5199   5.8236   5.8236
     5.9475   5.9475   6.6112   6.6112   7.2168   7.2168   7.2933   7.2933
     8.2368   8.2368   8.6499   8.6499   9.0585   9.0585   9.2018   9.2018
     9.2130   9.2130   9.4777   9.4777  12.4255  12.4255  12.5282  12.5282
    12.5494  12.5494  13.0646  13.0646  13.5762  13.5762  14.2539  14.2539
    14.4470  14.4470  14.6316  14.6316  16.8237  16.8237

          k = 0.0000 0.4170 0.0000 (  7176 PWs)   bands (ev):

   -50.6002 -50.6002 -50.6002 -50.6002 -24.8678 -24.8678 -24.8677 -24.8677
   -24.7103 -24.7103 -24.7102 -24.7102 -24.6250 -24.6250 -24.6249 -24.6249
    -2.4820  -2.4820  -2.2940  -2.2940  -2.0808  -2.0808  -1.8681  -1.8681
     4.6788   4.6788   5.0231   5.0231   5.6476   5.6476   5.9922   5.9922
     5.9956   5.9956   6.6473   6.6473   7.2970   7.2970   7.3724   7.3724
     8.2816   8.2816   8.7524   8.7524   8.9727   8.9727   9.1083   9.1083
     9.1395   9.1395   9.4131   9.4131  12.4053  12.4053  12.4175  12.4175
    12.5331  12.5331  13.0305  13.0305  13.4774  13.4774  14.2126  14.2126
    14.3176  14.3176  14.5668  14.5668  17.1620  17.1620

          k = 0.0000 0.3849 0.0000 (  7184 PWs)   bands (ev):

   -50.6030 -50.6030 -50.6030 -50.6030 -24.8410 -24.8410 -24.8409 -24.8409
   -24.7158 -24.7158 -24.7158 -24.7158 -24.6187 -24.6187 -24.6186 -24.6186
    -2.6444  -2.6444  -2.4393  -2.4393  -2.1579  -2.1579  -1.9151  -1.9151
     4.7833   4.7833   5.1789   5.1789   5.7934   5.7934   6.0396   6.0396
     6.1943   6.1943   6.6626   6.6626   7.3931   7.3931   7.4672   7.4672
     8.3446   8.3446   8.8686   8.8686   8.8709   8.8709   8.9846   8.9846
     9.1282   9.1282   9.3798   9.3798  12.2969  12.2969  12.3997  12.3997
    12.5521  12.5521  12.9995  12.9995  13.3607  13.3607  14.1585  14.1585
    14.1601  14.1601  14.4855  14.4855  17.5307  17.5307

          k = 0.0000 0.3528 0.0000 (  7184 PWs)   bands (ev):

   -50.6061 -50.6061 -50.6061 -50.6061 -24.8112 -24.8112 -24.8111 -24.8111
   -24.7219 -24.7219 -24.7219 -24.7219 -24.6117 -24.6117 -24.6117 -24.6117
    -2.8142  -2.8142  -2.5946  -2.5946  -2.2386  -2.2386  -1.9670  -1.9670
     4.8559   4.8559   5.3382   5.3382   5.9524   5.9524   6.0998   6.0998
     6.4147   6.4147   6.6535   6.6535   7.5040   7.5040   7.5764   7.5764
     8.4247   8.4247   8.7488   8.7488   8.8460   8.8460   9.0042   9.0042
     9.1769   9.1769   9.3928   9.3928  12.1987  12.1987  12.4132  12.4132
    12.5876  12.5876  12.9728  12.9728  13.2326  13.2326  13.9804  13.9804
    14.0903  14.0903  14.3870  14.3870  17.8968  17.8968

          k = 0.0000 0.3208 0.0000 (  7172 PWs)   bands (ev):

   -50.6094 -50.6094 -50.6094 -50.6094 -24.7793 -24.7793 -24.7792 -24.7792
   -24.7285 -24.7285 -24.7284 -24.7284 -24.6043 -24.6043 -24.6042 -24.6042
    -2.9857  -2.9857  -2.7542  -2.7542  -2.3204  -2.3204  -2.0218  -2.0218
     4.8770   4.8770   5.4838   5.4838   6.1198   6.1198   6.1901   6.1901
     6.6317   6.6317   6.6516   6.6516   7.6278   7.6278   7.6983   7.6983
     8.5185   8.5185   8.6171   8.6171   8.6974   8.6974   9.1504   9.1504
     9.2836   9.2836   9.4531   9.4531  12.1343  12.1343  12.4477  12.4477
    12.6401  12.6401  12.9515  12.9515  13.1018  13.1018  13.7862  13.7862
    14.0072  14.0072  14.2715  14.2715  18.1875  18.1875

          k = 0.0000 0.2887 0.0000 (  7158 PWs)   bands (ev):

   -50.6128 -50.6128 -50.6128 -50.6128 -24.7462 -24.7462 -24.7461 -24.7461
   -24.7352 -24.7352 -24.7350 -24.7350 -24.5965 -24.5965 -24.5965 -24.5965
    -3.1539  -3.1539  -2.9130  -2.9130  -2.4009  -2.4009  -2.0773  -2.0773
     4.8410   4.8410   5.5894   5.5894   6.2912   6.2912   6.3206   6.3206
     6.6273   6.6273   6.8991   6.8991   7.7627   7.7627   7.8309   7.8309
     8.4787   8.4787   8.5442   8.5442   8.6199   8.6199   9.3059   9.3059
     9.4313   9.4313   9.5538   9.5538  12.1147  12.1147  12.5026  12.5026
    12.7084  12.7084  12.9370  12.9370  12.9792  12.9792  13.5868  13.5868
    13.9089  13.9089  14.1399  14.1399  18.2800  18.2800

          k = 0.0000 0.2566 0.0000 (  7158 PWs)   bands (ev):

   -50.6162 -50.6162 -50.6162 -50.6162 -24.7419 -24.7419 -24.7418 -24.7418
   -24.7129 -24.7129 -24.7128 -24.7128 -24.5888 -24.5888 -24.5888 -24.5888
    -3.3146  -3.3146  -3.0662  -3.0662  -2.4780  -2.4780  -2.1317  -2.1317
     4.7586   4.7586   5.6268   5.6268   6.4634   6.4634   6.4880   6.4880
     6.6764   6.6764   7.1529   7.1529   7.9058   7.9058   7.9715   7.9715
     8.3388   8.3388   8.3919   8.3919   8.7196   8.7196   9.4643   9.4643
     9.5716   9.5716   9.7075   9.7075  12.1495  12.1495  12.5757  12.5757
    12.7896  12.7896  12.8766  12.8766  12.9308  12.9308  13.3929  13.3929
    13.7965  13.7965  13.9945  13.9945  18.2705  18.2705

          k = 0.0000 0.2245 0.0000 (  7156 PWs)   bands (ev):

   -50.6195 -50.6195 -50.6195 -50.6195 -24.7484 -24.7484 -24.7482 -24.7482
   -24.6805 -24.6805 -24.6804 -24.6804 -24.5813 -24.5813 -24.5813 -24.5813
    -3.4642  -3.4642  -3.2102  -3.2102  -2.5499  -2.5499  -2.1833  -2.1833
     4.6483   4.6483   5.5922   5.5922   6.6337   6.6337   6.6803   6.6803
     6.7911   6.7911   7.4087   7.4087   8.0539   8.0539   8.1168   8.1168
     8.2026   8.2026   8.2455   8.2455   8.8068   8.8068   9.6153   9.6153
     9.6667   9.6667   9.9154   9.9154  12.2432  12.2432  12.6628  12.6628
    12.8050  12.8050  12.8799  12.8799  12.9351  12.9351  13.2175  13.2175
    13.6727  13.6727  13.8387  13.8387  18.1672  18.1672

          k = 0.0000 0.1925 0.0000 (  7140 PWs)   bands (ev):

   -50.6225 -50.6225 -50.6225 -50.6225 -24.7545 -24.7545 -24.7543 -24.7543
   -24.6499 -24.6499 -24.6498 -24.6498 -24.5743 -24.5743 -24.5743 -24.5743
    -3.5997  -3.5997  -3.3414  -3.3414  -2.6151  -2.6151  -2.2307  -2.2307
     4.5272   4.5272   5.5109   5.5109   6.7996   6.7996   6.8842   6.8842
     6.9516   6.9516   7.6627   7.6627   8.0750   8.0750   8.1096   8.1096
     8.2028   8.2028   8.2627   8.2627   8.8710   8.8710   9.7272   9.7272
     9.7448   9.7448  10.1390  10.1390  12.3911  12.3911  12.7590  12.7590
    12.7727  12.7727  12.9518  12.9518  12.9745  12.9745  13.0744  13.0744
    13.5417  13.5417  13.6778  13.6778  17.9415  17.9415

          k = 0.0000 0.1604 0.0000 (  7118 PWs)   bands (ev):

   -50.6253 -50.6253 -50.6253 -50.6253 -24.7600 -24.7600 -24.7598 -24.7598
   -24.6221 -24.6221 -24.6220 -24.6220 -24.5679 -24.5679 -24.5679 -24.5679
    -3.7185  -3.7185  -3.4571  -3.4571  -2.6723  -2.6723  -2.2726  -2.2726
     4.4085   4.4085   5.4118   5.4118   6.9586   6.9586   7.0870   7.0870
     7.1305   7.1305   7.9115   7.9115   7.9603   7.9603   7.9882   7.9882
     8.3471   8.3471   8.4039   8.4039   8.9052   8.9052   9.7604   9.7604
     9.8364   9.8364  10.3533  10.3533  12.5793  12.5793  12.7821  12.7821
    12.8584  12.8584  12.9767  12.9767  12.9823  12.9823  13.0680  13.0680
    13.4094  13.4094  13.5182  13.5182  17.6241  17.6241

          k = 0.0000 0.1283 0.0000 (  7100 PWs)   bands (ev):

   -50.6277 -50.6277 -50.6277 -50.6277 -24.7647 -24.7647 -24.7645 -24.7645
   -24.5980 -24.5980 -24.5979 -24.5979 -24.5624 -24.5624 -24.5624 -24.5624
    -3.8184  -3.8184  -3.5549  -3.5549  -2.7205  -2.7205  -2.3083  -2.3083
     4.3016   4.3016   5.3142   5.3142   7.1071   7.1071   7.2764   7.2764
     7.3063   7.3063   7.8619   7.8619   7.8845   7.8845   8.1506   8.1506
     8.4808   8.4808   8.5344   8.5344   8.9083   8.9083   9.7737   9.7737
     9.8771   9.8771  10.5424  10.5424  12.7867  12.7867  12.8276  12.8276
    12.9321  12.9321  12.9542  12.9542  13.0253  13.0253  13.1548  13.1548
    13.2834  13.2834  13.3679  13.3679  17.2794  17.2794

          k = 0.0000 0.0962 0.0000 (  7109 PWs)   bands (ev):

   -50.6297 -50.6297 -50.6297 -50.6297 -24.7686 -24.7686 -24.7684 -24.7684
   -24.5783 -24.5783 -24.5783 -24.5783 -24.5580 -24.5580 -24.5579 -24.5579
    -3.8979  -3.8979  -3.6329  -3.6329  -2.7588  -2.7588  -2.3367  -2.3367
     4.2130   4.2130   5.2300   5.2300   7.2393   7.2393   7.4407   7.4407
     7.4624   7.4624   7.7827   7.7827   7.8012   7.8012   8.3733   8.3733
     8.5967   8.5967   8.6472   8.6472   8.8866   8.8866   9.7751   9.7751
     9.8643   9.8643  10.6955  10.6955  12.8946  12.8946  12.9354  12.9354
    12.9859  12.9859  13.0395  13.0395  13.0800  13.0800  13.1724  13.1724
    13.2291  13.2291  13.2361  13.2361  16.9588  16.9588

          k = 0.0000 0.0642 0.0000 (  7111 PWs)   bands (ev):

   -50.6311 -50.6311 -50.6311 -50.6311 -24.7714 -24.7714 -24.7713 -24.7713
   -24.5639 -24.5639 -24.5639 -24.5639 -24.5547 -24.5547 -24.5546 -24.5546
    -3.9557  -3.9557  -3.6897  -3.6897  -2.7865  -2.7865  -2.3575  -2.3575
     4.1469   4.1469   5.1658   5.1658   7.3469   7.3469   7.5683   7.5683
     7.5851   7.5851   7.7247   7.7247   7.7402   7.7402   8.5675   8.5675
     8.6869   8.6869   8.7350   8.7350   8.8526   8.8526   9.7713   9.7713
     9.8113   9.8113  10.8065  10.8065  12.9585  12.9585  12.9733  12.9733
    13.0855  13.0855  13.1072  13.1072  13.1090  13.1090  13.1318  13.1318
    13.1800  13.1800  13.2861  13.2861  16.6987  16.6987

          k = 0.0000 0.0321 0.0000 (  7109 PWs)   bands (ev):

   -50.6320 -50.6320 -50.6320 -50.6320 -24.7732 -24.7732 -24.7730 -24.7730
   -24.5551 -24.5551 -24.5549 -24.5549 -24.5527 -24.5527 -24.5526 -24.5526
    -3.9907  -3.9907  -3.7242  -3.7242  -2.8034  -2.8034  -2.3701  -2.3701
     4.1062   4.1062   5.1260   5.1260   7.4187   7.4187   7.6496   7.6496
     7.6635   7.6635   7.6893   7.6893   7.7030   7.7030   8.7098   8.7098
     8.7446   8.7446   8.7909   8.7909   8.8223   8.8223   9.7488   9.7488
     9.7670   9.7670  10.8732  10.8732  12.9970  12.9970  13.0215  13.0215
    13.0305  13.0305  13.0642  13.0642  13.1508  13.1508  13.1517  13.1517
    13.2924  13.2924  13.3218  13.3218  16.5281  16.5281

          k = 0.0000 0.0000 0.0000 (  7113 PWs)   bands (ev):

   -50.6323 -50.6323 -50.6323 -50.6323 -24.7738 -24.7738 -24.7736 -24.7736
   -24.5520 -24.5520 -24.5520 -24.5520 -24.5519 -24.5519 -24.5519 -24.5519
    -4.0024  -4.0024  -3.7357  -3.7357  -2.8090  -2.8090  -2.3743  -2.3743
     4.0925   4.0925   5.1125   5.1125   7.4442   7.4442   7.6775   7.6775
     7.6775   7.6775   7.6905   7.6905   7.6905   7.6905   8.7644   8.7644
     8.7645   8.7645   8.8101   8.8101   8.8102   8.8102   9.7197   9.7197
     9.7653   9.7653  10.8953  10.8953  13.0118  13.0118  13.0118  13.0118
    13.0405  13.0405  13.0405  13.0405  13.1660  13.1660  13.1660  13.1660
    13.3340  13.3340  13.3340  13.3340  16.4685  16.4685

          k = 0.0000 0.0000 0.0128 (  7095 PWs)   bands (ev):

   -50.6323 -50.6323 -50.6323 -50.6323 -24.7738 -24.7738 -24.7736 -24.7736
   -24.5520 -24.5520 -24.5520 -24.5520 -24.5519 -24.5519 -24.5519 -24.5519
    -4.0011  -4.0011  -3.7381  -3.7381  -2.8057  -2.8057  -2.3767  -2.3767
     4.0972   4.0972   5.1031   5.1031   7.4568   7.4568   7.6775   7.6775
     7.6775   7.6775   7.6904   7.6904   7.6904   7.6904   8.7647   8.7647
     8.7648   8.7648   8.8099   8.8099   8.8099   8.8099   9.6166   9.6166
     9.8630   9.8630  10.8928  10.8928  13.0118  13.0118  13.0119  13.0119
    13.0399  13.0399  13.0400  13.0400  13.1674  13.1674  13.1674  13.1674
    13.3331  13.3331  13.3331  13.3331  16.4696  16.4696

          k = 0.0000 0.0000 0.0257 (  7101 PWs)   bands (ev):

   -50.6323 -50.6323 -50.6323 -50.6323 -24.7738 -24.7738 -24.7736 -24.7736
   -24.5520 -24.5520 -24.5520 -24.5520 -24.5519 -24.5519 -24.5519 -24.5519
    -3.9974  -3.9974  -3.7449  -3.7449  -2.7960  -2.7960  -2.3837  -2.3837
     4.1116   4.1116   5.0759   5.0759   7.4938   7.4938   7.6778   7.6778
     7.6778   7.6778   7.6902   7.6902   7.6902   7.6902   8.7656   8.7656
     8.7656   8.7656   8.8090   8.8090   8.8091   8.8091   9.4887   9.4887
     9.9742   9.9742  10.8854  10.8854  13.0119  13.0119  13.0119  13.0119
    13.0383  13.0383  13.0383  13.0383  13.1715  13.1715  13.1715  13.1715
    13.3304  13.3304  13.3304  13.3304  16.4729  16.4729

          k = 0.0000 0.0000 0.0385 (  7082 PWs)   bands (ev):

   -50.6323 -50.6323 -50.6323 -50.6323 -24.7737 -24.7737 -24.7735 -24.7735
   -24.5520 -24.5520 -24.5520 -24.5520 -24.5519 -24.5519 -24.5519 -24.5519
    -3.9912  -3.9912  -3.7557  -3.7557  -2.7804  -2.7804  -2.3952  -2.3952
     4.1353   4.1353   5.0328   5.0328   7.5533   7.5533   7.6782   7.6782
     7.6782   7.6782   7.6898   7.6898   7.6898   7.6898   8.7669   8.7669
     8.7670   8.7670   8.8077   8.8077   8.8077   8.8077   9.3557   9.3557
    10.0799  10.0799  10.8729  10.8729  13.0120  13.0120  13.0120  13.0120
    13.0359  13.0359  13.0359  13.0359  13.1781  13.1781  13.1781  13.1781
    13.3261  13.3261  13.3261  13.3261  16.4783  16.4783

          k = 0.0000 0.0000 0.0513 (  7094 PWs)   bands (ev):

   -50.6323 -50.6323 -50.6323 -50.6323 -24.7737 -24.7737 -24.7735 -24.7735
   -24.5520 -24.5520 -24.5520 -24.5520 -24.5519 -24.5519 -24.5519 -24.5519
    -3.9827  -3.9827  -3.7701  -3.7701  -2.7595  -2.7595  -2.4110  -2.4110
     4.1680   4.1680   4.9765   4.9765   7.6325   7.6325   7.6787   7.6787
     7.6787   7.6787   7.6892   7.6892   7.6892   7.6892   8.7688   8.7688
     8.7688   8.7688   8.8058   8.8058   8.8058   8.8058   9.2187   9.2187
    10.1792  10.1792  10.8552  10.8552  13.0122  13.0122  13.0122  13.0122
    13.0330  13.0330  13.0330  13.0330  13.1866  13.1866  13.1866  13.1866
    13.3201  13.3201  13.3201  13.3201  16.4855  16.4855

          k = 0.0000 0.0000 0.0641 (  7118 PWs)   bands (ev):

   -50.6323 -50.6323 -50.6323 -50.6323 -24.7738 -24.7738 -24.7736 -24.7736
   -24.5521 -24.5521 -24.5521 -24.5521 -24.5520 -24.5520 -24.5520 -24.5520
    -3.9719  -3.9719  -3.7872  -3.7872  -2.7342  -2.7342  -2.4308  -2.4308
     4.2094   4.2094   4.9101   4.9101   7.6793   7.6793   7.6793   7.6793
     7.6885   7.6885   7.6885   7.6885   7.7283   7.7283   8.7711   8.7711
     8.7712   8.7712   8.8034   8.8034   8.8035   8.8035   9.0785   9.0785
    10.2718  10.2718  10.8323  10.8323  13.0125  13.0125  13.0125  13.0125
    13.0299  13.0299  13.0299  13.0299  13.1968  13.1968  13.1968  13.1968
    13.3127  13.3127  13.3127  13.3127  16.4943  16.4943

          k = 0.0000 0.0000 0.0770 (  7118 PWs)   bands (ev):

   -50.6323 -50.6323 -50.6323 -50.6323 -24.7738 -24.7738 -24.7737 -24.7737
   -24.5520 -24.5520 -24.5520 -24.5520 -24.5520 -24.5520 -24.5520 -24.5520
    -3.9589  -3.9589  -3.8063  -3.8063  -2.7055  -2.7055  -2.4542  -2.4542
     4.2588   4.2588   4.8367   4.8367   7.6801   7.6801   7.6801   7.6801
     7.6877   7.6877   7.6878   7.6878   7.8377   7.8377   8.7738   8.7738
     8.7739   8.7739   8.8007   8.8007   8.8008   8.8008   8.9359   8.9359
    10.3575  10.3575  10.8040  10.8040  13.0130  13.0130  13.0130  13.0130
    13.0268  13.0268  13.0269  13.0269  13.2081  13.2081  13.2081  13.2081
    13.3038  13.3038  13.3038  13.3038  16.5044  16.5044

          k = 0.0000 0.0000 0.0898 (  7106 PWs)   bands (ev):

   -50.6323 -50.6323 -50.6323 -50.6323 -24.7737 -24.7737 -24.7737 -24.7737
   -24.5520 -24.5520 -24.5520 -24.5520 -24.5520 -24.5520 -24.5520 -24.5520
    -3.9439  -3.9439  -3.8266  -3.8266  -2.6743  -2.6743  -2.4808  -2.4808
     4.3157   4.3157   4.7590   4.7590   7.6809   7.6809   7.6809   7.6809
     7.6869   7.6869   7.6869   7.6869   7.9578   7.9578   8.7769   8.7769
     8.7769   8.7769   8.7919   8.7919   8.7977   8.7977   8.7977   8.7977
    10.4363  10.4363  10.7700  10.7700  13.0136  13.0136  13.0137  13.0137
    13.0240  13.0240  13.0240  13.0240  13.2202  13.2202  13.2202  13.2202
    13.2938  13.2938  13.2938  13.2938  16.5153  16.5153

          k = 0.0000 0.0000 0.1026 (  7100 PWs)   bands (ev):

   -50.6323 -50.6323 -50.6323 -50.6323 -24.7737 -24.7737 -24.7737 -24.7737
   -24.5520 -24.5520 -24.5520 -24.5520 -24.5520 -24.5520 -24.5520 -24.5520
    -3.9271  -3.9271  -3.8476  -3.8476  -2.6414  -2.6414  -2.5100  -2.5100
     4.3793   4.3793   4.6795   4.6795   7.6819   7.6819   7.6819   7.6819
     7.6859   7.6859   7.6859   7.6859   8.0864   8.0864   8.6473   8.6473
     8.7802   8.7802   8.7803   8.7803   8.7944   8.7944   8.7944   8.7944
    10.5083  10.5083  10.7302  10.7302  13.0146  13.0146  13.0146  13.0146
    13.0214  13.0214  13.0214  13.0214  13.2329  13.2329  13.2329  13.2329
    13.2827  13.2827  13.2828  13.2828  16.5268  16.5268

          k = 0.0000 0.0000 0.1155 (  7082 PWs)   bands (ev):

   -50.6323 -50.6323 -50.6323 -50.6323 -24.7737 -24.7737 -24.7737 -24.7737
   -24.5519 -24.5519 -24.5519 -24.5519 -24.5519 -24.5519 -24.5519 -24.5519
    -3.9087  -3.9087  -3.8685  -3.8685  -2.6078  -2.6078  -2.5413  -2.5413
     4.4486   4.4486   4.6002   4.6002   7.6829   7.6829   7.6829   7.6829
     7.6849   7.6849   7.6849   7.6849   8.2213   8.2213   8.5032   8.5032
     8.7837   8.7837   8.7837   8.7837   8.7909   8.7909   8.7909   8.7909
    10.5735  10.5735  10.6844  10.6844  13.0157  13.0157  13.0158  13.0158
    13.0192  13.0192  13.0192  13.0192  13.2457  13.2457  13.2457  13.2457
    13.2709  13.2709  13.2709  13.2709  16.5385  16.5385

          k = 0.0000 0.0000 0.1283 (  7094 PWs)   bands (ev):

   -50.6323 -50.6323 -50.6323 -50.6323 -24.7737 -24.7737 -24.7737 -24.7737
   -24.5520 -24.5520 -24.5519 -24.5519 -24.5519 -24.5519 -24.5519 -24.5519
    -3.8904  -3.8904  -3.8878  -3.8878  -2.5761  -2.5761  -2.5723  -2.5723
     4.5194   4.5194   4.5259   4.5259   7.6838   7.6838   7.6838   7.6838
     7.6840   7.6840   7.6840   7.6840   8.3571   8.3571   8.3644   8.3644
     8.7870   8.7870   8.7871   8.7871   8.7875   8.7875   8.7876   8.7876
    10.6287  10.6287  10.6356  10.6356  13.0171  13.0171  13.0171  13.0171
    13.0174  13.0174  13.0175  13.0175  13.2576  13.2576  13.2576  13.2576
    13.2593  13.2593  13.2593  13.2593  16.5499  16.5499

          k =-0.0333 0.0577 0.1283 (  7106 PWs)   bands (ev):

   -50.6310 -50.6310 -50.6310 -50.6310 -24.7712 -24.7712 -24.7712 -24.7712
   -24.5648 -24.5648 -24.5648 -24.5648 -24.5549 -24.5549 -24.5549 -24.5549
    -3.8405  -3.8405  -3.8379  -3.8379  -2.5545  -2.5545  -2.5508  -2.5508
     4.5746   4.5746   4.5811   4.5811   7.5677   7.5677   7.5679   7.5679
     7.7359   7.7359   7.7360   7.7360   8.1383   8.1383   8.1440   8.1440
     8.7008   8.7008   8.7014   8.7014   8.9366   8.9366   8.9375   8.9375
    10.5740  10.5740  10.5801  10.5801  12.9563  12.9563  12.9563  12.9563
    13.0881  13.0881  13.0887  13.0887  13.1465  13.1465  13.1476  13.1476
    13.2155  13.2155  13.2170  13.2170  16.7918  16.7918

          k =-0.0667 0.1155 0.1283 (  7146 PWs)   bands (ev):

   -50.6274 -50.6274 -50.6274 -50.6274 -24.7641 -24.7641 -24.7641 -24.7641
   -24.6009 -24.6009 -24.6009 -24.6009 -24.5638 -24.5638 -24.5638 -24.5638
    -3.6945  -3.6945  -3.6919  -3.6919  -2.4913  -2.4913  -2.4877  -2.4877
     4.7291   4.7291   4.7355   4.7355   7.2614   7.2614   7.2617   7.2617
     7.7726   7.7726   7.7776   7.7776   7.8848   7.8848   7.8850   7.8850
     8.4352   8.4352   8.4358   8.4358   9.1200   9.1200   9.1212   9.1212
    10.3858  10.3858  10.3898  10.3898  12.7723  12.7723  12.7726  12.7726
    12.9634  12.9634  12.9651  12.9651  13.0302  13.0302  13.0314  13.0314
    13.3815  13.3815  13.3821  13.3821  17.4231  17.4231

          k =-0.1000 0.1732 0.1283 (  7160 PWs)   bands (ev):

   -50.6218 -50.6218 -50.6218 -50.6218 -24.7531 -24.7531 -24.7531 -24.7531
   -24.6542 -24.6542 -24.6542 -24.6542 -24.5787 -24.5787 -24.5787 -24.5787
    -3.4631  -3.4631  -3.4605  -3.4605  -2.3913  -2.3913  -2.3880  -2.3880
     4.9463   4.9463   4.9527   4.9527   6.8644   6.8644   6.8647   6.8647
     7.4201   7.4201   7.4247   7.4247   7.9900   7.9900   7.9909   7.9909
     8.1084   8.1084   8.1085   8.1085   9.2330   9.2330   9.2338   9.2338
    10.0589  10.0589  10.0603  10.0603  12.4954  12.4954  12.4960  12.4960
    12.8320  12.8320  12.8332  12.8332  12.9549  12.9549  12.9582  12.9582
    13.7448  13.7448  13.7458  13.7458  18.2520  18.2520

          k =-0.1333 0.2309 0.1283 (  7178 PWs)   bands (ev):

   -50.6151 -50.6151 -50.6151 -50.6151 -24.7397 -24.7397 -24.7397 -24.7397
   -24.7158 -24.7158 -24.7158 -24.7158 -24.5996 -24.5996 -24.5996 -24.5996
    -3.1642  -3.1642  -3.1617  -3.1617  -2.2624  -2.2624  -2.2594  -2.2594
     5.1513   5.1513   5.1573   5.1573   6.4974   6.4974   6.4976   6.4976
     7.1023   7.1023   7.1058   7.1058   7.4826   7.4826   7.4844   7.4844
     8.2996   8.2996   8.2999   8.2999   9.2589   9.2589   9.2589   9.2589
     9.6816   9.6816   9.6820   9.6820  12.2569  12.2569  12.2588  12.2588
    12.7067  12.7067  12.7074  12.7074  13.0434  13.0434  13.0475  13.0475
    14.1370  14.1370  14.1387  14.1387  18.8970  18.8970

          k =-0.1667 0.2887 0.1283 (  7178 PWs)   bands (ev):

   -50.6079 -50.6079 -50.6079 -50.6079 -24.7757 -24.7757 -24.7756 -24.7756
   -24.7255 -24.7255 -24.7255 -24.7255 -24.6262 -24.6262 -24.6262 -24.6262
    -2.8231  -2.8231  -2.8208  -2.8208  -2.1156  -2.1156  -2.1131  -2.1131
     5.2256   5.2256   5.2304   5.2304   6.2770   6.2770   6.2776   6.2776
     6.6764   6.6764   6.6777   6.6777   7.1660   7.1660   7.1700   7.1700
     8.2987   8.2987   8.2988   8.2988   9.1673   9.1673   9.1683   9.1683
     9.4578   9.4578   9.4585   9.4585  12.1239  12.1239  12.1264  12.1264
    12.7221  12.7221  12.7227  12.7227  13.1756  13.1756  13.1800  13.1800
    14.4651  14.4651  14.4676  14.4676  18.7428  18.7428

          k =-0.2000 0.3464 0.1283 (  7186 PWs)   bands (ev):

   -50.6011 -50.6011 -50.6011 -50.6011 -24.8248 -24.8248 -24.8248 -24.8248
   -24.7121 -24.7121 -24.7121 -24.7121 -24.6581 -24.6581 -24.6581 -24.6581
    -2.4729  -2.4729  -2.4708  -2.4708  -1.9649  -1.9649  -1.9630  -1.9630
     5.1474   5.1474   5.1507   5.1507   6.0053   6.0053   6.0062   6.0062
     6.3807   6.3807   6.3822   6.3822   7.1055   7.1055   7.1096   7.1096
     7.9994   7.9994   7.9996   7.9996   8.9656   8.9656   8.9678   8.9678
     9.4854   9.4854   9.4855   9.4855  12.1813  12.1813  12.1841  12.1841
    12.8214  12.8214  12.8219  12.8219  13.3092  13.3092  13.3135  13.3135
    14.6769  14.6769  14.6801  14.6801  18.4000  18.4000

          k =-0.2333 0.4041 0.1283 (  7188 PWs)   bands (ev):

   -50.5955 -50.5955 -50.5955 -50.5955 -24.8563 -24.8563 -24.8563 -24.8563
   -24.7009 -24.7009 -24.7009 -24.7009 -24.6944 -24.6944 -24.6944 -24.6944
    -2.1530  -2.1530  -2.1513  -2.1513  -1.8269  -1.8269  -1.8255  -1.8255
     5.0737   5.0737   5.0763   5.0763   5.5315   5.5315   5.5324   5.5324
     6.4161   6.4161   6.4174   6.4174   7.1204   7.1204   7.1237   7.1237
     7.5758   7.5758   7.5774   7.5774   8.7037   8.7037   8.7071   8.7071
     9.6330   9.6330   9.6335   9.6335  12.3626  12.3626  12.3653  12.3653
    12.9179  12.9179  12.9184  12.9184  13.4250  13.4250  13.4294  13.4294
    14.8003  14.8003  14.8035  14.8035  18.0138  18.0140

          k =-0.2667 0.4619 0.1283 (  7194 PWs)   bands (ev):

   -50.5914 -50.5914 -50.5914 -50.5914 -24.8664 -24.8664 -24.8664 -24.8664
   -24.7333 -24.7333 -24.7333 -24.7333 -24.6928 -24.6928 -24.6928 -24.6928
    -1.9025  -1.9025  -1.9013  -1.9013  -1.7196  -1.7196  -1.7188  -1.7188
     5.0830   5.0830   5.0852   5.0852   5.1995   5.1995   5.2005   5.2005
     6.4578   6.4578   6.4582   6.4582   6.9651   6.9651   6.9675   6.9675
     7.3313   7.3313   7.3353   7.3353   8.4177   8.4177   8.4218   8.4218
     9.8660   9.8660   9.8669   9.8669  12.3383  12.3383  12.3397  12.3397
    13.1016  13.1016  13.1039  13.1039  13.5113  13.5113  13.5149  13.5149
    14.9133  14.9133  14.9156  14.9156  17.6815  17.6815

          k =-0.3000 0.5196 0.1283 (  7216 PWs)   bands (ev):

   -50.5890 -50.5890 -50.5890 -50.5890 -24.8560 -24.8560 -24.8560 -24.8560
   -24.7721 -24.7721 -24.7721 -24.7721 -24.6881 -24.6881 -24.6881 -24.6881
    -1.7470  -1.7470  -1.7463  -1.7463  -1.6586  -1.6586  -1.6584  -1.6584
     4.8959   4.8959   4.8975   4.8975   5.3787   5.3787   5.3801   5.3801
     6.3771   6.3771   6.3788   6.3788   6.6105   6.6105   6.6139   6.6139
     7.4164   7.4164   7.4198   7.4198   8.1615   8.1615   8.1651   8.1651
    10.1157  10.1157  10.1168  10.1168  12.1037  12.1037  12.1040  12.1040
    13.2115  13.2115  13.2167  13.2167  13.6633  13.6633  13.6644  13.6644
    15.0151  15.0151  15.0162  15.0162  17.5313  17.5313

          k =-0.3333 0.5774 0.1283 (  7212 PWs)   bands (ev):

   -50.5883 -50.5883 -50.5883 -50.5883 -24.8399 -24.8399 -24.8399 -24.8399
   -24.7968 -24.7968 -24.7968 -24.7968 -24.6868 -24.6868 -24.6868 -24.6868
    -1.6943  -1.6943  -1.6943  -1.6943  -1.6437  -1.6437  -1.6437  -1.6437
     4.8222   4.8222   4.8238   4.8238   5.6015   5.6015   5.6015   5.6015
     6.1696   6.1696   6.1719   6.1719   6.5112   6.5112   6.5112   6.5112
     7.4967   7.4967   7.4967   7.4967   8.0440   8.0440   8.0440   8.0440
    10.2276  10.2276  10.2288  10.2288  11.9745  11.9745  11.9745  11.9745
    13.1996  13.1996  13.2056  13.2056  13.7684  13.7684  13.7684  13.7684
    15.0545  15.0545  15.0545  15.0545  17.5488  17.5488

     Writing all to output data dir ./tmp/MoS2_bulk_pbe_vdW_wsoc.save/

     init_run     :      0.47s CPU      0.55s WALL (       1 calls)
     electrons    :    442.49s CPU    333.17s WALL (       1 calls)

     Called by init_run:
     wfcinit      :      0.00s CPU      0.00s WALL (       1 calls)
     wfcinit:atom :      0.20s CPU      0.22s WALL (      71 calls)
     wfcinit:wfcr :     11.27s CPU      9.18s WALL (      71 calls)
     potinit      :      0.03s CPU      0.05s WALL (       1 calls)
     hinit0       :      0.34s CPU      0.39s WALL (       1 calls)

     Called by electrons:
     c_bands      :    442.49s CPU    333.16s WALL (       1 calls)
     v_of_rho     :      0.02s CPU      0.03s WALL (       1 calls)
     v_h          :      0.00s CPU      0.00s WALL (       1 calls)
     v_xc         :      0.02s CPU      0.03s WALL (       1 calls)

     Called by c_bands:
     init_us_2    :      0.08s CPU      0.09s WALL (      71 calls)
     init_us_2:cp :      0.08s CPU      0.09s WALL (      71 calls)
     cegterg      :    429.63s CPU    322.20s WALL (     223 calls)

     Called by sum_band:

     Called by *egterg:
     cdiaghg      :     36.35s CPU     35.88s WALL (    3822 calls)
     cegterg:over :     80.29s CPU     44.69s WALL (    3751 calls)
     cegterg:upda :     46.20s CPU     23.32s WALL (    3751 calls)
     cegterg:last :     80.86s CPU     45.93s WALL (    1718 calls)
     h_psi        :    177.53s CPU    164.20s WALL (    4045 calls)
     g_psi        :      1.46s CPU      1.78s WALL (    3751 calls)

     Called by h_psi:
     h_psi:calbec :     35.98s CPU     22.84s WALL (    4045 calls)
     vloc_psi     :    105.64s CPU    113.78s WALL (    4045 calls)
     add_vuspsi   :     33.47s CPU     25.01s WALL (    4045 calls)

     General routines
     calbec       :     35.97s CPU     22.82s WALL (    4045 calls)
     fft          :      0.15s CPU      0.17s WALL (      14 calls)
     fftw         :     85.33s CPU     92.12s WALL (  483936 calls)
     davcio       :      0.00s CPU      0.17s WALL (     142 calls)

     Parallel routines

     PWSCF        :   7m24.35s CPU   5m35.70s WALL


   This run was terminated on:   8:18: 5  18Apr2024            

=------------------------------------------------------------------------------=
   JOB DONE.
=------------------------------------------------------------------------------=
