
     Program PWSCF v.7.2 starts on 18Apr2024 at  8: 5:13 

     This program is part of the open-source Quantum ESPRESSO suite
     for quantum simulation of materials; please cite
         "P. Giannozzi et al., J. Phys.:Condens. Matter 21 395502 (2009);
         "P. Giannozzi et al., J. Phys.:Condens. Matter 29 465901 (2017);
         "P. Giannozzi et al., J. Chem. Phys. 152 154105 (2020);
          URL http://www.quantum-espresso.org", 
     in publications or presentations arising from this work. More details at
     http://www.quantum-espresso.org/quote

     Parallel version (MPI & OpenMP), running on       8 processor cores
     Number of MPI processes:                 8
     Threads/MPI process:                     1

     MPI processes distributed on     1 nodes
     0 MiB available memory on the printing compute node when the environment starts

     Waiting for input...
     Reading input from standard input

     Current dimensions of program PWSCF are:
     Max number of different atomic species (ntypx) = 10
     Max number of k-points (npk) =  40000
     Max angular momentum in pseudopotentials (lmaxx) =  4

     R & G space division:  proc/nbgrp/npool/nimage =       8
     Subspace diagonalization in iterative solution of the eigenvalue problem:
     a serial algorithm will be used


     Parallelization info
     --------------------
     sticks:   dense  smooth     PW     G-vecs:    dense   smooth      PW
     Min          85      85     24                 7173     7173    1130
     Max          86      86     25                 7186     7186    1149
     Sum         685     685    199                57449    57449    9157

     Using Slab Decomposition



     bravais-lattice index     =            4
     lattice parameter (alat)  =       5.9926  a.u.
     unit-cell volume          =     726.4071 (a.u.)^3
     number of atoms/cell      =            6
     number of atomic types    =            2
     number of electrons       =        52.00
     number of Kohn-Sham states=           62
     kinetic-energy cutoff     =      70.0000  Ry
     charge density cutoff     =     280.0000  Ry
     scf convergence threshold =      1.0E-07
     mixing beta               =       0.7000
     number of iterations used =            8  plain     mixing
     Exchange-correlation= PBE
                           (   1   4   3   4   0   0   0)
     Non magnetic calculation with spin-orbit


     celldm(1)=   5.992589  celldm(2)=   0.000000  celldm(3)=   3.897678
     celldm(4)=   0.000000  celldm(5)=   0.000000  celldm(6)=   0.000000

     crystal axes: (cart. coord. in units of alat)
               a(1) = (   1.000000   0.000000   0.000000 )  
               a(2) = (  -0.500000   0.866025   0.000000 )  
               a(3) = (   0.000000   0.000000   3.897678 )  

     reciprocal axes: (cart. coord. in units 2 pi/alat)
               b(1) = (  1.000000  0.577350 -0.000000 )  
               b(2) = (  0.000000  1.154701  0.000000 )  
               b(3) = (  0.000000 -0.000000  0.256563 )  


     PseudoPot. # 1 for S  read from file:
     ../../../Pseudo/PBE/S_FR.upf
     MD5 check sum: a7319d53700e7dada26ada44d0048388
     Pseudo is Norm-conserving + core correction, Zval =  6.0
     Generated using ONCVPSP code by D. R. Hamann
     Using radial grid of 1146 points, 10 beta functions with: 
                l(1) =   0
                l(2) =   0
                l(3) =   1
                l(4) =   1
                l(5) =   1
                l(6) =   1
                l(7) =   2
                l(8) =   2
                l(9) =   2
               l(10) =   2

     PseudoPot. # 2 for Mo read from file:
     ../../../Pseudo/PBE/Mo_FR.upf
     MD5 check sum: 4e1c3579de4f68baf863f15f5be96aa1
     Pseudo is Norm-conserving + core correction, Zval = 14.0
     Generated using ONCVPSP code by D. R. Hamann
     Using radial grid of 1640 points, 10 beta functions with: 
                l(1) =   0
                l(2) =   0
                l(3) =   1
                l(4) =   1
                l(5) =   1
                l(6) =   1
                l(7) =   2
                l(8) =   2
                l(9) =   2
               l(10) =   2

     atomic species   valence    mass     pseudopotential
        S              6.00    32.06500     S ( 1.00)
        Mo            14.00   183.84000     Mo( 1.00)

     12 Sym. Ops., with inversion, found


                                    s                        frac. trans.

      isym =  1     identity                                     

 cryst.   s( 1) = (     1          0          0      )
                  (     0          1          0      )
                  (     0          0          1      )

 cart.    s( 1) = (  1.0000000  0.0000000  0.0000000 )
                  (  0.0000000  1.0000000  0.0000000 )
                  (  0.0000000  0.0000000  1.0000000 )


      isym =  2     180 deg rotation - cart. axis [1,0,0]        

 cryst.   s( 2) = (     1          0          0      )
                  (    -1         -1          0      )
                  (     0          0         -1      )

 cart.    s( 2) = (  1.0000000  0.0000000  0.0000000 )
                  (  0.0000000 -1.0000000  0.0000000 )
                  (  0.0000000  0.0000000 -1.0000000 )


      isym =  3     120 deg rotation - cryst. axis [0,0,1]       

 cryst.   s( 3) = (     0          1          0      )
                  (    -1         -1          0      )
                  (     0          0          1      )

 cart.    s( 3) = ( -0.5000000 -0.8660254  0.0000000 )
                  (  0.8660254 -0.5000000  0.0000000 )
                  (  0.0000000  0.0000000  1.0000000 )


      isym =  4     120 deg rotation - cryst. axis [0,0,-1]      

 cryst.   s( 4) = (    -1         -1          0      )
                  (     1          0          0      )
                  (     0          0          1      )

 cart.    s( 4) = ( -0.5000000  0.8660254  0.0000000 )
                  ( -0.8660254 -0.5000000  0.0000000 )
                  (  0.0000000  0.0000000  1.0000000 )


      isym =  5     180 deg rotation - cryst. axis [0,1,0]       

 cryst.   s( 5) = (    -1         -1          0      )
                  (     0          1          0      )
                  (     0          0         -1      )

 cart.    s( 5) = ( -0.5000000 -0.8660254  0.0000000 )
                  ( -0.8660254  0.5000000  0.0000000 )
                  (  0.0000000  0.0000000 -1.0000000 )


      isym =  6     180 deg rotation - cryst. axis [1,1,0]       

 cryst.   s( 6) = (     0          1          0      )
                  (     1          0          0      )
                  (     0          0         -1      )

 cart.    s( 6) = ( -0.5000000  0.8660254  0.0000000 )
                  (  0.8660254  0.5000000  0.0000000 )
                  (  0.0000000  0.0000000 -1.0000000 )


      isym =  7     inversion                                    

 cryst.   s( 7) = (    -1          0          0      )
                  (     0         -1          0      )
                  (     0          0         -1      )

 cart.    s( 7) = ( -1.0000000  0.0000000  0.0000000 )
                  (  0.0000000 -1.0000000  0.0000000 )
                  (  0.0000000  0.0000000 -1.0000000 )


      isym =  8     inv. 180 deg rotation - cart. axis [1,0,0]   

 cryst.   s( 8) = (    -1          0          0      )
                  (     1          1          0      )
                  (     0          0          1      )

 cart.    s( 8) = ( -1.0000000  0.0000000  0.0000000 )
                  (  0.0000000  1.0000000  0.0000000 )
                  (  0.0000000  0.0000000  1.0000000 )


      isym =  9     inv. 120 deg rotation - cryst. axis [0,0,1]  

 cryst.   s( 9) = (     0         -1          0      )
                  (     1          1          0      )
                  (     0          0         -1      )

 cart.    s( 9) = (  0.5000000  0.8660254  0.0000000 )
                  ( -0.8660254  0.5000000  0.0000000 )
                  (  0.0000000  0.0000000 -1.0000000 )


      isym = 10     inv. 120 deg rotation - cryst. axis [0,0,-1] 

 cryst.   s(10) = (     1          1          0      )
                  (    -1          0          0      )
                  (     0          0         -1      )

 cart.    s(10) = (  0.5000000 -0.8660254  0.0000000 )
                  (  0.8660254  0.5000000  0.0000000 )
                  (  0.0000000  0.0000000 -1.0000000 )


      isym = 11     inv. 180 deg rotation - cryst. axis [0,1,0]  

 cryst.   s(11) = (     1          1          0      )
                  (     0         -1          0      )
                  (     0          0          1      )

 cart.    s(11) = (  0.5000000  0.8660254  0.0000000 )
                  (  0.8660254 -0.5000000  0.0000000 )
                  (  0.0000000  0.0000000  1.0000000 )


      isym = 12     inv. 180 deg rotation - cryst. axis [1,1,0]  

 cryst.   s(12) = (     0         -1          0      )
                  (    -1          0          0      )
                  (     0          0          1      )

 cart.    s(12) = (  0.5000000 -0.8660254  0.0000000 )
                  ( -0.8660254 -0.5000000  0.0000000 )
                  (  0.0000000  0.0000000  1.0000000 )


     double point group D_3d (-3m) 
     there are 12 classes and  6 irreducible representations
     the character table:

       E     -E    2C3   -2C3  3C2'  -3C2' i     -i    2S6   -2S6  3s_v  -3s_v
                                                                              
G_4+   2.00 -2.00  1.00 -1.00  0.00  0.00  2.00 -2.00  1.00 -1.00  0.00  0.00
G_5+   1.00 -1.00 -1.00  1.00  0.00  0.00  1.00 -1.00 -1.00  1.00  0.00  0.00
G_6+   1.00 -1.00 -1.00  1.00  0.00  0.00  1.00 -1.00 -1.00  1.00  0.00  0.00
G_4-   2.00 -2.00  1.00 -1.00  0.00  0.00 -2.00  2.00 -1.00  1.00  0.00  0.00
G_5-   1.00 -1.00 -1.00  1.00  0.00  0.00 -1.00  1.00  1.00 -1.00  0.00  0.00
G_6-   1.00 -1.00 -1.00  1.00  0.00  0.00 -1.00  1.00  1.00 -1.00  0.00  0.00

     imaginary part

       E     -E    2C3   -2C3  3C2'  -3C2' i     -i    2S6   -2S6  3s_v  -3s_v
                                                                              
G_4+   0.00  0.00  0.00  0.00  0.00  0.00  0.00  0.00  0.00  0.00  0.00  0.00
G_5+   0.00  0.00  0.00  0.00  1.00 -1.00  0.00  0.00  0.00  0.00  1.00 -1.00
G_6+   0.00  0.00  0.00  0.00 -1.00  1.00  0.00  0.00  0.00  0.00 -1.00  1.00
G_4-   0.00  0.00  0.00  0.00  0.00  0.00  0.00  0.00  0.00  0.00  0.00  0.00
G_5-   0.00  0.00  0.00  0.00  1.00 -1.00  0.00  0.00  0.00  0.00 -1.00  1.00
G_6-   0.00  0.00  0.00  0.00 -1.00  1.00  0.00  0.00  0.00  0.00  1.00 -1.00

     the symmetry operations in each class and the name of the first element:

     E             1
          identity                                               
     -E           -1
          identity E                                             
     2C3           3    4
          120 deg rotation - cryst. axis [0,0,1]                 
     -2C3         -3   -4
          120 deg rotation - cryst. axis [0,0,1] E               
     3C2'          5    6   -2
          180 deg rotation - cryst. axis [0,1,0]                 
     -3C2'         2   -5   -6
          180 deg rotation - cart. axis [1,0,0]                  
     i             7
          inversion                                              
     -i           -7
          inversion E                                            
     2S6           9   10
          inv. 120 deg rotation - cryst. axis [0,0,1]            
     -2S6         -9  -10
          inv. 120 deg rotation - cryst. axis [0,0,1] E          
     3s_v         11   12   -8
          inv. 180 deg rotation - cryst. axis [0,1,0]            
     -3s_v         8  -11  -12
          inv. 180 deg rotation - cart. axis [1,0,0]             

   Cartesian axes

     site n.     atom                  positions (alat units)
         1           Mo  tau(   1) = (  -0.0000003   0.5773503  -0.9751726  )
         2           Mo  tau(   2) = (   0.5000002   0.2886748   0.9751726  )
         3           S   tau(   3) = (   0.5000002   0.2886748  -0.4800038  )
         4           S   tau(   4) = (  -0.0000003   0.5773503   0.4800038  )
         5           S   tau(   5) = (  -0.0000003   0.5773503   1.4703207  )
         6           S   tau(   6) = (   0.5000002   0.2886748  -1.4703207  )

   Crystallographic axes

     site n.     atom                  positions (cryst. coord.)
         1           Mo  tau(   1) = (  0.3333330  0.6666667 -0.2501932  )
         2           Mo  tau(   2) = (  0.6666667  0.3333330  0.2501932  )
         3           S   tau(   3) = (  0.6666667  0.3333330 -0.1231512  )
         4           S   tau(   4) = (  0.3333330  0.6666667  0.1231512  )
         5           S   tau(   5) = (  0.3333330  0.6666667  0.3772299  )
         6           S   tau(   6) = (  0.6666667  0.3333330 -0.3772299  )

     number of k points=    50  Marzari-Vanderbilt smearing, width (Ry)=  0.0050
                       cart. coord. in units 2pi/alat
        k(    1) = (   0.0000000   0.0000000   0.0000000), wk =   0.0023148
        k(    2) = (   0.0000000   0.0000000   0.0855210), wk =   0.0046296
        k(    3) = (   0.0000000   0.0962250   0.0000000), wk =   0.0138889
        k(    4) = (   0.0000000   0.0962250   0.0855210), wk =   0.0138889
        k(    5) = (   0.0000000   0.1924501   0.0000000), wk =   0.0138889
        k(    6) = (   0.0000000   0.1924501   0.0855210), wk =   0.0138889
        k(    7) = (   0.0000000   0.2886751   0.0000000), wk =   0.0138889
        k(    8) = (   0.0000000   0.2886751   0.0855210), wk =   0.0138889
        k(    9) = (   0.0000000   0.3849002   0.0000000), wk =   0.0138889
        k(   10) = (   0.0000000   0.3849002   0.0855210), wk =   0.0138889
        k(   11) = (   0.0000000   0.4811252   0.0000000), wk =   0.0138889
        k(   12) = (   0.0000000   0.4811252   0.0855210), wk =   0.0138889
        k(   13) = (   0.0000000  -0.5773503   0.0000000), wk =   0.0069444
        k(   14) = (   0.0000000  -0.5773503   0.0855210), wk =   0.0138889
        k(   15) = (   0.0833333   0.1443376   0.0000000), wk =   0.0138889
        k(   16) = (   0.0833333   0.1443376   0.0855210), wk =   0.0277778
        k(   17) = (   0.0833333   0.2405626   0.0000000), wk =   0.0277778
        k(   18) = (   0.0833333   0.2405626   0.0855210), wk =   0.0277778
        k(   19) = (   0.0833333   0.3367877   0.0000000), wk =   0.0277778
        k(   20) = (   0.0833333   0.3367877   0.0855210), wk =   0.0277778
        k(   21) = (   0.0833333   0.4330127   0.0000000), wk =   0.0277778
        k(   22) = (   0.0833333   0.4330127   0.0855210), wk =   0.0277778
        k(   23) = (   0.0833333   0.5292377   0.0000000), wk =   0.0277778
        k(   24) = (   0.0833333   0.5292377   0.0855210), wk =   0.0277778
        k(   25) = (   0.1666667   0.2886751   0.0000000), wk =   0.0138889
        k(   26) = (   0.1666667   0.2886751   0.0855210), wk =   0.0277778
        k(   27) = (   0.1666667   0.3849002   0.0000000), wk =   0.0277778
        k(   28) = (   0.1666667   0.3849002   0.0855210), wk =   0.0277778
        k(   29) = (   0.1666667   0.4811252   0.0000000), wk =   0.0277778
        k(   30) = (   0.1666667   0.4811252   0.0855210), wk =   0.0277778
        k(   31) = (   0.1666667   0.5773503   0.0000000), wk =   0.0138889
        k(   32) = (   0.1666667   0.5773503   0.0855210), wk =   0.0277778
        k(   33) = (   0.2500000   0.4330127   0.0000000), wk =   0.0138889
        k(   34) = (   0.2500000   0.4330127   0.0855210), wk =   0.0277778
        k(   35) = (   0.2500000   0.5292377   0.0000000), wk =   0.0277778
        k(   36) = (   0.2500000   0.5292377   0.0855210), wk =   0.0277778
        k(   37) = (   0.3333333   0.5773503   0.0000000), wk =   0.0046296
        k(   38) = (   0.3333333   0.5773503   0.0855210), wk =   0.0092593
        k(   39) = (   0.0000000   0.0962250  -0.0855210), wk =   0.0138889
        k(   40) = (   0.0000000   0.1924501  -0.0855210), wk =   0.0138889
        k(   41) = (   0.0000000   0.2886751  -0.0855210), wk =   0.0138889
        k(   42) = (   0.0000000   0.3849002  -0.0855210), wk =   0.0138889
        k(   43) = (   0.0000000   0.4811252  -0.0855210), wk =   0.0138889
        k(   44) = (  -0.0833333   0.2405626  -0.0855210), wk =   0.0277778
        k(   45) = (  -0.0833333   0.3367877  -0.0855210), wk =   0.0277778
        k(   46) = (  -0.0833333   0.4330127  -0.0855210), wk =   0.0277778
        k(   47) = (  -0.0833333   0.5292377  -0.0855210), wk =   0.0277778
        k(   48) = (  -0.1666667   0.3849002  -0.0855210), wk =   0.0277778
        k(   49) = (  -0.1666667   0.4811252  -0.0855210), wk =   0.0277778
        k(   50) = (  -0.2500000   0.5292377  -0.0855210), wk =   0.0277778

                       cryst. coord.
        k(    1) = (   0.0000000   0.0000000   0.0000000), wk =   0.0023148
        k(    2) = (   0.0000000   0.0000000   0.3333333), wk =   0.0046296
        k(    3) = (   0.0000000   0.0833333   0.0000000), wk =   0.0138889
        k(    4) = (   0.0000000   0.0833333   0.3333333), wk =   0.0138889
        k(    5) = (   0.0000000   0.1666667   0.0000000), wk =   0.0138889
        k(    6) = (   0.0000000   0.1666667   0.3333333), wk =   0.0138889
        k(    7) = (   0.0000000   0.2500000   0.0000000), wk =   0.0138889
        k(    8) = (   0.0000000   0.2500000   0.3333333), wk =   0.0138889
        k(    9) = (   0.0000000   0.3333333   0.0000000), wk =   0.0138889
        k(   10) = (   0.0000000   0.3333333   0.3333333), wk =   0.0138889
        k(   11) = (   0.0000000   0.4166667   0.0000000), wk =   0.0138889
        k(   12) = (   0.0000000   0.4166667   0.3333333), wk =   0.0138889
        k(   13) = (   0.0000000  -0.5000000   0.0000000), wk =   0.0069444
        k(   14) = (   0.0000000  -0.5000000   0.3333333), wk =   0.0138889
        k(   15) = (   0.0833333   0.0833333   0.0000000), wk =   0.0138889
        k(   16) = (   0.0833333   0.0833333   0.3333333), wk =   0.0277778
        k(   17) = (   0.0833333   0.1666667   0.0000000), wk =   0.0277778
        k(   18) = (   0.0833333   0.1666667   0.3333333), wk =   0.0277778
        k(   19) = (   0.0833333   0.2500000   0.0000000), wk =   0.0277778
        k(   20) = (   0.0833333   0.2500000   0.3333333), wk =   0.0277778
        k(   21) = (   0.0833333   0.3333333   0.0000000), wk =   0.0277778
        k(   22) = (   0.0833333   0.3333333   0.3333333), wk =   0.0277778
        k(   23) = (   0.0833333   0.4166667   0.0000000), wk =   0.0277778
        k(   24) = (   0.0833333   0.4166667   0.3333333), wk =   0.0277778
        k(   25) = (   0.1666667   0.1666667   0.0000000), wk =   0.0138889
        k(   26) = (   0.1666667   0.1666667   0.3333333), wk =   0.0277778
        k(   27) = (   0.1666667   0.2500000   0.0000000), wk =   0.0277778
        k(   28) = (   0.1666667   0.2500000   0.3333333), wk =   0.0277778
        k(   29) = (   0.1666667   0.3333333   0.0000000), wk =   0.0277778
        k(   30) = (   0.1666667   0.3333333   0.3333333), wk =   0.0277778
        k(   31) = (   0.1666667   0.4166667   0.0000000), wk =   0.0138889
        k(   32) = (   0.1666667   0.4166667   0.3333333), wk =   0.0277778
        k(   33) = (   0.2500000   0.2500000   0.0000000), wk =   0.0138889
        k(   34) = (   0.2500000   0.2500000   0.3333333), wk =   0.0277778
        k(   35) = (   0.2500000   0.3333333   0.0000000), wk =   0.0277778
        k(   36) = (   0.2500000   0.3333333   0.3333333), wk =   0.0277778
        k(   37) = (   0.3333333   0.3333333   0.0000000), wk =   0.0046296
        k(   38) = (   0.3333333   0.3333333   0.3333333), wk =   0.0092593
        k(   39) = (   0.0000000   0.0833333  -0.3333333), wk =   0.0138889
        k(   40) = (   0.0000000   0.1666667  -0.3333333), wk =   0.0138889
        k(   41) = (   0.0000000   0.2500000  -0.3333333), wk =   0.0138889
        k(   42) = (   0.0000000   0.3333333  -0.3333333), wk =   0.0138889
        k(   43) = (   0.0000000   0.4166667  -0.3333333), wk =   0.0138889
        k(   44) = (  -0.0833333   0.2500000  -0.3333333), wk =   0.0277778
        k(   45) = (  -0.0833333   0.3333333  -0.3333333), wk =   0.0277778
        k(   46) = (  -0.0833333   0.4166667  -0.3333333), wk =   0.0277778
        k(   47) = (  -0.0833333   0.5000000  -0.3333333), wk =   0.0277778
        k(   48) = (  -0.1666667   0.4166667  -0.3333333), wk =   0.0277778
        k(   49) = (  -0.1666667   0.5000000  -0.3333333), wk =   0.0277778
        k(   50) = (  -0.2500000   0.5833333  -0.3333333), wk =   0.0277778

     Dense  grid:    57449 G-vectors     FFT dimensions: (  32,  32, 125)

     Dynamical RAM for                 wfc:       1.70 MB

     Dynamical RAM for     wfc (w. buffer):      86.65 MB

     Dynamical RAM for           str. fact:       0.22 MB

     Dynamical RAM for           local pot:       0.00 MB

     Dynamical RAM for          nlocal pot:       2.80 MB

     Dynamical RAM for                qrad:       7.04 MB

     Dynamical RAM for          rho,v,vnew:       2.82 MB

     Dynamical RAM for               rhoin:       0.94 MB

     Dynamical RAM for            rho*nmix:       7.02 MB

     Dynamical RAM for           G-vectors:       0.47 MB

     Dynamical RAM for          h,s,v(r/c):       0.70 MB

     Dynamical RAM for          <psi|beta>:       0.39 MB

     Dynamical RAM for                 psi:       3.40 MB

     Dynamical RAM for                hpsi:       3.40 MB

     Dynamical RAM for      wfcinit/wfcrot:       3.08 MB

     Estimated static dynamical RAM per process >     102.25 MB

     Estimated max dynamical RAM per process >     117.16 MB

     Estimated total dynamical RAM >     937.27 MB

     Initial potential from superposition of free atoms

     starting charge      51.9970, renormalised to      52.0000
     Starting wfcs are   72 randomized atomic wfcs

     total cpu time spent up to now is        6.0 secs

     Self-consistent Calculation

     iteration #  1     ecut=    70.00 Ry     beta= 0.70
     Davidson diagonalization with overlap

---- Real-time Memory Report at c_bands before calling an iterative solver
             0 MiB given to the printing process from OS
             0 MiB allocation reported by mallinfo(arena+hblkhd)
             0 MiB available memory on the node where the printing process lives
------------------
     ethr =  1.00E-02,  avg # of iterations =  2.5

     total cpu time spent up to now is       22.9 secs

     total energy              =    -369.21965864 Ry
     estimated scf accuracy    <       0.92746732 Ry

     iteration #  2     ecut=    70.00 Ry     beta= 0.70
     Davidson diagonalization with overlap

---- Real-time Memory Report at c_bands before calling an iterative solver
             0 MiB given to the printing process from OS
             0 MiB allocation reported by mallinfo(arena+hblkhd)
             0 MiB available memory on the node where the printing process lives
------------------
     ethr =  1.78E-03,  avg # of iterations =  6.0

     total cpu time spent up to now is       49.2 secs

     total energy              =    -368.03116170 Ry
     estimated scf accuracy    <      12.86952520 Ry

     iteration #  3     ecut=    70.00 Ry     beta= 0.70
     Davidson diagonalization with overlap

---- Real-time Memory Report at c_bands before calling an iterative solver
             0 MiB given to the printing process from OS
             0 MiB allocation reported by mallinfo(arena+hblkhd)
             0 MiB available memory on the node where the printing process lives
------------------
     ethr =  1.78E-03,  avg # of iterations =  4.7

     total cpu time spent up to now is       71.1 secs

     total energy              =    -369.76048454 Ry
     estimated scf accuracy    <       0.10899670 Ry

     iteration #  4     ecut=    70.00 Ry     beta= 0.70
     Davidson diagonalization with overlap

---- Real-time Memory Report at c_bands before calling an iterative solver
             0 MiB given to the printing process from OS
             0 MiB allocation reported by mallinfo(arena+hblkhd)
             0 MiB available memory on the node where the printing process lives
------------------
     ethr =  2.10E-04,  avg # of iterations =  2.6

     total cpu time spent up to now is       87.1 secs

     total energy              =    -369.76416830 Ry
     estimated scf accuracy    <       0.02692366 Ry

     iteration #  5     ecut=    70.00 Ry     beta= 0.70
     Davidson diagonalization with overlap

---- Real-time Memory Report at c_bands before calling an iterative solver
             0 MiB given to the printing process from OS
             0 MiB allocation reported by mallinfo(arena+hblkhd)
             0 MiB available memory on the node where the printing process lives
------------------
     ethr =  5.18E-05,  avg # of iterations =  4.0

     total cpu time spent up to now is      104.3 secs

     total energy              =    -369.76871547 Ry
     estimated scf accuracy    <       0.00025524 Ry

     iteration #  6     ecut=    70.00 Ry     beta= 0.70
     Davidson diagonalization with overlap

---- Real-time Memory Report at c_bands before calling an iterative solver
             0 MiB given to the printing process from OS
             0 MiB allocation reported by mallinfo(arena+hblkhd)
             0 MiB available memory on the node where the printing process lives
------------------
     c_bands:  4 eigenvalues not converged
     c_bands:  1 eigenvalues not converged
     c_bands:  1 eigenvalues not converged
     c_bands:  4 eigenvalues not converged
     c_bands:  1 eigenvalues not converged
     ethr =  4.91E-07,  avg # of iterations = 10.0

     total cpu time spent up to now is      137.8 secs

     total energy              =    -369.76878775 Ry
     estimated scf accuracy    <       0.00405637 Ry

     iteration #  7     ecut=    70.00 Ry     beta= 0.70
     Davidson diagonalization with overlap

---- Real-time Memory Report at c_bands before calling an iterative solver
             0 MiB given to the printing process from OS
             0 MiB allocation reported by mallinfo(arena+hblkhd)
             0 MiB available memory on the node where the printing process lives
------------------
     ethr =  4.91E-07,  avg # of iterations =  6.0

     total cpu time spent up to now is      179.7 secs

     total energy              =    -369.76907859 Ry
     estimated scf accuracy    <       0.00016556 Ry

     iteration #  8     ecut=    70.00 Ry     beta= 0.70
     Davidson diagonalization with overlap

---- Real-time Memory Report at c_bands before calling an iterative solver
             0 MiB given to the printing process from OS
             0 MiB allocation reported by mallinfo(arena+hblkhd)
             0 MiB available memory on the node where the printing process lives
------------------
     ethr =  3.18E-07,  avg # of iterations =  2.0

     total cpu time spent up to now is      213.0 secs

     total energy              =    -369.76909620 Ry
     estimated scf accuracy    <       0.00000473 Ry

     iteration #  9     ecut=    70.00 Ry     beta= 0.70
     Davidson diagonalization with overlap

---- Real-time Memory Report at c_bands before calling an iterative solver
             0 MiB given to the printing process from OS
             0 MiB allocation reported by mallinfo(arena+hblkhd)
             0 MiB available memory on the node where the printing process lives
------------------
     ethr =  9.10E-09,  avg # of iterations =  5.3

     total cpu time spent up to now is      254.5 secs

     total energy              =    -369.76909883 Ry
     estimated scf accuracy    <       0.00000269 Ry

     iteration # 10     ecut=    70.00 Ry     beta= 0.70
     Davidson diagonalization with overlap

---- Real-time Memory Report at c_bands before calling an iterative solver
             0 MiB given to the printing process from OS
             0 MiB allocation reported by mallinfo(arena+hblkhd)
             0 MiB available memory on the node where the printing process lives
------------------
     ethr =  5.17E-09,  avg # of iterations =  1.4

     total cpu time spent up to now is      282.0 secs

     total energy              =    -369.76909882 Ry
     estimated scf accuracy    <       0.00000058 Ry

     iteration # 11     ecut=    70.00 Ry     beta= 0.70
     Davidson diagonalization with overlap

---- Real-time Memory Report at c_bands before calling an iterative solver
             0 MiB given to the printing process from OS
             0 MiB allocation reported by mallinfo(arena+hblkhd)
             0 MiB available memory on the node where the printing process lives
------------------
     ethr =  1.12E-09,  avg # of iterations =  4.6

     total cpu time spent up to now is      329.3 secs

     End of self-consistent calculation

          k = 0.0000 0.0000 0.0000 (  7113 PWs)   bands (ev):

   -50.5711 -50.5711 -50.5711 -50.5711 -26.2972 -26.2972 -26.2971 -26.2971
   -23.8701 -23.8701 -23.8699 -23.8699 -23.7109 -23.7109 -23.7108 -23.7108
    -3.9977  -3.9977  -3.7308  -3.7308  -2.8040  -2.8040  -2.3690  -2.3690
     4.0975   4.0975   5.1186   5.1186   7.4422   7.4422   7.6526   7.6526
     7.6650   7.6650   7.7234   7.7234   7.7320   7.7320   8.7293   8.7293
     8.7775   8.7775   8.8153   8.8153   8.8616   8.8616   9.7230   9.7230
     9.7821   9.7821  10.9104  10.9104  12.9784  12.9784  13.0075  13.0076
    13.0527  13.0530  13.0879  13.0880  13.1802  13.1802

     occupation numbers 
     1.0000   1.0000   1.0000   1.0000   1.0000   1.0000   1.0000   1.0000
     1.0000   1.0000   1.0000   1.0000   1.0000   1.0000   1.0000   1.0000
     1.0000   1.0000   1.0000   1.0000   1.0000   1.0000   1.0000   1.0000
     1.0000   1.0000   1.0000   1.0000   1.0000   1.0000   1.0000   1.0000
     1.0000   1.0000   1.0000   1.0000   1.0000   1.0000   1.0000   1.0000
     1.0000   1.0000   1.0000   1.0000   1.0000   1.0000   1.0000   1.0000
     1.0000   1.0000   1.0000   1.0000   0.0000   0.0000   0.0000   0.0000
     0.0000   0.0000   0.0000   0.0000   0.0000   0.0000

          k = 0.0000 0.0000 0.0855 (  7106 PWs)   bands (ev):

   -50.5711 -50.5711 -50.5711 -50.5711 -26.2972 -26.2972 -26.2971 -26.2971
   -23.8700 -23.8700 -23.8700 -23.8700 -23.7109 -23.7109 -23.7108 -23.7108
    -3.9444  -3.9444  -3.8149  -3.8149  -2.6798  -2.6798  -2.4663  -2.4663
     4.3012   4.3012   4.7909   4.7909   7.6556   7.6556   7.6618   7.6618
     7.7166   7.7166   7.7282   7.7282   7.9253   7.9253   8.7320   8.7320
     8.7667   8.7667   8.8269   8.8269   8.8500   8.8500   8.8571   8.8571
    10.4231  10.4231  10.7962  10.7962  12.9810  12.9810  12.9937  12.9938
    13.0563  13.0565  13.0709  13.0709  13.2287  13.2292

     occupation numbers 
     1.0000   1.0000   1.0000   1.0000   1.0000   1.0000   1.0000   1.0000
     1.0000   1.0000   1.0000   1.0000   1.0000   1.0000   1.0000   1.0000
     1.0000   1.0000   1.0000   1.0000   1.0000   1.0000   1.0000   1.0000
     1.0000   1.0000   1.0000   1.0000   1.0000   1.0000   1.0000   1.0000
     1.0000   1.0000   1.0000   1.0000   1.0000   1.0000   1.0000   1.0000
     1.0000   1.0000   1.0000   1.0000   1.0000   1.0000   1.0000   1.0000
     1.0000   1.0000   1.0000   1.0000   0.0000   0.0000   0.0000   0.0000
     0.0000   0.0000   0.0000   0.0000   0.0000   0.0000

          k = 0.0000 0.0962 0.0000 (  7109 PWs)   bands (ev):

   -50.5684 -50.5684 -50.5684 -50.5684 -26.3042 -26.3042 -26.3041 -26.3041
   -23.8731 -23.8731 -23.8730 -23.8730 -23.7281 -23.7281 -23.7281 -23.7281
    -3.8933  -3.8933  -3.6280  -3.6280  -2.7537  -2.7537  -2.3314  -2.3314
     4.2180   4.2180   5.2361   5.2361   7.2400   7.2400   7.4465   7.4465
     7.4678   7.4678   7.7939   7.7939   7.8123   7.8123   8.3758   8.3758
     8.6102   8.6102   8.6515   8.6515   8.8991   8.8991   9.7862   9.7862
     9.8718   9.8718  10.7098  10.7098  12.8931  12.8931  12.9350  12.9350
    13.0009  13.0009  13.0476  13.0476  13.0920  13.0921

     occupation numbers 
     1.0000   1.0000   1.0000   1.0000   1.0000   1.0000   1.0000   1.0000
     1.0000   1.0000   1.0000   1.0000   1.0000   1.0000   1.0000   1.0000
     1.0000   1.0000   1.0000   1.0000   1.0000   1.0000   1.0000   1.0000
     1.0000   1.0000   1.0000   1.0000   1.0000   1.0000   1.0000   1.0000
     1.0000   1.0000   1.0000   1.0000   1.0000   1.0000   1.0000   1.0000
     1.0000   1.0000   1.0000   1.0000   1.0000   1.0000   1.0000   1.0000
     1.0000   1.0000   1.0000   1.0000   0.0000   0.0000   0.0000   0.0000
     0.0000   0.0000   0.0000   0.0000   0.0000   0.0000

          k = 0.0000 0.0962 0.0855 (  7118 PWs)   bands (ev):

   -50.5684 -50.5684 -50.5684 -50.5684 -26.3042 -26.3042 -26.3042 -26.3042
   -23.8731 -23.8731 -23.8730 -23.8730 -23.7281 -23.7281 -23.7281 -23.7281
    -3.8405  -3.8405  -3.7121  -3.7121  -2.6320  -2.6320  -2.4251  -2.4251
     4.4173   4.4173   4.9025   4.9025   7.4472   7.4472   7.4593   7.4593
     7.6571   7.6571   7.7993   7.7993   7.8089   7.8089   8.2268   8.2268
     8.6196   8.6196   8.6404   8.6404   8.9376   8.9376   9.2109   9.2109
    10.3566  10.3566  10.6317  10.6317  12.9010  12.9010  12.9199  12.9199
    13.0317  13.0317  13.0663  13.0663  13.0878  13.0878

     occupation numbers 
     1.0000   1.0000   1.0000   1.0000   1.0000   1.0000   1.0000   1.0000
     1.0000   1.0000   1.0000   1.0000   1.0000   1.0000   1.0000   1.0000
     1.0000   1.0000   1.0000   1.0000   1.0000   1.0000   1.0000   1.0000
     1.0000   1.0000   1.0000   1.0000   1.0000   1.0000   1.0000   1.0000
     1.0000   1.0000   1.0000   1.0000   1.0000   1.0000   1.0000   1.0000
     1.0000   1.0000   1.0000   1.0000   1.0000   1.0000   1.0000   1.0000
     1.0000   1.0000   1.0000   1.0000   0.0000   0.0000   0.0000   0.0000
     0.0000   0.0000   0.0000   0.0000   0.0000   0.0000

          k = 0.0000 0.1925 0.0000 (  7140 PWs)   bands (ev):

   -50.5613 -50.5613 -50.5613 -50.5613 -26.3239 -26.3239 -26.3238 -26.3238
   -23.8853 -23.8853 -23.8852 -23.8852 -23.7704 -23.7704 -23.7704 -23.7704
    -3.5950  -3.5950  -3.3365  -3.3365  -2.6101  -2.6101  -2.2254  -2.2254
     4.5322   4.5322   5.5169   5.5169   6.8024   6.8024   6.8904   6.8904
     6.9592   6.9592   7.6674   7.6674   8.0812   8.0812   8.1147   8.1147
     8.2153   8.2153   8.2726   8.2726   8.8769   8.8769   9.7317   9.7317
     9.7574   9.7574  10.1520  10.1520  12.3987  12.3987  12.7675  12.7675
    12.7785  12.7786  12.9622  12.9623  12.9931  12.9932

     occupation numbers 
     1.0000   1.0000   1.0000   1.0000   1.0000   1.0000   1.0000   1.0000
     1.0000   1.0000   1.0000   1.0000   1.0000   1.0000   1.0000   1.0000
     1.0000   1.0000   1.0000   1.0000   1.0000   1.0000   1.0000   1.0000
     1.0000   1.0000   1.0000   1.0000   1.0000   1.0000   1.0000   1.0000
     1.0000   1.0000   1.0000   1.0000   1.0000   1.0000   1.0000   1.0000
     1.0000   1.0000   1.0000   1.0000   1.0000   1.0000   1.0000   1.0000
     1.0000   1.0000   1.0000   1.0000   0.0000   0.0000   0.0000   0.0000
     0.0000   0.0000   0.0000   0.0000   0.0000   0.0000

          k = 0.0000 0.1925 0.0855 (  7156 PWs)   bands (ev):

   -50.5613 -50.5613 -50.5613 -50.5613 -26.3239 -26.3239 -26.3239 -26.3239
   -23.8853 -23.8853 -23.8853 -23.8853 -23.7704 -23.7704 -23.7704 -23.7704
    -3.5445  -3.5445  -3.4201  -3.4201  -2.4960  -2.4960  -2.3086  -2.3086
     4.7152   4.7152   5.1745   5.1745   6.8898   6.8898   6.9151   6.9151
     7.1826   7.1826   7.5586   7.5586   8.0874   8.0874   8.1034   8.1034
     8.2325   8.2325   8.2604   8.2604   8.9652   8.9652   9.2935   9.2935
    10.0323  10.0323  10.1335  10.1335  12.5052  12.5052  12.6890  12.6890
    12.8163  12.8163  12.9201  12.9201  13.0114  13.0121

     occupation numbers 
     1.0000   1.0000   1.0000   1.0000   1.0000   1.0000   1.0000   1.0000
     1.0000   1.0000   1.0000   1.0000   1.0000   1.0000   1.0000   1.0000
     1.0000   1.0000   1.0000   1.0000   1.0000   1.0000   1.0000   1.0000
     1.0000   1.0000   1.0000   1.0000   1.0000   1.0000   1.0000   1.0000
     1.0000   1.0000   1.0000   1.0000   1.0000   1.0000   1.0000   1.0000
     1.0000   1.0000   1.0000   1.0000   1.0000   1.0000   1.0000   1.0000
     1.0000   1.0000   1.0000   1.0000   0.0000   0.0000   0.0000   0.0000
     0.0000   0.0000   0.0000   0.0000   0.0000   0.0000

          k = 0.0000 0.2887 0.0000 (  7158 PWs)   bands (ev):

   -50.5515 -50.5515 -50.5515 -50.5515 -26.3519 -26.3519 -26.3519 -26.3519
   -23.9174 -23.9174 -23.9173 -23.9173 -23.8101 -23.8101 -23.8100 -23.8100
    -3.1491  -3.1491  -2.9082  -2.9082  -2.3958  -2.3958  -2.0722  -2.0722
     4.8460   4.8460   5.5953   5.5953   6.2943   6.2943   6.3271   6.3271
     6.6329   6.6329   6.9051   6.9051   7.7695   7.7695   7.8378   7.8378
     8.4793   8.4793   8.5497   8.5497   8.6299   8.6299   9.3106   9.3106
     9.4456   9.4456   9.5675   9.5675  12.1235  12.1235  12.5156  12.5156
    12.7145  12.7145  12.9265  12.9265  13.0238  13.0238

     occupation numbers 
     1.0000   1.0000   1.0000   1.0000   1.0000   1.0000   1.0000   1.0000
     1.0000   1.0000   1.0000   1.0000   1.0000   1.0000   1.0000   1.0000
     1.0000   1.0000   1.0000   1.0000   1.0000   1.0000   1.0000   1.0000
     1.0000   1.0000   1.0000   1.0000   1.0000   1.0000   1.0000   1.0000
     1.0000   1.0000   1.0000   1.0000   1.0000   1.0000   1.0000   1.0000
     1.0000   1.0000   1.0000   1.0000   1.0000   1.0000   1.0000   1.0000
     1.0000   1.0000   1.0000   1.0000   0.0000   0.0000   0.0000   0.0000
     0.0000   0.0000   0.0000   0.0000   0.0000   0.0000

          k = 0.0000 0.2887 0.0855 (  7181 PWs)   bands (ev):

   -50.5515 -50.5515 -50.5515 -50.5515 -26.3520 -26.3520 -26.3519 -26.3519
   -23.9174 -23.9174 -23.9173 -23.9173 -23.8101 -23.8101 -23.8101 -23.8101
    -3.1036  -3.1036  -2.9891  -2.9891  -2.2947  -2.2947  -2.1389  -2.1389
     4.9864   4.9864   5.3374   5.3374   6.3062   6.3062   6.3538   6.3538
     6.7603   6.7603   6.8911   6.8911   7.7854   7.7854   7.8194   7.8194
     8.4995   8.4995   8.5342   8.5342   8.7370   8.7370   9.0479   9.0479
     9.5299   9.5299   9.5665   9.5665  12.2947  12.2947  12.5590  12.5590
    12.6239  12.6239  12.6807  12.6807  13.2681  13.2682

     occupation numbers 
     1.0000   1.0000   1.0000   1.0000   1.0000   1.0000   1.0000   1.0000
     1.0000   1.0000   1.0000   1.0000   1.0000   1.0000   1.0000   1.0000
     1.0000   1.0000   1.0000   1.0000   1.0000   1.0000   1.0000   1.0000
     1.0000   1.0000   1.0000   1.0000   1.0000   1.0000   1.0000   1.0000
     1.0000   1.0000   1.0000   1.0000   1.0000   1.0000   1.0000   1.0000
     1.0000   1.0000   1.0000   1.0000   1.0000   1.0000   1.0000   1.0000
     1.0000   1.0000   1.0000   1.0000   0.0000   0.0000   0.0000   0.0000
     0.0000   0.0000   0.0000   0.0000   0.0000   0.0000

          k = 0.0000 0.3849 0.0000 (  7184 PWs)   bands (ev):

   -50.5416 -50.5416 -50.5416 -50.5416 -26.3813 -26.3813 -26.3813 -26.3813
   -23.9678 -23.9678 -23.9677 -23.9677 -23.8284 -23.8284 -23.8284 -23.8284
    -2.6396  -2.6396  -2.4348  -2.4348  -2.1527  -2.1527  -1.9102  -1.9102
     4.7885   4.7885   5.1844   5.1844   5.7977   5.7977   6.0430   6.0430
     6.2004   6.2004   6.6683   6.6683   7.3997   7.3997   7.4741   7.4741
     8.3460   8.3460   8.8391   8.8391   8.9008   8.9008   8.9889   8.9889
     9.1507   9.1507   9.3957   9.3957  12.2983  12.2983  12.4227  12.4227
    12.5648  12.5648  13.0095  13.0095  13.3838  13.3838

     occupation numbers 
     1.0000   1.0000   1.0000   1.0000   1.0000   1.0000   1.0000   1.0000
     1.0000   1.0000   1.0000   1.0000   1.0000   1.0000   1.0000   1.0000
     1.0000   1.0000   1.0000   1.0000   1.0000   1.0000   1.0000   1.0000
     1.0000   1.0000   1.0000   1.0000   1.0000   1.0000   1.0000   1.0000
     1.0000   1.0000   1.0000   1.0000   1.0000   1.0000   1.0000   1.0000
     1.0000   1.0000   1.0000   1.0000   1.0000   1.0000   1.0000   1.0000
     1.0000   1.0000   1.0000   1.0000   0.0000   0.0000   0.0000   0.0000
     0.0000   0.0000   0.0000   0.0000   0.0000   0.0000

          k = 0.0000 0.3849 0.0855 (  7179 PWs)   bands (ev):

   -50.5416 -50.5416 -50.5416 -50.5416 -26.3813 -26.3813 -26.3813 -26.3813
   -23.9678 -23.9678 -23.9677 -23.9677 -23.8284 -23.8284 -23.8284 -23.8284
    -2.6029  -2.6029  -2.5080  -2.5080  -2.0702  -2.0702  -1.9564  -1.9564
     4.8708   4.8708   5.0643   5.0643   5.8329   5.8329   5.9289   5.9289
     6.3970   6.3970   6.6020   6.6020   7.4173   7.4173   7.4545   7.4545
     8.4329   8.4329   8.6676   8.6676   8.9054   8.9054   8.9613   8.9613
     9.2645   9.2645   9.3636   9.3636  12.4150  12.4150  12.4767  12.4767
    12.5274  12.5274  12.7776  12.7776  13.6380  13.6381

     occupation numbers 
     1.0000   1.0000   1.0000   1.0000   1.0000   1.0000   1.0000   1.0000
     1.0000   1.0000   1.0000   1.0000   1.0000   1.0000   1.0000   1.0000
     1.0000   1.0000   1.0000   1.0000   1.0000   1.0000   1.0000   1.0000
     1.0000   1.0000   1.0000   1.0000   1.0000   1.0000   1.0000   1.0000
     1.0000   1.0000   1.0000   1.0000   1.0000   1.0000   1.0000   1.0000
     1.0000   1.0000   1.0000   1.0000   1.0000   1.0000   1.0000   1.0000
     1.0000   1.0000   1.0000   1.0000   0.0000   0.0000   0.0000   0.0000
     0.0000   0.0000   0.0000   0.0000   0.0000   0.0000

          k = 0.0000 0.4811 0.0000 (  7188 PWs)   bands (ev):

   -50.5344 -50.5344 -50.5344 -50.5344 -26.4037 -26.4037 -26.4036 -26.4036
   -24.0102 -24.0102 -24.0102 -24.0102 -23.8345 -23.8345 -23.8344 -23.8344
    -2.2008  -2.2008  -2.0534  -2.0534  -1.9439  -1.9439  -1.7925  -1.7925
     4.4610   4.4610   4.7673   4.7673   5.4195   5.4195   5.6872   5.6872
     5.9100   5.9100   6.5713   6.5713   7.1601   7.1601   7.2380   7.2380
     8.2122   8.2122   8.5654   8.5654   9.1275   9.1275   9.2633   9.2633
     9.3463   9.3463   9.5663   9.5663  12.4632  12.4632  12.5387  12.5387
    12.7078  12.7078  13.1134  13.1134  13.6743  13.6743

     occupation numbers 
     1.0000   1.0000   1.0000   1.0000   1.0000   1.0000   1.0000   1.0000
     1.0000   1.0000   1.0000   1.0000   1.0000   1.0000   1.0000   1.0000
     1.0000   1.0000   1.0000   1.0000   1.0000   1.0000   1.0000   1.0000
     1.0000   1.0000   1.0000   1.0000   1.0000   1.0000   1.0000   1.0000
     1.0000   1.0000   1.0000   1.0000   1.0000   1.0000   1.0000   1.0000
     1.0000   1.0000   1.0000   1.0000   1.0000   1.0000   1.0000   1.0000
     1.0000   1.0000   1.0000   1.0000   0.0000   0.0000   0.0000   0.0000
     0.0000   0.0000   0.0000   0.0000   0.0000   0.0000

          k = 0.0000 0.4811 0.0855 (  7182 PWs)   bands (ev):

   -50.5344 -50.5344 -50.5344 -50.5344 -26.4037 -26.4037 -26.4036 -26.4036
   -24.0102 -24.0102 -24.0102 -24.0102 -23.8345 -23.8345 -23.8344 -23.8344
    -2.1761  -2.1761  -2.1107  -2.1107  -1.8855  -1.8855  -1.8182  -1.8182
     4.5283   4.5283   4.6805   4.6805   5.4471   5.4471   5.5424   5.5424
     6.1662   6.1662   6.4588   6.4588   7.1786   7.1786   7.2175   7.2175
     8.2765   8.2765   8.4445   8.4445   9.1691   9.1691   9.2479   9.2479
     9.4097   9.4097   9.5225   9.5225  12.4808  12.4808  12.5188  12.5188
    12.7961  12.7961  12.9898  12.9898  13.8820  13.8821

     occupation numbers 
     1.0000   1.0000   1.0000   1.0000   1.0000   1.0000   1.0000   1.0000
     1.0000   1.0000   1.0000   1.0000   1.0000   1.0000   1.0000   1.0000
     1.0000   1.0000   1.0000   1.0000   1.0000   1.0000   1.0000   1.0000
     1.0000   1.0000   1.0000   1.0000   1.0000   1.0000   1.0000   1.0000
     1.0000   1.0000   1.0000   1.0000   1.0000   1.0000   1.0000   1.0000
     1.0000   1.0000   1.0000   1.0000   1.0000   1.0000   1.0000   1.0000
     1.0000   1.0000   1.0000   1.0000   0.0000   0.0000   0.0000   0.0000
     0.0000   0.0000   0.0000   0.0000   0.0000   0.0000

          k = 0.0000-0.5774 0.0000 (  7222 PWs)   bands (ev):

   -50.5318 -50.5318 -50.5318 -50.5318 -26.4121 -26.4121 -26.4121 -26.4121
   -24.0262 -24.0262 -24.0262 -24.0262 -23.8359 -23.8359 -23.8359 -23.8359
    -2.0155  -2.0155  -1.9084  -1.9084  -1.8531  -1.8531  -1.7567  -1.7567
     4.2987   4.2987   4.6013   4.6013   5.2774   5.2774   5.4990   5.4990
     5.8389   5.8389   6.4882   6.4882   7.0776   7.0776   7.1566   7.1566
     8.1946   8.1946   8.4417   8.4417   9.2110   9.2110   9.3934   9.3934
     9.5494   9.5494   9.6583   9.6583  12.5213  12.5213  12.5638  12.5638
    12.9259  12.9259  13.1773  13.1773  13.7725  13.7725

     occupation numbers 
     1.0000   1.0000   1.0000   1.0000   1.0000   1.0000   1.0000   1.0000
     1.0000   1.0000   1.0000   1.0000   1.0000   1.0000   1.0000   1.0000
     1.0000   1.0000   1.0000   1.0000   1.0000   1.0000   1.0000   1.0000
     1.0000   1.0000   1.0000   1.0000   1.0000   1.0000   1.0000   1.0000
     1.0000   1.0000   1.0000   1.0000   1.0000   1.0000   1.0000   1.0000
     1.0000   1.0000   1.0000   1.0000   1.0000   1.0000   1.0000   1.0000
     1.0000   1.0000   1.0000   1.0000   0.0000   0.0000   0.0000   0.0000
     0.0000   0.0000   0.0000   0.0000   0.0000   0.0000

          k = 0.0000-0.5774 0.0855 (  7198 PWs)   bands (ev):

   -50.5318 -50.5318 -50.5318 -50.5318 -26.4121 -26.4121 -26.4120 -26.4120
   -24.0262 -24.0262 -24.0262 -24.0262 -23.8359 -23.8359 -23.8358 -23.8358
    -1.9978  -1.9978  -1.9513  -1.9513  -1.8129  -1.8129  -1.7717  -1.7717
     4.3664   4.3664   4.5173   4.5173   5.2982   5.2982   5.3814   5.3814
     6.0738   6.0738   6.3707   6.3707   7.0964   7.0964   7.1359   7.1359
     8.2455   8.2455   8.3673   8.3673   9.2583   9.2583   9.3511   9.3511
     9.5801   9.5801   9.6346   9.6346  12.5307  12.5307  12.5519  12.5519
    12.9969  12.9969  13.1228  13.1228  13.9373  13.9373

     occupation numbers 
     1.0000   1.0000   1.0000   1.0000   1.0000   1.0000   1.0000   1.0000
     1.0000   1.0000   1.0000   1.0000   1.0000   1.0000   1.0000   1.0000
     1.0000   1.0000   1.0000   1.0000   1.0000   1.0000   1.0000   1.0000
     1.0000   1.0000   1.0000   1.0000   1.0000   1.0000   1.0000   1.0000
     1.0000   1.0000   1.0000   1.0000   1.0000   1.0000   1.0000   1.0000
     1.0000   1.0000   1.0000   1.0000   1.0000   1.0000   1.0000   1.0000
     1.0000   1.0000   1.0000   1.0000   0.0000   0.0000   0.0000   0.0000
     0.0000   0.0000   0.0000   0.0000   0.0000   0.0000

          k = 0.0833 0.1443 0.0000 (  7138 PWs)   bands (ev):

   -50.5635 -50.5635 -50.5635 -50.5635 -26.3181 -26.3181 -26.3170 -26.3170
   -23.8808 -23.8808 -23.8799 -23.8799 -23.7595 -23.7595 -23.7570 -23.7570
    -3.6918  -3.6918  -3.4307  -3.4307  -2.6566  -2.6566  -2.2595  -2.2595
     4.4376   4.4376   5.4413   5.4413   6.9490   6.9490   7.0710   7.0710
     7.0938   7.0938   7.9250   7.9250   7.9819   7.9819   8.0153   8.0153
     8.2129   8.2129   8.2881   8.2881   9.0216   9.0216   9.7687   9.7687
     9.8853   9.8853  10.3311  10.3311  12.5202  12.5202  12.7095  12.7095
    12.8577  12.8577  12.9281  12.9282  12.9947  12.9949

     occupation numbers 
     1.0000   1.0000   1.0000   1.0000   1.0000   1.0000   1.0000   1.0000
     1.0000   1.0000   1.0000   1.0000   1.0000   1.0000   1.0000   1.0000
     1.0000   1.0000   1.0000   1.0000   1.0000   1.0000   1.0000   1.0000
     1.0000   1.0000   1.0000   1.0000   1.0000   1.0000   1.0000   1.0000
     1.0000   1.0000   1.0000   1.0000   1.0000   1.0000   1.0000   1.0000
     1.0000   1.0000   1.0000   1.0000   1.0000   1.0000   1.0000   1.0000
     1.0000   1.0000   1.0000   1.0000   0.0000   0.0000   0.0000   0.0000
     0.0000   0.0000   0.0000   0.0000   0.0000   0.0000

          k = 0.0833 0.1443 0.0855 (  7153 PWs)   bands (ev):

   -50.5635 -50.5635 -50.5635 -50.5635 -26.3181 -26.3181 -26.3170 -26.3170
   -23.8808 -23.8808 -23.8800 -23.8800 -23.7595 -23.7595 -23.7570 -23.7570
    -3.6405  -3.6405  -3.5146  -3.5146  -2.5400  -2.5400  -2.3461  -2.3461
     4.6270   4.6270   5.0984   5.0984   7.0611   7.0611   7.0836   7.0836
     7.3372   7.3372   7.7917   7.7917   7.9808   7.9808   8.0092   8.0092
     8.2294   8.2294   8.2663   8.2663   9.0868   9.0868   9.3679   9.3679
    10.1627  10.1627  10.2998  10.2998  12.5866  12.5866  12.6831  12.6831
    12.8903  12.8904  12.9319  12.9327  12.9768  12.9780

     occupation numbers 
     1.0000   1.0000   1.0000   1.0000   1.0000   1.0000   1.0000   1.0000
     1.0000   1.0000   1.0000   1.0000   1.0000   1.0000   1.0000   1.0000
     1.0000   1.0000   1.0000   1.0000   1.0000   1.0000   1.0000   1.0000
     1.0000   1.0000   1.0000   1.0000   1.0000   1.0000   1.0000   1.0000
     1.0000   1.0000   1.0000   1.0000   1.0000   1.0000   1.0000   1.0000
     1.0000   1.0000   1.0000   1.0000   1.0000   1.0000   1.0000   1.0000
     1.0000   1.0000   1.0000   1.0000   0.0000   0.0000   0.0000   0.0000
     0.0000   0.0000   0.0000   0.0000   0.0000   0.0000

          k = 0.0833 0.2406 0.0000 (  7177 PWs)   bands (ev):

   -50.5551 -50.5551 -50.5551 -50.5551 -26.3430 -26.3430 -26.3398 -26.3398
   -23.9014 -23.9014 -23.9005 -23.9005 -23.8036 -23.8036 -23.7980 -23.7980
    -3.3188  -3.3188  -3.0698  -3.0698  -2.4767  -2.4767  -2.1287  -2.1287
     4.7714   4.7714   5.6662   5.6662   6.5470   6.5470   6.5594   6.5594
     6.6602   6.6602   7.2649   7.2649   7.6398   7.6398   7.7834   7.7834
     8.2756   8.2756   8.3301   8.3301   9.0243   9.0243   9.5985   9.5985
     9.6303   9.6303   9.7491   9.7491  12.0633  12.0633  12.6104  12.6104
    12.6948  12.6948  12.7334  12.7334  13.0276  13.0277

     occupation numbers 
     1.0000   1.0000   1.0000   1.0000   1.0000   1.0000   1.0000   1.0000
     1.0000   1.0000   1.0000   1.0000   1.0000   1.0000   1.0000   1.0000
     1.0000   1.0000   1.0000   1.0000   1.0000   1.0000   1.0000   1.0000
     1.0000   1.0000   1.0000   1.0000   1.0000   1.0000   1.0000   1.0000
     1.0000   1.0000   1.0000   1.0000   1.0000   1.0000   1.0000   1.0000
     1.0000   1.0000   1.0000   1.0000   1.0000   1.0000   1.0000   1.0000
     1.0000   1.0000   1.0000   1.0000   0.0000   0.0000   0.0000   0.0000
     0.0000   0.0000   0.0000   0.0000   0.0000   0.0000

          k = 0.0833 0.2406 0.0855 (  7176 PWs)   bands (ev):

   -50.5551 -50.5551 -50.5551 -50.5551 -26.3430 -26.3430 -26.3398 -26.3398
   -23.9014 -23.9014 -23.9005 -23.9005 -23.8036 -23.8036 -23.7981 -23.7980
    -3.2712  -3.2712  -3.1520  -3.1520  -2.3703  -2.3703  -2.2019  -2.2019
     4.9337   4.9337   5.3468   5.3468   6.5321   6.5321   6.5684   6.5684
     6.9459   6.9459   7.2108   7.2108   7.6614   7.6614   7.7374   7.7374
     8.2818   8.2818   8.3253   8.3253   9.0926   9.0926   9.3329   9.3329
     9.7293   9.7293   9.7610   9.7610  12.2118  12.2118  12.4873  12.4873
    12.6753  12.6753  12.7664  12.7664  13.0533  13.0536

     occupation numbers 
     1.0000   1.0000   1.0000   1.0000   1.0000   1.0000   1.0000   1.0000
     1.0000   1.0000   1.0000   1.0000   1.0000   1.0000   1.0000   1.0000
     1.0000   1.0000   1.0000   1.0000   1.0000   1.0000   1.0000   1.0000
     1.0000   1.0000   1.0000   1.0000   1.0000   1.0000   1.0000   1.0000
     1.0000   1.0000   1.0000   1.0000   1.0000   1.0000   1.0000   1.0000
     1.0000   1.0000   1.0000   1.0000   1.0000   1.0000   1.0000   1.0000
     1.0000   1.0000   1.0000   1.0000   0.0000   0.0000   0.0000   0.0000
     0.0000   0.0000   0.0000   0.0000   0.0000   0.0000

          k = 0.0833 0.3368 0.0000 (  7185 PWs)   bands (ev):

   -50.5452 -50.5452 -50.5452 -50.5452 -26.3729 -26.3729 -26.3673 -26.3673
   -23.9442 -23.9442 -23.9411 -23.9411 -23.8318 -23.8318 -23.8269 -23.8269
    -2.8376  -2.8376  -2.6152  -2.6152  -2.2450  -2.2450  -1.9677  -1.9677
     4.9210   4.9210   5.4414   5.4414   6.0751   6.0751   6.1957   6.1957
     6.4789   6.4789   6.6552   6.6552   7.2099   7.2099   7.4448   7.4448
     8.4840   8.4840   8.5709   8.5709   8.7869   8.7869   9.1488   9.1488
     9.3452   9.3452   9.4667   9.4667  11.9648  11.9648  12.5594  12.5594
    12.5923  12.5923  12.9740  12.9740  13.0642  13.0642

     occupation numbers 
     1.0000   1.0000   1.0000   1.0000   1.0000   1.0000   1.0000   1.0000
     1.0000   1.0000   1.0000   1.0000   1.0000   1.0000   1.0000   1.0000
     1.0000   1.0000   1.0000   1.0000   1.0000   1.0000   1.0000   1.0000
     1.0000   1.0000   1.0000   1.0000   1.0000   1.0000   1.0000   1.0000
     1.0000   1.0000   1.0000   1.0000   1.0000   1.0000   1.0000   1.0000
     1.0000   1.0000   1.0000   1.0000   1.0000   1.0000   1.0000   1.0000
     1.0000   1.0000   1.0000   1.0000   0.0000   0.0000   0.0000   0.0000
     0.0000   0.0000   0.0000   0.0000   0.0000   0.0000

          k = 0.0833 0.3368 0.0855 (  7176 PWs)   bands (ev):

   -50.5452 -50.5452 -50.5452 -50.5452 -26.3729 -26.3729 -26.3673 -26.3673
   -23.9442 -23.9442 -23.9411 -23.9411 -23.8318 -23.8318 -23.8269 -23.8269
    -2.7970  -2.7970  -2.6923  -2.6923  -2.1542  -2.1542  -2.0224  -2.0224
     5.0266   5.0266   5.2794   5.2794   6.0888   6.0888   6.1625   6.1625
     6.5583   6.5583   6.6503   6.6503   7.2859   7.2859   7.4073   7.4073
     8.4875   8.4875   8.5573   8.5573   8.8395   8.8395   9.0051   9.0051
     9.3860   9.3860   9.4616   9.4616  12.1206  12.1206  12.4248  12.4248
    12.6326  12.6326  12.7806  12.7806  13.3082  13.3085

     occupation numbers 
     1.0000   1.0000   1.0000   1.0000   1.0000   1.0000   1.0000   1.0000
     1.0000   1.0000   1.0000   1.0000   1.0000   1.0000   1.0000   1.0000
     1.0000   1.0000   1.0000   1.0000   1.0000   1.0000   1.0000   1.0000
     1.0000   1.0000   1.0000   1.0000   1.0000   1.0000   1.0000   1.0000
     1.0000   1.0000   1.0000   1.0000   1.0000   1.0000   1.0000   1.0000
     1.0000   1.0000   1.0000   1.0000   1.0000   1.0000   1.0000   1.0000
     1.0000   1.0000   1.0000   1.0000   0.0000   0.0000   0.0000   0.0000
     0.0000   0.0000   0.0000   0.0000   0.0000   0.0000

          k = 0.0833 0.4330 0.0000 (  7189 PWs)   bands (ev):

   -50.5367 -50.5367 -50.5367 -50.5367 -26.3997 -26.3997 -26.3920 -26.3920
   -23.9939 -23.9939 -23.9857 -23.9857 -23.8422 -23.8422 -23.8394 -23.8394
    -2.3544  -2.3544  -2.1801  -2.1801  -2.0132  -2.0132  -1.8224  -1.8224
     4.6928   4.6928   5.0126   5.0126   5.5935   5.5935   5.8153   5.8153
     6.0451   6.0451   6.6698   6.6698   7.0334   7.0334   7.2451   7.2451
     8.4485   8.4485   8.5511   8.5511   8.7089   8.7089   8.7631   8.7631
     9.4595   9.4595   9.5899   9.5899  12.2000  12.2000  12.5841  12.5841
    12.7653  12.7653  13.0499  13.0499  13.4137  13.4137

     occupation numbers 
     1.0000   1.0000   1.0000   1.0000   1.0000   1.0000   1.0000   1.0000
     1.0000   1.0000   1.0000   1.0000   1.0000   1.0000   1.0000   1.0000
     1.0000   1.0000   1.0000   1.0000   1.0000   1.0000   1.0000   1.0000
     1.0000   1.0000   1.0000   1.0000   1.0000   1.0000   1.0000   1.0000
     1.0000   1.0000   1.0000   1.0000   1.0000   1.0000   1.0000   1.0000
     1.0000   1.0000   1.0000   1.0000   1.0000   1.0000   1.0000   1.0000
     1.0000   1.0000   1.0000   1.0000   0.0000   0.0000   0.0000   0.0000
     0.0000   0.0000   0.0000   0.0000   0.0000   0.0000

          k = 0.0833 0.4330 0.0855 (  7194 PWs)   bands (ev):

   -50.5367 -50.5367 -50.5367 -50.5367 -26.3997 -26.3997 -26.3920 -26.3920
   -23.9939 -23.9939 -23.9857 -23.9857 -23.8422 -23.8422 -23.8394 -23.8394
    -2.3251  -2.3251  -2.2450  -2.2450  -1.9435  -1.9435  -1.8565  -1.8565
     4.7621   4.7621   4.9204   4.9204   5.6199   5.6199   5.7049   5.7049
     6.2509   6.2509   6.5248   6.5248   7.1268   7.1268   7.2255   7.2255
     8.4509   8.4509   8.5117   8.5117   8.6971   8.6971   8.7585   8.7585
     9.4827   9.4827   9.5818   9.5818  12.3088  12.3088  12.5113  12.5113
    12.7831  12.7831  12.8924  12.8924  13.6540  13.6541

     occupation numbers 
     1.0000   1.0000   1.0000   1.0000   1.0000   1.0000   1.0000   1.0000
     1.0000   1.0000   1.0000   1.0000   1.0000   1.0000   1.0000   1.0000
     1.0000   1.0000   1.0000   1.0000   1.0000   1.0000   1.0000   1.0000
     1.0000   1.0000   1.0000   1.0000   1.0000   1.0000   1.0000   1.0000
     1.0000   1.0000   1.0000   1.0000   1.0000   1.0000   1.0000   1.0000
     1.0000   1.0000   1.0000   1.0000   1.0000   1.0000   1.0000   1.0000
     1.0000   1.0000   1.0000   1.0000   0.0000   0.0000   0.0000   0.0000
     0.0000   0.0000   0.0000   0.0000   0.0000   0.0000

          k = 0.0833 0.5292 0.0000 (  7195 PWs)   bands (ev):

   -50.5318 -50.5318 -50.5318 -50.5318 -26.4157 -26.4157 -26.4067 -26.4067
   -24.0244 -24.0244 -24.0135 -24.0135 -23.8455 -23.8455 -23.8438 -23.8438
    -2.0276  -2.0276  -1.9114  -1.9114  -1.8535  -1.8535  -1.7453  -1.7453
     4.4409   4.4409   4.7355   4.7355   5.2941   5.2941   5.4353   5.4353
     5.9090   5.9090   6.5412   6.5412   7.0204   7.0204   7.1400   7.1400
     8.2179   8.2179   8.5334   8.5334   8.6643   8.6643   8.8713   8.8713
     9.6611   9.6611   9.8417   9.8417  12.4792  12.4792  12.6030  12.6030
    12.9003  12.9003  13.2114  13.2114  13.7736  13.7736

     occupation numbers 
     1.0000   1.0000   1.0000   1.0000   1.0000   1.0000   1.0000   1.0000
     1.0000   1.0000   1.0000   1.0000   1.0000   1.0000   1.0000   1.0000
     1.0000   1.0000   1.0000   1.0000   1.0000   1.0000   1.0000   1.0000
     1.0000   1.0000   1.0000   1.0000   1.0000   1.0000   1.0000   1.0000
     1.0000   1.0000   1.0000   1.0000   1.0000   1.0000   1.0000   1.0000
     1.0000   1.0000   1.0000   1.0000   1.0000   1.0000   1.0000   1.0000
     1.0000   1.0000   1.0000   1.0000   0.0000   0.0000   0.0000   0.0000
     0.0000   0.0000   0.0000   0.0000   0.0000   0.0000

          k = 0.0833 0.5292 0.0855 (  7203 PWs)   bands (ev):

   -50.5318 -50.5318 -50.5318 -50.5318 -26.4157 -26.4157 -26.4067 -26.4067
   -24.0245 -24.0244 -24.0135 -24.0135 -23.8455 -23.8455 -23.8438 -23.8438
    -2.0100  -2.0100  -1.9567  -1.9567  -1.8087  -1.8087  -1.7624  -1.7624
     4.5066   4.5066   4.6539   4.6539   5.3083   5.3083   5.3647   5.3647
     6.0927   6.0927   6.3862   6.3862   7.0858   7.0858   7.1397   7.1397
     8.2662   8.2662   8.4147   8.4147   8.7243   8.7243   8.8383   8.8383
     9.6964   9.6964   9.8195   9.8195  12.5056  12.5056  12.5727  12.5727
    12.9581  12.9581  13.1263  13.1263  13.9555  13.9555

     occupation numbers 
     1.0000   1.0000   1.0000   1.0000   1.0000   1.0000   1.0000   1.0000
     1.0000   1.0000   1.0000   1.0000   1.0000   1.0000   1.0000   1.0000
     1.0000   1.0000   1.0000   1.0000   1.0000   1.0000   1.0000   1.0000
     1.0000   1.0000   1.0000   1.0000   1.0000   1.0000   1.0000   1.0000
     1.0000   1.0000   1.0000   1.0000   1.0000   1.0000   1.0000   1.0000
     1.0000   1.0000   1.0000   1.0000   1.0000   1.0000   1.0000   1.0000
     1.0000   1.0000   1.0000   1.0000   0.0000   0.0000   0.0000   0.0000
     0.0000   0.0000   0.0000   0.0000   0.0000   0.0000

          k = 0.1667 0.2887 0.0000 (  7190 PWs)   bands (ev):

   -50.5465 -50.5465 -50.5465 -50.5465 -26.3697 -26.3697 -26.3620 -26.3620
   -23.9317 -23.9317 -23.9285 -23.9285 -23.8371 -23.8371 -23.8294 -23.8294
    -2.9079  -2.9079  -2.6799  -2.6799  -2.2771  -2.2771  -1.9874  -1.9874
     4.9771   4.9771   5.5773   5.5773   6.3038   6.3038   6.3608   6.3608
     6.5852   6.5852   6.6836   6.6836   6.8398   6.8398   7.3603   7.3603
     8.2721   8.2721   8.3479   8.3479   9.1230   9.1230   9.3180   9.3180
     9.4344   9.4344   9.5060   9.5060  11.8026  11.8026  12.5383  12.5383
    12.6411  12.6411  12.7231  12.7231  13.0799  13.0799

     occupation numbers 
     1.0000   1.0000   1.0000   1.0000   1.0000   1.0000   1.0000   1.0000
     1.0000   1.0000   1.0000   1.0000   1.0000   1.0000   1.0000   1.0000
     1.0000   1.0000   1.0000   1.0000   1.0000   1.0000   1.0000   1.0000
     1.0000   1.0000   1.0000   1.0000   1.0000   1.0000   1.0000   1.0000
     1.0000   1.0000   1.0000   1.0000   1.0000   1.0000   1.0000   1.0000
     1.0000   1.0000   1.0000   1.0000   1.0000   1.0000   1.0000   1.0000
     1.0000   1.0000   1.0000   1.0000   0.0000   0.0000   0.0000   0.0000
     0.0000   0.0000   0.0000   0.0000   0.0000   0.0000

          k = 0.1667 0.2887 0.0855 (  7185 PWs)   bands (ev):

   -50.5465 -50.5465 -50.5465 -50.5465 -26.3697 -26.3697 -26.3620 -26.3620
   -23.9317 -23.9317 -23.9285 -23.9285 -23.8371 -23.8371 -23.8294 -23.8294
    -2.8661  -2.8661  -2.7581  -2.7581  -2.1834  -2.1834  -2.0453  -2.0453
     5.0976   5.0976   5.3897   5.3897   6.2659   6.2659   6.3153   6.3153
     6.6609   6.6609   6.6925   6.6925   7.0246   7.0246   7.2845   7.2845
     8.2682   8.2682   8.3428   8.3428   9.1349   9.1349   9.2320   9.2320
     9.4346   9.4346   9.5085   9.5085  11.9694  11.9694  12.3097  12.3097
    12.6863  12.6863  12.7715  12.7715  13.1288  13.1289

     occupation numbers 
     1.0000   1.0000   1.0000   1.0000   1.0000   1.0000   1.0000   1.0000
     1.0000   1.0000   1.0000   1.0000   1.0000   1.0000   1.0000   1.0000
     1.0000   1.0000   1.0000   1.0000   1.0000   1.0000   1.0000   1.0000
     1.0000   1.0000   1.0000   1.0000   1.0000   1.0000   1.0000   1.0000
     1.0000   1.0000   1.0000   1.0000   1.0000   1.0000   1.0000   1.0000
     1.0000   1.0000   1.0000   1.0000   1.0000   1.0000   1.0000   1.0000
     1.0000   1.0000   1.0000   1.0000   0.0000   0.0000   0.0000   0.0000
     0.0000   0.0000   0.0000   0.0000   0.0000   0.0000

          k = 0.1667 0.3849 0.0000 (  7197 PWs)   bands (ev):

   -50.5380 -50.5380 -50.5380 -50.5380 -26.3969 -26.3969 -26.3847 -26.3847
   -23.9756 -23.9756 -23.9625 -23.9625 -23.8566 -23.8566 -23.8523 -23.8523
    -2.4434  -2.4434  -2.2543  -2.2543  -2.0496  -2.0496  -1.8357  -1.8357
     4.9311   4.9311   5.2703   5.2703   5.7922   5.7922   5.9195   5.9195
     6.3348   6.3348   6.6174   6.6174   6.7276   6.7276   7.2392   7.2392
     7.9584   7.9584   8.0965   8.0965   8.8180   8.8180   8.9784   8.9784
     9.4760   9.4760   9.5743   9.5743  11.9270  11.9270  12.7149  12.7149
    12.8352  12.8352  12.9462  12.9462  13.0108  13.0108

     occupation numbers 
     1.0000   1.0000   1.0000   1.0000   1.0000   1.0000   1.0000   1.0000
     1.0000   1.0000   1.0000   1.0000   1.0000   1.0000   1.0000   1.0000
     1.0000   1.0000   1.0000   1.0000   1.0000   1.0000   1.0000   1.0000
     1.0000   1.0000   1.0000   1.0000   1.0000   1.0000   1.0000   1.0000
     1.0000   1.0000   1.0000   1.0000   1.0000   1.0000   1.0000   1.0000
     1.0000   1.0000   1.0000   1.0000   1.0000   1.0000   1.0000   1.0000
     1.0000   1.0000   1.0000   1.0000   0.0000   0.0000   0.0000   0.0000
     0.0000   0.0000   0.0000   0.0000   0.0000   0.0000

          k = 0.1667 0.3849 0.0855 (  7194 PWs)   bands (ev):

   -50.5380 -50.5380 -50.5380 -50.5380 -26.3969 -26.3969 -26.3847 -26.3847
   -23.9756 -23.9756 -23.9625 -23.9625 -23.8565 -23.8565 -23.8523 -23.8523
    -2.4118  -2.4118  -2.3227  -2.3227  -1.9736  -1.9736  -1.8750  -1.8750
     5.0062   5.0062   5.1753   5.1753   5.8185   5.8185   5.8850   5.8850
     6.3562   6.3562   6.4586   6.4586   6.9809   6.9809   7.1994   7.1994
     7.9678   7.9678   8.0622   8.0622   8.8289   8.8289   8.9123   8.9123
     9.4822   9.4822   9.5775   9.5775  12.0891  12.0891  12.4568  12.4568
    12.8338  12.8338  12.8855  12.8855  13.2746  13.2746

     occupation numbers 
     1.0000   1.0000   1.0000   1.0000   1.0000   1.0000   1.0000   1.0000
     1.0000   1.0000   1.0000   1.0000   1.0000   1.0000   1.0000   1.0000
     1.0000   1.0000   1.0000   1.0000   1.0000   1.0000   1.0000   1.0000
     1.0000   1.0000   1.0000   1.0000   1.0000   1.0000   1.0000   1.0000
     1.0000   1.0000   1.0000   1.0000   1.0000   1.0000   1.0000   1.0000
     1.0000   1.0000   1.0000   1.0000   1.0000   1.0000   1.0000   1.0000
     1.0000   1.0000   1.0000   1.0000   0.0000   0.0000   0.0000   0.0000
     0.0000   0.0000   0.0000   0.0000   0.0000   0.0000

          k = 0.1667 0.4811 0.0000 (  7199 PWs)   bands (ev):

   -50.5318 -50.5318 -50.5318 -50.5318 -26.4173 -26.4173 -26.4017 -26.4017
   -24.0124 -24.0124 -23.9910 -23.9910 -23.8653 -23.8653 -23.8646 -23.8646
    -2.0503  -2.0503  -1.9184  -1.9184  -1.8528  -1.8528  -1.7238  -1.7238
     4.7743   4.7743   5.0409   5.0409   5.3023   5.3023   5.3609   5.3609
     6.1525   6.1525   6.6772   6.6772   6.7461   6.7461   7.2383   7.2383
     7.7521   7.7521   8.0293   8.0293   8.3473   8.3473   8.7107   8.7107
     9.6871   9.6871   9.8537   9.8537  12.2622  12.2622  12.6738  12.6738
    12.9780  12.9780  13.2093  13.2093  13.2629  13.2629

     occupation numbers 
     1.0000   1.0000   1.0000   1.0000   1.0000   1.0000   1.0000   1.0000
     1.0000   1.0000   1.0000   1.0000   1.0000   1.0000   1.0000   1.0000
     1.0000   1.0000   1.0000   1.0000   1.0000   1.0000   1.0000   1.0000
     1.0000   1.0000   1.0000   1.0000   1.0000   1.0000   1.0000   1.0000
     1.0000   1.0000   1.0000   1.0000   1.0000   1.0000   1.0000   1.0000
     1.0000   1.0000   1.0000   1.0000   1.0000   1.0000   1.0000   1.0000
     1.0000   1.0000   1.0000   1.0000   0.0000   0.0000   0.0000   0.0000
     0.0000   0.0000   0.0000   0.0000   0.0000   0.0000

          k = 0.1667 0.4811 0.0855 (  7196 PWs)   bands (ev):

   -50.5318 -50.5318 -50.5318 -50.5318 -26.4173 -26.4173 -26.4017 -26.4017
   -24.0124 -24.0124 -23.9910 -23.9910 -23.8653 -23.8653 -23.8646 -23.8646
    -2.0325  -2.0325  -1.9678  -1.9678  -1.8003  -1.8003  -1.7447  -1.7447
     4.8335   4.8335   4.9660   4.9660   5.3165   5.3165   5.3467   5.3467
     6.2256   6.2256   6.4308   6.4308   6.9971   6.9971   7.1957   7.1957
     7.8172   7.8172   7.9690   7.9690   8.4114   8.4114   8.5959   8.5959
     9.7141   9.7141   9.8376   9.8376  12.3624  12.3624  12.5695  12.5695
    12.9819  12.9819  13.0929  13.0929  13.5063  13.5063

     occupation numbers 
     1.0000   1.0000   1.0000   1.0000   1.0000   1.0000   1.0000   1.0000
     1.0000   1.0000   1.0000   1.0000   1.0000   1.0000   1.0000   1.0000
     1.0000   1.0000   1.0000   1.0000   1.0000   1.0000   1.0000   1.0000
     1.0000   1.0000   1.0000   1.0000   1.0000   1.0000   1.0000   1.0000
     1.0000   1.0000   1.0000   1.0000   1.0000   1.0000   1.0000   1.0000
     1.0000   1.0000   1.0000   1.0000   1.0000   1.0000   1.0000   1.0000
     1.0000   1.0000   1.0000   1.0000   0.0000   0.0000   0.0000   0.0000
     0.0000   0.0000   0.0000   0.0000   0.0000   0.0000

          k = 0.1667 0.5774 0.0000 (  7208 PWs)   bands (ev):

   -50.5295 -50.5295 -50.5295 -50.5295 -26.4248 -26.4248 -26.4080 -26.4080
   -24.0263 -24.0263 -24.0020 -24.0020 -23.8684 -23.8684 -23.8678 -23.8678
    -1.8867  -1.8867  -1.7929  -1.7929  -1.7664  -1.7664  -1.6901  -1.6901
     4.7025   4.7025   4.9646   4.9646   5.1203   5.1203   5.1583   5.1583
     6.0164   6.0164   6.5693   6.5693   6.8716   6.8716   7.2301   7.2301
     7.7452   7.7452   8.0369   8.0369   8.1435   8.1435   8.5789   8.5789
     9.8360   9.8360  10.0485  10.0485  12.3684  12.3684  12.4929  12.4929
    13.1825  13.1825  13.3341  13.3341  13.4084  13.4084

     occupation numbers 
     1.0000   1.0000   1.0000   1.0000   1.0000   1.0000   1.0000   1.0000
     1.0000   1.0000   1.0000   1.0000   1.0000   1.0000   1.0000   1.0000
     1.0000   1.0000   1.0000   1.0000   1.0000   1.0000   1.0000   1.0000
     1.0000   1.0000   1.0000   1.0000   1.0000   1.0000   1.0000   1.0000
     1.0000   1.0000   1.0000   1.0000   1.0000   1.0000   1.0000   1.0000
     1.0000   1.0000   1.0000   1.0000   1.0000   1.0000   1.0000   1.0000
     1.0000   1.0000   1.0000   1.0000   0.0000   0.0000   0.0000   0.0000
     0.0000   0.0000   0.0000   0.0000   0.0000   0.0000

          k = 0.1667 0.5774 0.0855 (  7203 PWs)   bands (ev):

   -50.5295 -50.5295 -50.5295 -50.5295 -26.4248 -26.4248 -26.4080 -26.4080
   -24.0263 -24.0263 -24.0020 -24.0020 -23.8684 -23.8684 -23.8678 -23.8678
    -1.8772  -1.8772  -1.8248  -1.8248  -1.7328  -1.7328  -1.7015  -1.7015
     4.7600   4.7600   4.8912   4.8912   5.1298   5.1298   5.1488   5.1488
     6.1083   6.1083   6.3495   6.3495   7.0644   7.0644   7.2140   7.2140
     7.8124   7.8124   7.9644   7.9644   8.2247   8.2247   8.4429   8.4429
     9.8763   9.8763  10.0199  10.0199  12.3961  12.3961  12.4711  12.4711
    13.1834  13.1834  13.3187  13.3187  13.5686  13.5687

     occupation numbers 
     1.0000   1.0000   1.0000   1.0000   1.0000   1.0000   1.0000   1.0000
     1.0000   1.0000   1.0000   1.0000   1.0000   1.0000   1.0000   1.0000
     1.0000   1.0000   1.0000   1.0000   1.0000   1.0000   1.0000   1.0000
     1.0000   1.0000   1.0000   1.0000   1.0000   1.0000   1.0000   1.0000
     1.0000   1.0000   1.0000   1.0000   1.0000   1.0000   1.0000   1.0000
     1.0000   1.0000   1.0000   1.0000   1.0000   1.0000   1.0000   1.0000
     1.0000   1.0000   1.0000   1.0000   0.0000   0.0000   0.0000   0.0000
     0.0000   0.0000   0.0000   0.0000   0.0000   0.0000

          k = 0.2500 0.4330 0.0000 (  7200 PWs)   bands (ev):

   -50.5318 -50.5318 -50.5318 -50.5318 -26.4177 -26.4177 -26.3996 -26.3996
   -24.0042 -24.0042 -23.9770 -23.9770 -23.8785 -23.8785 -23.8766 -23.8766
    -2.0611  -2.0611  -1.9221  -1.9221  -1.8520  -1.8520  -1.7135  -1.7135
     4.9737   4.9737   5.2189   5.2189   5.2557   5.2557   5.3896   5.3896
     6.5952   6.5952   6.6114   6.6114   6.6280   6.6280   7.2211   7.2211
     7.2998   7.2998   7.4976   7.4976   8.4294   8.4294   8.7868   8.7868
     9.6786   9.6786   9.8232   9.8232  12.1544  12.1544  12.6800  12.6800
    12.9388  12.9388  13.0306  13.0306  13.2843  13.2843

     occupation numbers 
     1.0000   1.0000   1.0000   1.0000   1.0000   1.0000   1.0000   1.0000
     1.0000   1.0000   1.0000   1.0000   1.0000   1.0000   1.0000   1.0000
     1.0000   1.0000   1.0000   1.0000   1.0000   1.0000   1.0000   1.0000
     1.0000   1.0000   1.0000   1.0000   1.0000   1.0000   1.0000   1.0000
     1.0000   1.0000   1.0000   1.0000   1.0000   1.0000   1.0000   1.0000
     1.0000   1.0000   1.0000   1.0000   1.0000   1.0000   1.0000   1.0000
     1.0000   1.0000   1.0000   1.0000   0.0000   0.0000   0.0000   0.0000
     0.0000   0.0000   0.0000   0.0000   0.0000   0.0000

          k = 0.2500 0.4330 0.0855 (  7192 PWs)   bands (ev):

   -50.5318 -50.5318 -50.5318 -50.5318 -26.4176 -26.4176 -26.3996 -26.3996
   -24.0042 -24.0042 -23.9770 -23.9770 -23.8785 -23.8785 -23.8766 -23.8766
    -2.0430  -2.0430  -1.9734  -1.9734  -1.7961  -1.7961  -1.7362  -1.7362
     5.0274   5.0274   5.1422   5.1422   5.3043   5.3043   5.3630   5.3630
     6.4406   6.4406   6.5039   6.5039   6.9483   6.9483   7.1905   7.1905
     7.3546   7.3546   7.4536   7.4536   8.4830   8.4830   8.6711   8.6711
     9.6937   9.6937   9.8119   9.8119  12.2782  12.2782  12.5354  12.5354
    12.9740  12.9740  13.0389  13.0389  13.3749  13.3750

     occupation numbers 
     1.0000   1.0000   1.0000   1.0000   1.0000   1.0000   1.0000   1.0000
     1.0000   1.0000   1.0000   1.0000   1.0000   1.0000   1.0000   1.0000
     1.0000   1.0000   1.0000   1.0000   1.0000   1.0000   1.0000   1.0000
     1.0000   1.0000   1.0000   1.0000   1.0000   1.0000   1.0000   1.0000
     1.0000   1.0000   1.0000   1.0000   1.0000   1.0000   1.0000   1.0000
     1.0000   1.0000   1.0000   1.0000   1.0000   1.0000   1.0000   1.0000
     1.0000   1.0000   1.0000   1.0000   0.0000   0.0000   0.0000   0.0000
     0.0000   0.0000   0.0000   0.0000   0.0000   0.0000

          k = 0.2500 0.5292 0.0000 (  7210 PWs)   bands (ev):

   -50.5282 -50.5282 -50.5282 -50.5282 -26.4296 -26.4296 -26.4081 -26.4081
   -24.0217 -24.0217 -23.9837 -23.9837 -23.8953 -23.8953 -23.8874 -23.8874
    -1.8125  -1.8125  -1.7265  -1.7265  -1.7133  -1.7133  -1.6491  -1.6491
     4.9088   4.9088   5.0463   5.0463   5.1192   5.1192   5.3073   5.3073
     6.2687   6.2687   6.5863   6.5863   6.8494   6.8494   6.8840   6.8840
     7.2031   7.2031   7.3268   7.3268   8.1264   8.1264   8.5139   8.5139
     9.9576   9.9576  10.1606  10.1606  12.1551  12.1551  12.2678  12.2678
    12.9031  12.9031  13.3988  13.3988  13.6522  13.6523

     occupation numbers 
     1.0000   1.0000   1.0000   1.0000   1.0000   1.0000   1.0000   1.0000
     1.0000   1.0000   1.0000   1.0000   1.0000   1.0000   1.0000   1.0000
     1.0000   1.0000   1.0000   1.0000   1.0000   1.0000   1.0000   1.0000
     1.0000   1.0000   1.0000   1.0000   1.0000   1.0000   1.0000   1.0000
     1.0000   1.0000   1.0000   1.0000   1.0000   1.0000   1.0000   1.0000
     1.0000   1.0000   1.0000   1.0000   1.0000   1.0000   1.0000   1.0000
     1.0000   1.0000   1.0000   1.0000   0.0000   0.0000   0.0000   0.0000
     0.0000   0.0000   0.0000   0.0000   0.0000   0.0000

          k = 0.2500 0.5292 0.0855 (  7211 PWs)   bands (ev):

   -50.5282 -50.5282 -50.5282 -50.5282 -26.4296 -26.4296 -26.4081 -26.4081
   -24.0217 -24.0217 -23.9837 -23.9837 -23.8953 -23.8953 -23.8874 -23.8874
    -1.8075  -1.8075  -1.7511  -1.7511  -1.6844  -1.6844  -1.6585  -1.6585
     4.9342   4.9342   4.9964   4.9964   5.1852   5.1852   5.2778   5.2778
     6.2789   6.2789   6.4210   6.4210   6.8331   6.8331   6.9599   6.9599
     7.2733   7.2733   7.4441   7.4441   8.1466   8.1466   8.3687   8.3687
     9.9830   9.9830  10.1316  10.1316  12.1860  12.1860  12.2442  12.2442
    13.0807  13.0807  13.3697  13.3698  13.6112  13.6121

     occupation numbers 
     1.0000   1.0000   1.0000   1.0000   1.0000   1.0000   1.0000   1.0000
     1.0000   1.0000   1.0000   1.0000   1.0000   1.0000   1.0000   1.0000
     1.0000   1.0000   1.0000   1.0000   1.0000   1.0000   1.0000   1.0000
     1.0000   1.0000   1.0000   1.0000   1.0000   1.0000   1.0000   1.0000
     1.0000   1.0000   1.0000   1.0000   1.0000   1.0000   1.0000   1.0000
     1.0000   1.0000   1.0000   1.0000   1.0000   1.0000   1.0000   1.0000
     1.0000   1.0000   1.0000   1.0000   0.0000   0.0000   0.0000   0.0000
     0.0000   0.0000   0.0000   0.0000   0.0000   0.0000

          k = 0.3333 0.5774 0.0000 (  7206 PWs)   bands (ev):

   -50.5269 -50.5269 -50.5269 -50.5269 -26.4339 -26.4339 -26.4103 -26.4103
   -24.0242 -24.0242 -23.9757 -23.9757 -23.9120 -23.9120 -23.8966 -23.8966
    -1.7198  -1.7198  -1.6581  -1.6581  -1.6413  -1.6413  -1.6375  -1.6375
     4.7543   4.7543   4.9166   4.9166   5.5564   5.5564   5.5915   5.5915
     6.0330   6.0330   6.2990   6.2990   6.7299   6.7299   6.7490   6.7490
     7.1280   7.1280   7.1710   7.1710   8.2075   8.2075   8.2381   8.2381
    10.1423  10.1423  10.3593  10.3593  11.9849  11.9849  11.9863  11.9863
    12.7650  12.7650  13.6563  13.6563  13.7877  13.7878

     occupation numbers 
     1.0000   1.0000   1.0000   1.0000   1.0000   1.0000   1.0000   1.0000
     1.0000   1.0000   1.0000   1.0000   1.0000   1.0000   1.0000   1.0000
     1.0000   1.0000   1.0000   1.0000   1.0000   1.0000   1.0000   1.0000
     1.0000   1.0000   1.0000   1.0000   1.0000   1.0000   1.0000   1.0000
     1.0000   1.0000   1.0000   1.0000   1.0000   1.0000   1.0000   1.0000
     1.0000   1.0000   1.0000   1.0000   1.0000   1.0000   1.0000   1.0000
     1.0000   1.0000   1.0000   1.0000   0.0000   0.0000   0.0000   0.0000
     0.0000   0.0000   0.0000   0.0000   0.0000   0.0000

          k = 0.3333 0.5774 0.0855 (  7209 PWs)   bands (ev):

   -50.5269 -50.5269 -50.5269 -50.5269 -26.4339 -26.4339 -26.4103 -26.4103
   -24.0242 -24.0242 -23.9757 -23.9757 -23.9120 -23.9120 -23.8966 -23.8966
    -1.7198  -1.7198  -1.6581  -1.6581  -1.6414  -1.6414  -1.6376  -1.6376
     4.7897   4.7897   4.8703   4.8703   5.5808   5.5808   5.6157   5.6157
     6.1004   6.1004   6.2413   6.2413   6.5473   6.5473   6.5721   6.5721
     7.3953   7.3953   7.4365   7.4365   8.0908   8.0908   8.1171   8.1171
    10.1611  10.1611  10.3269  10.3269  11.9858  11.9858  11.9883  11.9883
    12.9824  12.9824  13.4664  13.4664  13.7112  13.7113

     occupation numbers 
     1.0000   1.0000   1.0000   1.0000   1.0000   1.0000   1.0000   1.0000
     1.0000   1.0000   1.0000   1.0000   1.0000   1.0000   1.0000   1.0000
     1.0000   1.0000   1.0000   1.0000   1.0000   1.0000   1.0000   1.0000
     1.0000   1.0000   1.0000   1.0000   1.0000   1.0000   1.0000   1.0000
     1.0000   1.0000   1.0000   1.0000   1.0000   1.0000   1.0000   1.0000
     1.0000   1.0000   1.0000   1.0000   1.0000   1.0000   1.0000   1.0000
     1.0000   1.0000   1.0000   1.0000   0.0000   0.0000   0.0000   0.0000
     0.0000   0.0000   0.0000   0.0000   0.0000   0.0000

          k = 0.0000 0.0962-0.0855 (  7118 PWs)   bands (ev):

   -50.5684 -50.5684 -50.5684 -50.5684 -26.3042 -26.3042 -26.3042 -26.3042
   -23.8731 -23.8731 -23.8730 -23.8730 -23.7281 -23.7281 -23.7281 -23.7281
    -3.8405  -3.8405  -3.7121  -3.7121  -2.6320  -2.6320  -2.4251  -2.4251
     4.4173   4.4173   4.9025   4.9025   7.4472   7.4472   7.4593   7.4593
     7.6571   7.6571   7.7993   7.7993   7.8089   7.8089   8.2268   8.2268
     8.6196   8.6196   8.6404   8.6404   8.9375   8.9375   9.2110   9.2110
    10.3566  10.3566  10.6317  10.6317  12.9010  12.9010  12.9198  12.9198
    13.0324  13.0324  13.0660  13.0660  13.0876  13.0876

     occupation numbers 
     1.0000   1.0000   1.0000   1.0000   1.0000   1.0000   1.0000   1.0000
     1.0000   1.0000   1.0000   1.0000   1.0000   1.0000   1.0000   1.0000
     1.0000   1.0000   1.0000   1.0000   1.0000   1.0000   1.0000   1.0000
     1.0000   1.0000   1.0000   1.0000   1.0000   1.0000   1.0000   1.0000
     1.0000   1.0000   1.0000   1.0000   1.0000   1.0000   1.0000   1.0000
     1.0000   1.0000   1.0000   1.0000   1.0000   1.0000   1.0000   1.0000
     1.0000   1.0000   1.0000   1.0000   0.0000   0.0000   0.0000   0.0000
     0.0000   0.0000   0.0000   0.0000   0.0000   0.0000

          k = 0.0000 0.1925-0.0855 (  7156 PWs)   bands (ev):

   -50.5613 -50.5613 -50.5613 -50.5613 -26.3239 -26.3239 -26.3239 -26.3239
   -23.8853 -23.8853 -23.8853 -23.8853 -23.7704 -23.7704 -23.7704 -23.7704
    -3.5445  -3.5445  -3.4201  -3.4201  -2.4960  -2.4960  -2.3086  -2.3086
     4.7152   4.7152   5.1746   5.1746   6.8894   6.8894   6.9155   6.9155
     7.1827   7.1827   7.5586   7.5586   8.0874   8.0874   8.1034   8.1034
     8.2325   8.2325   8.2604   8.2604   8.9649   8.9649   9.2938   9.2938
    10.0322  10.0322  10.1335  10.1335  12.5055  12.5055  12.6886  12.6886
    12.8162  12.8162  12.9201  12.9202  13.0115  13.0125

     occupation numbers 
     1.0000   1.0000   1.0000   1.0000   1.0000   1.0000   1.0000   1.0000
     1.0000   1.0000   1.0000   1.0000   1.0000   1.0000   1.0000   1.0000
     1.0000   1.0000   1.0000   1.0000   1.0000   1.0000   1.0000   1.0000
     1.0000   1.0000   1.0000   1.0000   1.0000   1.0000   1.0000   1.0000
     1.0000   1.0000   1.0000   1.0000   1.0000   1.0000   1.0000   1.0000
     1.0000   1.0000   1.0000   1.0000   1.0000   1.0000   1.0000   1.0000
     1.0000   1.0000   1.0000   1.0000   0.0000   0.0000   0.0000   0.0000
     0.0000   0.0000   0.0000   0.0000   0.0000   0.0000

          k = 0.0000 0.2887-0.0855 (  7181 PWs)   bands (ev):

   -50.5515 -50.5515 -50.5515 -50.5515 -26.3520 -26.3520 -26.3519 -26.3519
   -23.9174 -23.9174 -23.9173 -23.9173 -23.8101 -23.8101 -23.8101 -23.8101
    -3.1036  -3.1036  -2.9891  -2.9891  -2.2947  -2.2947  -2.1389  -2.1389
     4.9863   4.9863   5.3375   5.3375   6.3044   6.3044   6.3560   6.3560
     6.7595   6.7595   6.8915   6.8915   7.7854   7.7854   7.8195   7.8195
     8.4995   8.4995   8.5342   8.5342   8.7363   8.7363   9.0490   9.0490
     9.5291   9.5291   9.5670   9.5670  12.2950  12.2950  12.5591  12.5591
    12.6233  12.6233  12.6807  12.6807  13.2685  13.2685

     occupation numbers 
     1.0000   1.0000   1.0000   1.0000   1.0000   1.0000   1.0000   1.0000
[...]
     0.0000   0.0000   0.0000   0.0000   0.0000   0.0000

          k = 0.0000 0.4811-0.0855 (  7182 PWs)   bands (ev):

   -50.5344 -50.5344 -50.5344 -50.5344 -26.4037 -26.4037 -26.4036 -26.4036
   -24.0102 -24.0102 -24.0102 -24.0102 -23.8345 -23.8345 -23.8344 -23.8344
    -2.1761  -2.1761  -2.1107  -2.1107  -1.8855  -1.8855  -1.8182  -1.8182
     4.5282   4.5282   4.6805   4.6805   5.4461   5.4461   5.5437   5.5437
     6.1660   6.1660   6.4586   6.4586   7.1786   7.1786   7.2175   7.2175
     8.2757   8.2757   8.4457   8.4457   9.1691   9.1691   9.2479   9.2479
     9.4091   9.4091   9.5230   9.5230  12.4807  12.4807  12.5189  12.5189
    12.7964  12.7964  12.9894  12.9894  13.8823  13.8825

     occupation numbers 
     1.0000   1.0000   1.0000   1.0000   1.0000   1.0000   1.0000   1.0000
     1.0000   1.0000   1.0000   1.0000   1.0000   1.0000   1.0000   1.0000
     1.0000   1.0000   1.0000   1.0000   1.0000   1.0000   1.0000   1.0000
     1.0000   1.0000   1.0000   1.0000   1.0000   1.0000   1.0000   1.0000
     1.0000   1.0000   1.0000   1.0000   1.0000   1.0000   1.0000   1.0000
     1.0000   1.0000   1.0000   1.0000   1.0000   1.0000   1.0000   1.0000
     1.0000   1.0000   1.0000   1.0000   0.0000   0.0000   0.0000   0.0000
     0.0000   0.0000   0.0000   0.0000   0.0000   0.0000

          k =-0.0833 0.2406-0.0855 (  7176 PWs)   bands (ev):

   -50.5551 -50.5551 -50.5551 -50.5551 -26.3430 -26.3430 -26.3398 -26.3398
   -23.9014 -23.9014 -23.9005 -23.9005 -23.8036 -23.8036 -23.7981 -23.7981
    -3.2712  -3.2712  -3.1521  -3.1521  -2.3703  -2.3703  -2.2019  -2.2019
     4.9337   4.9337   5.3468   5.3468   6.5315   6.5315   6.5691   6.5691
     6.9459   6.9459   7.2108   7.2108   7.6616   7.6616   7.7372   7.7372
     8.2818   8.2818   8.3253   8.3253   9.0923   9.0923   9.3333   9.3333
     9.7291   9.7291   9.7611   9.7611  12.2120  12.2120  12.4868  12.4868
    12.6757  12.6757  12.7664  12.7664  13.0529  13.0529

     occupation numbers 
     1.0000   1.0000   1.0000   1.0000   1.0000   1.0000   1.0000   1.0000
     1.0000   1.0000   1.0000   1.0000   1.0000   1.0000   1.0000   1.0000
     1.0000   1.0000   1.0000   1.0000   1.0000   1.0000   1.0000   1.0000
     1.0000   1.0000   1.0000   1.0000   1.0000   1.0000   1.0000   1.0000
     1.0000   1.0000   1.0000   1.0000   1.0000   1.0000   1.0000   1.0000
     1.0000   1.0000   1.0000   1.0000   1.0000   1.0000   1.0000   1.0000
     1.0000   1.0000   1.0000   1.0000   0.0000   0.0000   0.0000   0.0000
     0.0000   0.0000   0.0000   0.0000   0.0000   0.0000

          k =-0.0833 0.3368-0.0855 (  7176 PWs)   bands (ev):

   -50.5452 -50.5452 -50.5452 -50.5452 -26.3729 -26.3729 -26.3673 -26.3673
   -23.9442 -23.9442 -23.9411 -23.9411 -23.8318 -23.8318 -23.8269 -23.8269
    -2.7970  -2.7970  -2.6923  -2.6923  -2.1542  -2.1542  -2.0224  -2.0224
     5.0265   5.0265   5.2795   5.2795   6.0866   6.0866   6.1655   6.1655
     6.5570   6.5570   6.6508   6.6508   7.2861   7.2861   7.4071   7.4071
     8.4875   8.4875   8.5573   8.5573   8.8388   8.8388   9.0062   9.0063
     9.3855   9.3855   9.4617   9.4617  12.1207  12.1207  12.4245  12.4245
    12.6328  12.6328  12.7804  12.7804  13.3085  13.3086

     occupation numbers 
     1.0000   1.0000   1.0000   1.0000   1.0000   1.0000   1.0000   1.0000
     1.0000   1.0000   1.0000   1.0000   1.0000   1.0000   1.0000   1.0000
     1.0000   1.0000   1.0000   1.0000   1.0000   1.0000   1.0000   1.0000
     1.0000   1.0000   1.0000   1.0000   1.0000   1.0000   1.0000   1.0000
     1.0000   1.0000   1.0000   1.0000   1.0000   1.0000   1.0000   1.0000
     1.0000   1.0000   1.0000   1.0000   1.0000   1.0000   1.0000   1.0000
     1.0000   1.0000   1.0000   1.0000   0.0000   0.0000   0.0000   0.0000
     0.0000   0.0000   0.0000   0.0000   0.0000   0.0000

          k =-0.0833 0.4330-0.0855 (  7194 PWs)   bands (ev):

   -50.5367 -50.5367 -50.5367 -50.5367 -26.3997 -26.3997 -26.3920 -26.3920
   -23.9939 -23.9939 -23.9857 -23.9857 -23.8422 -23.8422 -23.8394 -23.8394
    -2.3251  -2.3251  -2.2450  -2.2450  -1.9435  -1.9435  -1.8565  -1.8565
     4.7620   4.7620   4.9205   4.9205   5.6186   5.6186   5.7065   5.7065
     6.2509   6.2509   6.5245   6.5245   7.1269   7.1269   7.2254   7.2254
     8.4504   8.4504   8.5119   8.5119   8.6982   8.6982   8.7579   8.7579
     9.4825   9.4825   9.5819   9.5819  12.3087  12.3087  12.5117  12.5117
    12.7830  12.7830  12.8920  12.8920  13.6540  13.6547

     occupation numbers 
     1.0000   1.0000   1.0000   1.0000   1.0000   1.0000   1.0000   1.0000
     1.0000   1.0000   1.0000   1.0000   1.0000   1.0000   1.0000   1.0000
     1.0000   1.0000   1.0000   1.0000   1.0000   1.0000   1.0000   1.0000
     1.0000   1.0000   1.0000   1.0000   1.0000   1.0000   1.0000   1.0000
     1.0000   1.0000   1.0000   1.0000   1.0000   1.0000   1.0000   1.0000
     1.0000   1.0000   1.0000   1.0000   1.0000   1.0000   1.0000   1.0000
     1.0000   1.0000   1.0000   1.0000   0.0000   0.0000   0.0000   0.0000
     0.0000   0.0000   0.0000   0.0000   0.0000   0.0000

          k =-0.0833 0.5292-0.0855 (  7203 PWs)   bands (ev):

   -50.5318 -50.5318 -50.5318 -50.5318 -26.4157 -26.4157 -26.4067 -26.4067
   -24.0244 -24.0244 -24.0135 -24.0135 -23.8455 -23.8455 -23.8438 -23.8438
    -2.0100  -2.0100  -1.9567  -1.9567  -1.8087  -1.8087  -1.7624  -1.7624
     4.5066   4.5066   4.6539   4.6539   5.3078   5.3078   5.3652   5.3652
     6.0927   6.0927   6.3861   6.3861   7.0859   7.0859   7.1396   7.1396
     8.2659   8.2659   8.4152   8.4152   8.7243   8.7243   8.8383   8.8383
     9.6962   9.6962   9.8196   9.8196  12.5056  12.5056  12.5727  12.5727
    12.9582  12.9582  13.1261  13.1261  13.9557  13.9557

     occupation numbers 
     1.0000   1.0000   1.0000   1.0000   1.0000   1.0000   1.0000   1.0000
     1.0000   1.0000   1.0000   1.0000   1.0000   1.0000   1.0000   1.0000
     1.0000   1.0000   1.0000   1.0000   1.0000   1.0000   1.0000   1.0000
     1.0000   1.0000   1.0000   1.0000   1.0000   1.0000   1.0000   1.0000
     1.0000   1.0000   1.0000   1.0000   1.0000   1.0000   1.0000   1.0000
     1.0000   1.0000   1.0000   1.0000   1.0000   1.0000   1.0000   1.0000
     1.0000   1.0000   1.0000   1.0000   0.0000   0.0000   0.0000   0.0000
     0.0000   0.0000   0.0000   0.0000   0.0000   0.0000

          k =-0.1667 0.3849-0.0855 (  7194 PWs)   bands (ev):

   -50.5380 -50.5380 -50.5380 -50.5380 -26.3969 -26.3969 -26.3847 -26.3847
   -23.9756 -23.9756 -23.9625 -23.9625 -23.8566 -23.8565 -23.8523 -23.8523
    -2.4118  -2.4118  -2.3227  -2.3227  -1.9736  -1.9736  -1.8750  -1.8750
     5.0062   5.0062   5.1753   5.1753   5.8183   5.8183   5.8851   5.8851
     6.3558   6.3558   6.4594   6.4594   6.9799   6.9799   7.2000   7.2000
     7.9680   7.9680   8.0621   8.0621   8.8280   8.8280   8.9132   8.9132
     9.4822   9.4822   9.5775   9.5775  12.0891  12.0891  12.4569  12.4569
    12.8336  12.8336  12.8855  12.8855  13.2749  13.2749

     occupation numbers 
     1.0000   1.0000   1.0000   1.0000   1.0000   1.0000   1.0000   1.0000
     1.0000   1.0000   1.0000   1.0000   1.0000   1.0000   1.0000   1.0000
     1.0000   1.0000   1.0000   1.0000   1.0000   1.0000   1.0000   1.0000
     1.0000   1.0000   1.0000   1.0000   1.0000   1.0000   1.0000   1.0000
     1.0000   1.0000   1.0000   1.0000   1.0000   1.0000   1.0000   1.0000
     1.0000   1.0000   1.0000   1.0000   1.0000   1.0000   1.0000   1.0000
     1.0000   1.0000   1.0000   1.0000   0.0000   0.0000   0.0000   0.0000
     0.0000   0.0000   0.0000   0.0000   0.0000   0.0000

          k =-0.1667 0.4811-0.0855 (  7196 PWs)   bands (ev):

   -50.5318 -50.5318 -50.5318 -50.5318 -26.4173 -26.4173 -26.4017 -26.4017
   -24.0124 -24.0124 -23.9910 -23.9910 -23.8653 -23.8653 -23.8646 -23.8646
    -2.0325  -2.0325  -1.9678  -1.9678  -1.8003  -1.8003  -1.7447  -1.7447
     4.8335   4.8335   4.9660   4.9660   5.3164   5.3164   5.3467   5.3467
     6.2256   6.2256   6.4310   6.4310   6.9967   6.9967   7.1958   7.1958
     7.8175   7.8175   7.9688   7.9688   8.4111   8.4111   8.5962   8.5962
     9.7140   9.7140   9.8377   9.8377  12.3624  12.3624  12.5695  12.5695
    12.9821  12.9821  13.0926  13.0926  13.5067  13.5067

     occupation numbers 
     1.0000   1.0000   1.0000   1.0000   1.0000   1.0000   1.0000   1.0000
     1.0000   1.0000   1.0000   1.0000   1.0000   1.0000   1.0000   1.0000
     1.0000   1.0000   1.0000   1.0000   1.0000   1.0000   1.0000   1.0000
     1.0000   1.0000   1.0000   1.0000   1.0000   1.0000   1.0000   1.0000
     1.0000   1.0000   1.0000   1.0000   1.0000   1.0000   1.0000   1.0000
     1.0000   1.0000   1.0000   1.0000   1.0000   1.0000   1.0000   1.0000
     1.0000   1.0000   1.0000   1.0000   0.0000   0.0000   0.0000   0.0000
     0.0000   0.0000   0.0000   0.0000   0.0000   0.0000

          k =-0.2500 0.5292-0.0855 (  7211 PWs)   bands (ev):

   -50.5282 -50.5282 -50.5282 -50.5282 -26.4296 -26.4296 -26.4081 -26.4081
   -24.0217 -24.0217 -23.9837 -23.9837 -23.8953 -23.8953 -23.8874 -23.8874
    -1.8075  -1.8075  -1.7511  -1.7511  -1.6844  -1.6844  -1.6585  -1.6585
     4.9341   4.9341   4.9964   4.9964   5.1852   5.1852   5.2778   5.2778
     6.2787   6.2787   6.4214   6.4214   6.8347   6.8347   6.9572   6.9572
     7.2750   7.2750   7.4435   7.4435   8.1465   8.1465   8.3688   8.3688
     9.9830   9.9830  10.1316  10.1316  12.1860  12.1860  12.2441  12.2441
    13.0807  13.0807  13.3698  13.3698  13.6062  13.6077

     occupation numbers 
     1.0000   1.0000   1.0000   1.0000   1.0000   1.0000   1.0000   1.0000
     1.0000   1.0000   1.0000   1.0000   1.0000   1.0000   1.0000   1.0000
     1.0000   1.0000   1.0000   1.0000   1.0000   1.0000   1.0000   1.0000
     1.0000   1.0000   1.0000   1.0000   1.0000   1.0000   1.0000   1.0000
     1.0000   1.0000   1.0000   1.0000   1.0000   1.0000   1.0000   1.0000
     1.0000   1.0000   1.0000   1.0000   1.0000   1.0000   1.0000   1.0000
     1.0000   1.0000   1.0000   1.0000   0.0000   0.0000   0.0000   0.0000
     0.0000   0.0000   0.0000   0.0000   0.0000   0.0000

     the Fermi energy is    11.2901 ev

!    total energy              =    -369.76909891 Ry
     estimated scf accuracy    <          2.7E-09 Ry
     smearing contrib. (-TS)   =       0.00000000 Ry
     internal energy E=F+TS    =    -369.76909891 Ry

     The total energy is F=E-TS. E is the sum of the following terms:
     one-electron contribution =    -172.05926559 Ry
     hartree contribution      =     108.21907631 Ry
     xc contribution           =     -66.73903459 Ry
     ewald contribution        =    -239.18987504 Ry

     convergence has been achieved in  11 iterations

     Forces acting on atoms (cartesian axes, Ry/au):

     atom    1 type  2   force =     0.00000000    0.00000000    0.00007383
     atom    2 type  2   force =     0.00000000    0.00000000   -0.00007383
     atom    3 type  1   force =     0.00000000    0.00000000   -0.00583961
     atom    4 type  1   force =     0.00000000   -0.00000000    0.00583961
     atom    5 type  1   force =    -0.00000000   -0.00000000   -0.00593033
     atom    6 type  1   force =     0.00000000    0.00000000    0.00593033
     The non-local contrib.  to forces
     atom    1 type  2   force =     0.00000000   -0.00000000    0.00000705
     atom    2 type  2   force =     0.00000000    0.00000000   -0.00000705
     atom    3 type  1   force =     0.00000000    0.00000000   -0.26915972
     atom    4 type  1   force =     0.00000000    0.00000000    0.26915972
     atom    5 type  1   force =     0.00000000   -0.00000000   -0.26915881
     atom    6 type  1   force =     0.00000000    0.00000000    0.26915881
     The ionic contribution  to forces
     atom    1 type  2   force =     0.00000912   -0.00000526    0.11344433
     atom    2 type  2   force =    -0.00000912    0.00000526   -0.11344433
     atom    3 type  1   force =    -0.00000464    0.00000268   14.11979524
     atom    4 type  1   force =     0.00000464   -0.00000268  -14.11979524
     atom    5 type  1   force =     0.00000464   -0.00000268   14.02412167
     atom    6 type  1   force =    -0.00000464    0.00000268  -14.02412167
     The local contribution  to forces
     atom    1 type  2   force =     0.00014610   -0.00001205   -0.11349081
     atom    2 type  2   force =    -0.00008349    0.00012050    0.11349081
     atom    3 type  1   force =    -0.00000376    0.00000543  -13.86454286
     atom    4 type  1   force =     0.00000658   -0.00000054   13.86454286
     atom    5 type  1   force =     0.00000658   -0.00000054  -13.76890711
     atom    6 type  1   force =    -0.00000376    0.00000543   13.76890711
     The core correction contribution to forces
     atom    1 type  2   force =    -0.00000307    0.00000025    0.00000071
     atom    2 type  2   force =     0.00000176   -0.00000253   -0.00000071
     atom    3 type  1   force =     0.00000051   -0.00000074    0.00810602
     atom    4 type  1   force =    -0.00000089    0.00000007   -0.00810602
     atom    5 type  1   force =    -0.00000089    0.00000007    0.00810720
     atom    6 type  1   force =     0.00000051   -0.00000074   -0.00810720
     The Hubbard contrib.    to forces
     atom    1 type  2   force =     0.00000000    0.00000000    0.00000000
     atom    2 type  2   force =     0.00000000    0.00000000    0.00000000
     atom    3 type  1   force =     0.00000000    0.00000000    0.00000000
     atom    4 type  1   force =     0.00000000    0.00000000    0.00000000
     atom    5 type  1   force =     0.00000000    0.00000000    0.00000000
     atom    6 type  1   force =     0.00000000    0.00000000    0.00000000
     The SCF correction term to forces
     atom    1 type  2   force =     0.00000000   -0.00000000    0.00011255
     atom    2 type  2   force =    -0.00000000    0.00000000   -0.00011255
     atom    3 type  1   force =    -0.00000000    0.00000000   -0.00003829
     atom    4 type  1   force =     0.00000000   -0.00000000    0.00003829
     atom    5 type  1   force =     0.00000000   -0.00000000   -0.00009328
     atom    6 type  1   force =    -0.00000000    0.00000000    0.00009328

     Total force =     0.011771     Total SCF correction =     0.000214


     Computing stress (Cartesian axis) and pressure

          total   stress  (Ry/bohr**3)                   (kbar)     P=       11.76
   0.00008261   0.00000000   0.00000000           12.15        0.00        0.00
   0.00000000   0.00008261   0.00000000            0.00       12.15        0.00
   0.00000000   0.00000000   0.00007451            0.00        0.00       10.96

     kinetic stress (kbar)  16164.75      0.00      0.00
                                0.00  16164.75      0.00
                               -0.00     -0.00  16258.10

     local   stress (kbar) -33834.83     -0.01      0.00
                               -0.01 -33834.85     -0.00
                                0.00     -0.00  18792.82

     nonloc. stress (kbar)  12792.48     -0.00      0.00
                               -0.00  12792.48      0.00
                                0.00      0.00  12821.11

     hartree stress (kbar)  15214.43     -0.00     -0.00
                               -0.00  15214.43      0.00
                               -0.00      0.00  -8513.36

     exc-cor stress (kbar)   -211.99      0.00     -0.00
                                0.00   -211.99      0.00
                               -0.00      0.00   -210.18

     corecor stress (kbar)  -3640.23     -0.00     -0.00
                               -0.00  -3640.23      0.00
                               -0.00      0.00  -3643.95

     ewald   stress (kbar)  -6472.46      0.01     -0.00
                                0.01  -6472.44      0.00
                               -0.00      0.00 -35493.57

     hubbard stress (kbar)      0.00      0.00      0.00
                                0.00      0.00      0.00
                                0.00      0.00      0.00

     DFT-D   stress (kbar)      0.00      0.00      0.00
                                0.00      0.00      0.00
                                0.00      0.00      0.00

     XDM     stress (kbar)      0.00      0.00      0.00
                                0.00      0.00      0.00
                                0.00      0.00      0.00

     dft-nl  stress (kbar)      0.00      0.00      0.00
                                0.00      0.00      0.00
                                0.00      0.00      0.00

     TS-vdW  stress (kbar)      0.00      0.00      0.00
                                0.00      0.00      0.00
                                0.00      0.00      0.00

     MDB     stress (kbar)      0.00      0.00      0.00
                                0.00      0.00      0.00
                                0.00      0.00      0.00

     3D-RISM stress (kbar)      0.00      0.00      0.00
                                0.00      0.00      0.00
                                0.00      0.00      0.00


     Writing all to output data dir ./tmp/MoS2_bulk_pbe_vdW_wsoc.save/

     init_run     :      7.96s CPU      5.90s WALL (       1 calls)
     electrons    :    386.49s CPU    323.31s WALL (       1 calls)
     forces       :     11.83s CPU     10.21s WALL (       1 calls)
     stress       :     82.87s CPU     91.63s WALL (       1 calls)

     Called by init_run:
     wfcinit      :      7.66s CPU      5.58s WALL (       1 calls)
     wfcinit:atom :      0.09s CPU      0.09s WALL (      50 calls)
     wfcinit:wfcr :      7.12s CPU      5.03s WALL (      50 calls)
     potinit      :      0.06s CPU      0.06s WALL (       1 calls)
     hinit0       :      0.20s CPU      0.21s WALL (       1 calls)

     Called by electrons:
     c_bands      :    358.83s CPU    291.78s WALL (      11 calls)
     sum_band     :     27.19s CPU     30.85s WALL (      11 calls)
     v_of_rho     :      0.16s CPU      0.21s WALL (      12 calls)
     v_h          :      0.01s CPU      0.01s WALL (      12 calls)
     v_xc         :      0.20s CPU      0.28s WALL (      14 calls)
     mix_rho      :      0.27s CPU      0.41s WALL (      11 calls)

     Called by c_bands:
     init_us_2    :      2.75s CPU      3.03s WALL (    1250 calls)
     init_us_2:cp :      2.75s CPU      3.02s WALL (    1250 calls)
     cegterg      :    338.54s CPU    270.02s WALL (     550 calls)

     Called by sum_band:
     sum_band:wei :      0.01s CPU      0.01s WALL (      11 calls)
     sum_band:loo :     27.11s CPU     30.77s WALL (      11 calls)
     sum_band:buf :      1.04s CPU      1.12s WALL (     550 calls)
     sum_band:ini :      1.26s CPU      1.36s WALL (     550 calls)

     Called by *egterg:
     cdiaghg      :     19.99s CPU     21.41s WALL (    3008 calls)
     cegterg:over :     41.89s CPU     25.82s WALL (    2458 calls)
     cegterg:upda :     23.51s CPU     13.95s WALL (    2458 calls)
     cegterg:last :     37.81s CPU     21.39s WALL (    1303 calls)
     h_psi        :    201.72s CPU    175.24s WALL (    3058 calls)
     g_psi        :      0.86s CPU      1.01s WALL (    2458 calls)

     Called by h_psi:
     h_psi:calbec :     52.65s CPU     32.18s WALL (    3058 calls)
     vloc_psi     :     96.74s CPU    108.54s WALL (    3058 calls)
     add_vuspsi   :     50.75s CPU     32.78s WALL (    3058 calls)

     General routines
     calbec       :     61.80s CPU     37.18s WALL (    3308 calls)
     fft          :      0.22s CPU      0.24s WALL (     213 calls)
     ffts         :      0.02s CPU      0.02s WALL (      44 calls)
     fftw         :     96.50s CPU    109.49s WALL (  465352 calls)

     Parallel routines

     PWSCF        :   8m12.13s CPU   7m15.30s WALL


   This run was terminated on:   8:12:28  18Apr2024            

=------------------------------------------------------------------------------=
   JOB DONE.
=------------------------------------------------------------------------------=
