
     Program PWSCF v.7.2 starts on 17Apr2024 at 22:21:26 

     This program is part of the open-source Quantum ESPRESSO suite
     for quantum simulation of materials; please cite
         "P. Giannozzi et al., J. Phys.:Condens. Matter 21 395502 (2009);
         "P. Giannozzi et al., J. Phys.:Condens. Matter 29 465901 (2017);
         "P. Giannozzi et al., J. Chem. Phys. 152 154105 (2020);
          URL http://www.quantum-espresso.org", 
     in publications or presentations arising from this work. More details at
     http://www.quantum-espresso.org/quote

     Parallel version (MPI & OpenMP), running on       8 processor cores
     Number of MPI processes:                 8
     Threads/MPI process:                     1

     MPI processes distributed on     1 nodes
     0 MiB available memory on the printing compute node when the environment starts

     Waiting for input...
     Reading input from standard input
Warning: card &IONS ignored
Warning: card     ION_DYNAMICS='BFGS', ignored
Warning: card     UPSCALE=10 ignored
Warning: card / ignored

     Current dimensions of program PWSCF are:
     Max number of different atomic species (ntypx) = 10
     Max number of k-points (npk) =  40000
     Max angular momentum in pseudopotentials (lmaxx) =  4

     Atomic positions and unit cell read from directory:
     ./tmp/MoS2_bulk_pbe_vdW_nsoc.save/
     Atomic positions from file used, from input discarded


     IMPORTANT: XC functional enforced from input :
     Exchange-correlation= VDW-DF2-B86R
                           (   1   4  26   0   2   0   0)
     Any further DFT definition will be discarded
     Please, verify this is what you really want


     R & G space division:  proc/nbgrp/npool/nimage =       8
     Subspace diagonalization in iterative solution of the eigenvalue problem:
     a serial algorithm will be used


     Parallelization info
     --------------------
     sticks:   dense  smooth     PW     G-vecs:    dense   smooth      PW
     Min          85      85     24                 7173     7173    1130
     Max          86      86     25                 7186     7186    1149
     Sum         685     685    199                57449    57449    9157

     Using Slab Decomposition



     bravais-lattice index     =            4
     lattice parameter (alat)  =       5.9926  a.u.
     unit-cell volume          =     726.4071 (a.u.)^3
     number of atoms/cell      =            6
     number of atomic types    =            2
     number of electrons       =        52.00
     number of Kohn-Sham states=           60
     kinetic-energy cutoff     =      70.0000  Ry
     charge density cutoff     =     280.0000  Ry
     Exchange-correlation= VDW-DF2-B86R
                           (   1   4  26   0   2   0   0)

     celldm(1)=   5.992589  celldm(2)=   0.000000  celldm(3)=   3.897678
     celldm(4)=   0.000000  celldm(5)=   0.000000  celldm(6)=   0.000000

     crystal axes: (cart. coord. in units of alat)
               a(1) = (   1.000000   0.000000   0.000000 )  
               a(2) = (  -0.500000   0.866025   0.000000 )  
               a(3) = (   0.000000   0.000000   3.897678 )  

     reciprocal axes: (cart. coord. in units 2 pi/alat)
               b(1) = (  1.000000  0.577350 -0.000000 )  
               b(2) = (  0.000000  1.154701  0.000000 )  
               b(3) = (  0.000000 -0.000000  0.256563 )  


     PseudoPot. # 1 for S  read from file:
     ../../../Pseudo/PBE/S.upf
     MD5 check sum: b72b6a9ca752e39de1a6cc592280dae2
     Pseudo is Norm-conserving + core correction, Zval =  6.0
     Generated using ONCVPSP code by D. R. Hamann
     Using radial grid of 1148 points,  6 beta functions with: 
                l(1) =   0
                l(2) =   0
                l(3) =   1
                l(4) =   1
                l(5) =   2
                l(6) =   2

     PseudoPot. # 2 for Mo read from file:
     ../../../Pseudo/PBE/Mo.upf
     MD5 check sum: 7ca7a9feba7bf08d88d14bc7fbf60c1e
     Pseudo is Norm-conserving + core correction, Zval = 14.0
     Generated using ONCVPSP code by D. R. Hamann
     Using radial grid of 1640 points,  6 beta functions with: 
                l(1) =   0
                l(2) =   0
                l(3) =   1
                l(4) =   1
                l(5) =   2
                l(6) =   2

     atomic species   valence    mass     pseudopotential
        S              6.00    32.06500     S ( 1.00)
        Mo            14.00   183.84000     Mo( 1.00)

     12 Sym. Ops., with inversion, found


                                    s                        frac. trans.

      isym =  1     identity                                     

 cryst.   s( 1) = (     1          0          0      )
                  (     0          1          0      )
                  (     0          0          1      )

 cart.    s( 1) = (  1.0000000  0.0000000  0.0000000 )
                  (  0.0000000  1.0000000  0.0000000 )
                  (  0.0000000  0.0000000  1.0000000 )


      isym =  2     180 deg rotation - cart. axis [1,0,0]        

 cryst.   s( 2) = (     1          0          0      )
                  (    -1         -1          0      )
                  (     0          0         -1      )

 cart.    s( 2) = (  1.0000000  0.0000000  0.0000000 )
                  (  0.0000000 -1.0000000  0.0000000 )
                  (  0.0000000  0.0000000 -1.0000000 )


      isym =  3     120 deg rotation - cryst. axis [0,0,1]       

 cryst.   s( 3) = (     0          1          0      )
                  (    -1         -1          0      )
                  (     0          0          1      )

 cart.    s( 3) = ( -0.5000000 -0.8660254  0.0000000 )
                  (  0.8660254 -0.5000000  0.0000000 )
                  (  0.0000000  0.0000000  1.0000000 )


      isym =  4     120 deg rotation - cryst. axis [0,0,-1]      

 cryst.   s( 4) = (    -1         -1          0      )
                  (     1          0          0      )
                  (     0          0          1      )

 cart.    s( 4) = ( -0.5000000  0.8660254  0.0000000 )
                  ( -0.8660254 -0.5000000  0.0000000 )
                  (  0.0000000  0.0000000  1.0000000 )


      isym =  5     180 deg rotation - cryst. axis [0,1,0]       

 cryst.   s( 5) = (    -1         -1          0      )
                  (     0          1          0      )
                  (     0          0         -1      )

 cart.    s( 5) = ( -0.5000000 -0.8660254  0.0000000 )
                  ( -0.8660254  0.5000000  0.0000000 )
                  (  0.0000000  0.0000000 -1.0000000 )


      isym =  6     180 deg rotation - cryst. axis [1,1,0]       

 cryst.   s( 6) = (     0          1          0      )
                  (     1          0          0      )
                  (     0          0         -1      )

 cart.    s( 6) = ( -0.5000000  0.8660254  0.0000000 )
                  (  0.8660254  0.5000000  0.0000000 )
                  (  0.0000000  0.0000000 -1.0000000 )


      isym =  7     inversion                                    

 cryst.   s( 7) = (    -1          0          0      )
                  (     0         -1          0      )
                  (     0          0         -1      )

 cart.    s( 7) = ( -1.0000000  0.0000000  0.0000000 )
                  (  0.0000000 -1.0000000  0.0000000 )
                  (  0.0000000  0.0000000 -1.0000000 )


      isym =  8     inv. 180 deg rotation - cart. axis [1,0,0]   

 cryst.   s( 8) = (    -1          0          0      )
                  (     1          1          0      )
                  (     0          0          1      )

 cart.    s( 8) = ( -1.0000000  0.0000000  0.0000000 )
                  (  0.0000000  1.0000000  0.0000000 )
                  (  0.0000000  0.0000000  1.0000000 )


      isym =  9     inv. 120 deg rotation - cryst. axis [0,0,1]  

 cryst.   s( 9) = (     0         -1          0      )
                  (     1          1          0      )
                  (     0          0         -1      )

 cart.    s( 9) = (  0.5000000  0.8660254  0.0000000 )
                  ( -0.8660254  0.5000000  0.0000000 )
                  (  0.0000000  0.0000000 -1.0000000 )


      isym = 10     inv. 120 deg rotation - cryst. axis [0,0,-1] 

 cryst.   s(10) = (     1          1          0      )
                  (    -1          0          0      )
                  (     0          0         -1      )

 cart.    s(10) = (  0.5000000 -0.8660254  0.0000000 )
                  (  0.8660254  0.5000000  0.0000000 )
                  (  0.0000000  0.0000000 -1.0000000 )


      isym = 11     inv. 180 deg rotation - cryst. axis [0,1,0]  

 cryst.   s(11) = (     1          1          0      )
                  (     0         -1          0      )
                  (     0          0          1      )

 cart.    s(11) = (  0.5000000  0.8660254  0.0000000 )
                  (  0.8660254 -0.5000000  0.0000000 )
                  (  0.0000000  0.0000000  1.0000000 )


      isym = 12     inv. 180 deg rotation - cryst. axis [1,1,0]  

 cryst.   s(12) = (     0         -1          0      )
                  (    -1          0          0      )
                  (     0          0          1      )

 cart.    s(12) = (  0.5000000 -0.8660254  0.0000000 )
                  ( -0.8660254 -0.5000000  0.0000000 )
                  (  0.0000000  0.0000000  1.0000000 )


     point group D_3d (-3m) 
     there are  6 classes
     the character table:

       E     2C3   3C2'  i     2S6   3s_d 
A_1g   1.00  1.00  1.00  1.00  1.00  1.00
A_2g   1.00  1.00 -1.00  1.00  1.00 -1.00
E_g    2.00 -1.00  0.00  2.00 -1.00  0.00
A_1u   1.00  1.00  1.00 -1.00 -1.00 -1.00
A_2u   1.00  1.00 -1.00 -1.00 -1.00  1.00
E_u    2.00 -1.00  0.00 -2.00  1.00  0.00

     the symmetry operations in each class and the name of the first element:

     E        1
          identity                                               
     2C3      3    4
          120 deg rotation - cryst. axis [0,0,1]                 
     3C2'     2    5    6
          180 deg rotation - cart. axis [1,0,0]                  
     i        7
          inversion                                              
     2S6      9   10
          inv. 120 deg rotation - cryst. axis [0,0,1]            
     3s_d     8   11   12
          inv. 180 deg rotation - cart. axis [1,0,0]             

   Cartesian axes

     site n.     atom                  positions (alat units)
         1           Mo  tau(   1) = (  -0.0000003   0.5773503  -0.9751726  )
         2           Mo  tau(   2) = (   0.5000002   0.2886748   0.9751726  )
         3           S   tau(   3) = (   0.5000002   0.2886748  -0.4800038  )
         4           S   tau(   4) = (  -0.0000003   0.5773503   0.4800038  )
         5           S   tau(   5) = (  -0.0000003   0.5773503   1.4703207  )
         6           S   tau(   6) = (   0.5000002   0.2886748  -1.4703207  )

   Crystallographic axes

     site n.     atom                  positions (cryst. coord.)
         1           Mo  tau(   1) = (  0.3333330  0.6666667 -0.2501932  )
         2           Mo  tau(   2) = (  0.6666667  0.3333330  0.2501932  )
         3           S   tau(   3) = (  0.6666667  0.3333330 -0.1231512  )
         4           S   tau(   4) = (  0.3333330  0.6666667  0.1231512  )
         5           S   tau(   5) = (  0.3333330  0.6666667  0.3772299  )
         6           S   tau(   6) = (  0.6666667  0.3333330 -0.3772299  )

     number of k points=    71  Marzari-Vanderbilt smearing, width (Ry)=  0.0050
                       cart. coord. in units 2pi/alat
        k(    1) = (   0.0000000   0.0000000   0.0000000), wk =   0.0281690
        k(    2) = (  -0.0158729   0.0274930   0.0000000), wk =   0.0281690
        k(    3) = (  -0.0317457   0.0549860   0.0000000), wk =   0.0281690
        k(    4) = (  -0.0476186   0.0824789   0.0000000), wk =   0.0281690
        k(    5) = (  -0.0634914   0.1099719   0.0000000), wk =   0.0281690
        k(    6) = (  -0.0793643   0.1374649   0.0000000), wk =   0.0281690
        k(    7) = (  -0.0952371   0.1649579   0.0000000), wk =   0.0281690
        k(    8) = (  -0.1111100   0.1924509   0.0000000), wk =   0.0281690
        k(    9) = (  -0.1269829   0.2199438   0.0000000), wk =   0.0281690
        k(   10) = (  -0.1428557   0.2474368   0.0000000), wk =   0.0281690
        k(   11) = (  -0.1587286   0.2749298   0.0000000), wk =   0.0281690
        k(   12) = (  -0.1746014   0.3024228   0.0000000), wk =   0.0281690
        k(   13) = (  -0.1904743   0.3299158   0.0000000), wk =   0.0281690
        k(   14) = (  -0.2063471   0.3574087   0.0000000), wk =   0.0281690
        k(   15) = (  -0.2222200   0.3849017   0.0000000), wk =   0.0281690
        k(   16) = (  -0.2380929   0.4123947   0.0000000), wk =   0.0281690
        k(   17) = (  -0.2539657   0.4398877   0.0000000), wk =   0.0281690
        k(   18) = (  -0.2698386   0.4673807   0.0000000), wk =   0.0281690
        k(   19) = (  -0.2857114   0.4948736   0.0000000), wk =   0.0281690
        k(   20) = (  -0.3015843   0.5223666   0.0000000), wk =   0.0281690
        k(   21) = (  -0.3174571   0.5498596   0.0000000), wk =   0.0281690
        k(   22) = (  -0.3333300   0.5773526   0.0000000), wk =   0.0281690
        k(   23) = (  -0.3030273   0.5773524   0.0000000), wk =   0.0281690
        k(   24) = (  -0.2727245   0.5773522   0.0000000), wk =   0.0281690
        k(   25) = (  -0.2424218   0.5773519   0.0000000), wk =   0.0281690
        k(   26) = (  -0.2121191   0.5773517   0.0000000), wk =   0.0281690
        k(   27) = (  -0.1818164   0.5773515   0.0000000), wk =   0.0281690
        k(   28) = (  -0.1515136   0.5773513   0.0000000), wk =   0.0281690
        k(   29) = (  -0.1212109   0.5773511   0.0000000), wk =   0.0281690
        k(   30) = (  -0.0909082   0.5773509   0.0000000), wk =   0.0281690
        k(   31) = (  -0.0606055   0.5773507   0.0000000), wk =   0.0281690
        k(   32) = (  -0.0303027   0.5773505   0.0000000), wk =   0.0281690
        k(   33) = (   0.0000000   0.5773503   0.0000000), wk =   0.0281690
        k(   34) = (   0.0000000   0.5452753   0.0000000), wk =   0.0281690
        k(   35) = (   0.0000000   0.5132002   0.0000000), wk =   0.0281690
        k(   36) = (   0.0000000   0.4811252   0.0000000), wk =   0.0281690
        k(   37) = (   0.0000000   0.4490502   0.0000000), wk =   0.0281690
        k(   38) = (   0.0000000   0.4169752   0.0000000), wk =   0.0281690
        k(   39) = (   0.0000000   0.3849002   0.0000000), wk =   0.0281690
        k(   40) = (   0.0000000   0.3528252   0.0000000), wk =   0.0281690
        k(   41) = (   0.0000000   0.3207501   0.0000000), wk =   0.0281690
        k(   42) = (   0.0000000   0.2886751   0.0000000), wk =   0.0281690
        k(   43) = (   0.0000000   0.2566001   0.0000000), wk =   0.0281690
        k(   44) = (   0.0000000   0.2245251   0.0000000), wk =   0.0281690
        k(   45) = (   0.0000000   0.1924501   0.0000000), wk =   0.0281690
        k(   46) = (   0.0000000   0.1603751   0.0000000), wk =   0.0281690
        k(   47) = (   0.0000000   0.1283001   0.0000000), wk =   0.0281690
        k(   48) = (   0.0000000   0.0962250   0.0000000), wk =   0.0281690
        k(   49) = (   0.0000000   0.0641500   0.0000000), wk =   0.0281690
        k(   50) = (   0.0000000   0.0320750   0.0000000), wk =   0.0281690
        k(   51) = (   0.0000000   0.0000000   0.0000000), wk =   0.0281690
        k(   52) = (   0.0000000   0.0000000   0.0128282), wk =   0.0281690
        k(   53) = (   0.0000000   0.0000000   0.0256563), wk =   0.0281690
        k(   54) = (   0.0000000   0.0000000   0.0384845), wk =   0.0281690
        k(   55) = (   0.0000000   0.0000000   0.0513126), wk =   0.0281690
        k(   56) = (   0.0000000   0.0000000   0.0641408), wk =   0.0281690
        k(   57) = (   0.0000000   0.0000000   0.0769689), wk =   0.0281690
        k(   58) = (   0.0000000   0.0000000   0.0897971), wk =   0.0281690
        k(   59) = (   0.0000000   0.0000000   0.1026252), wk =   0.0281690
        k(   60) = (   0.0000000   0.0000000   0.1154534), wk =   0.0281690
        k(   61) = (   0.0000000   0.0000000   0.1282815), wk =   0.0281690
        k(   62) = (  -0.0333330   0.0577353   0.1282815), wk =   0.0281690
        k(   63) = (  -0.0666660   0.1154705   0.1282815), wk =   0.0281690
        k(   64) = (  -0.0999990   0.1732058   0.1282815), wk =   0.0281690
        k(   65) = (  -0.1333320   0.2309410   0.1282815), wk =   0.0281690
        k(   66) = (  -0.1666650   0.2886763   0.1282815), wk =   0.0281690
        k(   67) = (  -0.1999980   0.3464115   0.1282815), wk =   0.0281690
        k(   68) = (  -0.2333310   0.4041468   0.1282815), wk =   0.0281690
        k(   69) = (  -0.2666640   0.4618821   0.1282815), wk =   0.0281690
        k(   70) = (  -0.2999970   0.5196173   0.1282815), wk =   0.0281690
        k(   71) = (  -0.3333300   0.5773526   0.1282815), wk =   0.0281690

                       cryst. coord.
        k(    1) = (   0.0000000   0.0000000   0.0000000), wk =   0.0281690
        k(    2) = (  -0.0158729   0.0317460   0.0000000), wk =   0.0281690
        k(    3) = (  -0.0317457   0.0634921   0.0000000), wk =   0.0281690
        k(    4) = (  -0.0476186   0.0952381   0.0000000), wk =   0.0281690
        k(    5) = (  -0.0634914   0.1269842   0.0000000), wk =   0.0281690
        k(    6) = (  -0.0793643   0.1587302   0.0000000), wk =   0.0281690
        k(    7) = (  -0.0952371   0.1904763   0.0000000), wk =   0.0281690
        k(    8) = (  -0.1111100   0.2222223   0.0000000), wk =   0.0281690
        k(    9) = (  -0.1269829   0.2539684   0.0000000), wk =   0.0281690
        k(   10) = (  -0.1428557   0.2857144   0.0000000), wk =   0.0281690
        k(   11) = (  -0.1587286   0.3174605   0.0000000), wk =   0.0281690
        k(   12) = (  -0.1746014   0.3492065   0.0000000), wk =   0.0281690
        k(   13) = (  -0.1904743   0.3809526   0.0000000), wk =   0.0281690
        k(   14) = (  -0.2063471   0.4126986   0.0000000), wk =   0.0281690
        k(   15) = (  -0.2222200   0.4444447   0.0000000), wk =   0.0281690
        k(   16) = (  -0.2380929   0.4761907   0.0000000), wk =   0.0281690
        k(   17) = (  -0.2539657   0.5079368   0.0000000), wk =   0.0281690
        k(   18) = (  -0.2698386   0.5396828   0.0000000), wk =   0.0281690
        k(   19) = (  -0.2857114   0.5714289   0.0000000), wk =   0.0281690
        k(   20) = (  -0.3015843   0.6031749   0.0000000), wk =   0.0281690
        k(   21) = (  -0.3174571   0.6349210   0.0000000), wk =   0.0281690
        k(   22) = (  -0.3333300   0.6666670   0.0000000), wk =   0.0281690
        k(   23) = (  -0.3030273   0.6515155   0.0000000), wk =   0.0281690
        k(   24) = (  -0.2727245   0.6363639   0.0000000), wk =   0.0281690
        k(   25) = (  -0.2424218   0.6212124   0.0000000), wk =   0.0281690
        k(   26) = (  -0.2121191   0.6060608   0.0000000), wk =   0.0281690
        k(   27) = (  -0.1818164   0.5909093   0.0000000), wk =   0.0281690
        k(   28) = (  -0.1515136   0.5757577   0.0000000), wk =   0.0281690
        k(   29) = (  -0.1212109   0.5606062   0.0000000), wk =   0.0281690
        k(   30) = (  -0.0909082   0.5454546   0.0000000), wk =   0.0281690
        k(   31) = (  -0.0606055   0.5303031   0.0000000), wk =   0.0281690
        k(   32) = (  -0.0303027   0.5151515   0.0000000), wk =   0.0281690
        k(   33) = (   0.0000000   0.5000000   0.0000000), wk =   0.0281690
        k(   34) = (   0.0000000   0.4722222   0.0000000), wk =   0.0281690
        k(   35) = (   0.0000000   0.4444444   0.0000000), wk =   0.0281690
        k(   36) = (   0.0000000   0.4166667   0.0000000), wk =   0.0281690
        k(   37) = (   0.0000000   0.3888889   0.0000000), wk =   0.0281690
        k(   38) = (   0.0000000   0.3611111   0.0000000), wk =   0.0281690
        k(   39) = (   0.0000000   0.3333333   0.0000000), wk =   0.0281690
        k(   40) = (   0.0000000   0.3055556   0.0000000), wk =   0.0281690
        k(   41) = (   0.0000000   0.2777778   0.0000000), wk =   0.0281690
        k(   42) = (   0.0000000   0.2500000   0.0000000), wk =   0.0281690
        k(   43) = (   0.0000000   0.2222222   0.0000000), wk =   0.0281690
        k(   44) = (   0.0000000   0.1944444   0.0000000), wk =   0.0281690
        k(   45) = (   0.0000000   0.1666667   0.0000000), wk =   0.0281690
        k(   46) = (   0.0000000   0.1388889   0.0000000), wk =   0.0281690
        k(   47) = (   0.0000000   0.1111111   0.0000000), wk =   0.0281690
        k(   48) = (   0.0000000   0.0833333   0.0000000), wk =   0.0281690
        k(   49) = (   0.0000000   0.0555556   0.0000000), wk =   0.0281690
        k(   50) = (   0.0000000   0.0277778   0.0000000), wk =   0.0281690
        k(   51) = (   0.0000000   0.0000000   0.0000000), wk =   0.0281690
        k(   52) = (   0.0000000   0.0000000   0.0500000), wk =   0.0281690
        k(   53) = (   0.0000000   0.0000000   0.1000000), wk =   0.0281690
        k(   54) = (   0.0000000   0.0000000   0.1500000), wk =   0.0281690
        k(   55) = (   0.0000000   0.0000000   0.2000000), wk =   0.0281690
        k(   56) = (   0.0000000   0.0000000   0.2500000), wk =   0.0281690
        k(   57) = (   0.0000000   0.0000000   0.3000000), wk =   0.0281690
        k(   58) = (   0.0000000   0.0000000   0.3500000), wk =   0.0281690
        k(   59) = (   0.0000000   0.0000000   0.4000000), wk =   0.0281690
        k(   60) = (   0.0000000   0.0000000   0.4500000), wk =   0.0281690
        k(   61) = (   0.0000000   0.0000000   0.5000000), wk =   0.0281690
        k(   62) = (  -0.0333330   0.0666667   0.5000000), wk =   0.0281690
        k(   63) = (  -0.0666660   0.1333334   0.5000000), wk =   0.0281690
        k(   64) = (  -0.0999990   0.2000001   0.5000000), wk =   0.0281690
        k(   65) = (  -0.1333320   0.2666668   0.5000000), wk =   0.0281690
        k(   66) = (  -0.1666650   0.3333335   0.5000000), wk =   0.0281690
        k(   67) = (  -0.1999980   0.4000002   0.5000000), wk =   0.0281690
        k(   68) = (  -0.2333310   0.4666669   0.5000000), wk =   0.0281690
        k(   69) = (  -0.2666640   0.5333336   0.5000000), wk =   0.0281690
        k(   70) = (  -0.2999970   0.6000003   0.5000000), wk =   0.0281690
        k(   71) = (  -0.3333300   0.6666670   0.5000000), wk =   0.0281690

     Dense  grid:    57449 G-vectors     FFT dimensions: (  32,  32, 125)

     Dynamical RAM for                 wfc:       0.82 MB

     Dynamical RAM for     wfc (w. buffer):       0.82 MB

     Dynamical RAM for           str. fact:       0.22 MB

     Dynamical RAM for           local pot:       0.00 MB

     Dynamical RAM for          nlocal pot:       1.48 MB

     Dynamical RAM for                qrad:       2.69 MB

     Dynamical RAM for          rho,v,vnew:       0.70 MB

     Dynamical RAM for           G-vectors:       0.47 MB

     Dynamical RAM for          h,s,v(r/c):       0.66 MB

     Dynamical RAM for          <psi|beta>:       0.10 MB

     Dynamical RAM for                 psi:       1.64 MB

     Dynamical RAM for                hpsi:       1.64 MB

     Dynamical RAM for      wfcinit/wfcrot:       1.73 MB

     Estimated static dynamical RAM per process >       7.33 MB

     Estimated max dynamical RAM per process >      11.38 MB

     Estimated total dynamical RAM >      91.03 MB

     The potential is recalculated from file :
     ./tmp/MoS2_bulk_pbe_vdW_nsoc.save/charge-density



     %%%%%%%%%%%%%%%%%%%%%%%%%%%%%%%%%%%%%%%%%%%%%%%%%%%%%%%%%%%%%%%%%%%%%%%%
     %                                                                      %
     % You are using vdW-DF, which was implemented by the Thonhauser group. %
     % Please cite the following two papers that made this development      %
     % possible and the two reviews that describe the various versions:     %
     %                                                                      %
     %   T. Thonhauser et al., PRL 115, 136402 (2015).                      %
     %   T. Thonhauser et al., PRB 76, 125112 (2007).                       %
     %   K. Berland et al., Rep. Prog. Phys. 78, 066501 (2015).             %
     %   D.C. Langreth et al., J. Phys.: Condens. Matter 21, 084203 (2009). %
     %                                                                      %
     % If you are calculating stress with vdW-DF, please also cite:         %
     %                                                                      %
     %   R. Sabatini et al., J. Phys.: Condens. Matter 24, 424209 (2012).   %
     %                                                                      %
     %%%%%%%%%%%%%%%%%%%%%%%%%%%%%%%%%%%%%%%%%%%%%%%%%%%%%%%%%%%%%%%%%%%%%%%%

     %%%%%%%%%%%%%%%%%%%%%%%%%%%%%%%%%%%%%%%%%%%%%%%%%%%%%%%%%%%%%%%%%%%%%%%%
     %                                                                      %
     %  vdW-DF NEWS:                                                        %
     %                                                                      %
     %  * vdW-DF3 is now available. DOI: 10.1021/acs.jctc.0c00471           %
     %    use with input_dft = 'vdW-DF3-opt1' or 'vdW-DF3-opt2'             %
     %                                                                      %
     %  * Unscreened and range-separated hybrid vdW-DF-cx functionals       %
     %    DOI: 10.1063/1.4986522 and 10.1088/1361-648X/ac2ad2               %
     %    use with input_dft = 'vdW-DF-cx0'    and 'vdW-DF-ahcx'            %
     %  * Unscreened and range-separated hybrid vdW-DF2-b86r functionals    %
     %    DOI: 10.1063/1.4986522 and DOI: 10.1103/PhysRevX.12.041003        %
     %    use with input_dft = 'vdW-DF2-br0' and 'vdW-DF2-ahbr'             %
     %                                                                      %
     %%%%%%%%%%%%%%%%%%%%%%%%%%%%%%%%%%%%%%%%%%%%%%%%%%%%%%%%%%%%%%%%%%%%%%%%


     Carrying out vdW-DF run using the following parameters:
     Nqs    =  20  Npoints =  1024  r_max =  100.000
     q_mesh =  0.00001000  0.04494208  0.09755937  0.15916263
               0.23128650  0.31572767  0.41458969  0.53033537
               0.66584808  0.82450364  1.01025438  1.22772762
               1.48234092  1.78043706  2.12944203  2.53805004
               3.01644009  3.57652955  4.23227104  5.00000000


     -----------------------------------------------
     Non-local corr. energy    =       0.55624529 Ry
     -----------------------------------------------

     Starting wfcs are   36 randomized atomic wfcs +   24 random wfcs

     Band Structure Calculation
     Davidson diagonalization with overlap

     Computing kpt #:     1  of    71
     total cpu time spent up to now is       11.9 secs

     Computing kpt #:     2  of    71
     total cpu time spent up to now is       13.6 secs

     Computing kpt #:     3  of    71
     total cpu time spent up to now is       14.9 secs

     Computing kpt #:     4  of    71
     total cpu time spent up to now is       16.3 secs

     Computing kpt #:     5  of    71
     total cpu time spent up to now is       17.9 secs

     Computing kpt #:     6  of    71
     total cpu time spent up to now is       19.3 secs

     Computing kpt #:     7  of    71
     total cpu time spent up to now is       20.6 secs

     Computing kpt #:     8  of    71
     total cpu time spent up to now is       22.0 secs

     Computing kpt #:     9  of    71
     total cpu time spent up to now is       23.4 secs

     Computing kpt #:    10  of    71
     total cpu time spent up to now is       24.8 secs

     Computing kpt #:    11  of    71
     total cpu time spent up to now is       26.2 secs

     Computing kpt #:    12  of    71
     total cpu time spent up to now is       27.6 secs

     Computing kpt #:    13  of    71
     total cpu time spent up to now is       29.3 secs

     Computing kpt #:    14  of    71
     total cpu time spent up to now is       31.1 secs

     Computing kpt #:    15  of    71
     total cpu time spent up to now is       32.8 secs

     Computing kpt #:    16  of    71
     total cpu time spent up to now is       34.4 secs

     Computing kpt #:    17  of    71
     c_bands:  1 eigenvalues not converged
     total cpu time spent up to now is       37.0 secs

     Computing kpt #:    18  of    71
     total cpu time spent up to now is       38.6 secs

     Computing kpt #:    19  of    71
     total cpu time spent up to now is       40.2 secs

     Computing kpt #:    20  of    71
     total cpu time spent up to now is       41.6 secs

     Computing kpt #:    21  of    71
     total cpu time spent up to now is       42.9 secs

     Computing kpt #:    22  of    71
     total cpu time spent up to now is       44.3 secs

     Computing kpt #:    23  of    71
     total cpu time spent up to now is       45.6 secs

     Computing kpt #:    24  of    71
     total cpu time spent up to now is       47.1 secs

     Computing kpt #:    25  of    71
     total cpu time spent up to now is       48.6 secs

     Computing kpt #:    26  of    71
     total cpu time spent up to now is       50.2 secs

     Computing kpt #:    27  of    71
     total cpu time spent up to now is       52.1 secs

     Computing kpt #:    28  of    71
     total cpu time spent up to now is       53.7 secs

     Computing kpt #:    29  of    71
     total cpu time spent up to now is       55.4 secs

     Computing kpt #:    30  of    71
     total cpu time spent up to now is       56.8 secs

     Computing kpt #:    31  of    71
     total cpu time spent up to now is       58.6 secs

     Computing kpt #:    32  of    71
     total cpu time spent up to now is       60.4 secs

     Computing kpt #:    33  of    71
     total cpu time spent up to now is       61.9 secs

     Computing kpt #:    34  of    71
     total cpu time spent up to now is       63.3 secs

     Computing kpt #:    35  of    71
     total cpu time spent up to now is       64.8 secs

     Computing kpt #:    36  of    71
     total cpu time spent up to now is       66.2 secs

     Computing kpt #:    37  of    71
     total cpu time spent up to now is       67.5 secs

     Computing kpt #:    38  of    71
     total cpu time spent up to now is       68.8 secs

     Computing kpt #:    39  of    71
     total cpu time spent up to now is       70.0 secs

     Computing kpt #:    40  of    71
     total cpu time spent up to now is       71.3 secs

     Computing kpt #:    41  of    71
     total cpu time spent up to now is       72.7 secs

     Computing kpt #:    42  of    71
     total cpu time spent up to now is       74.0 secs

     Computing kpt #:    43  of    71
     total cpu time spent up to now is       75.3 secs

     Computing kpt #:    44  of    71
     total cpu time spent up to now is       76.5 secs

     Computing kpt #:    45  of    71
     total cpu time spent up to now is       77.7 secs

     Computing kpt #:    46  of    71
     total cpu time spent up to now is       78.9 secs

     Computing kpt #:    47  of    71
     total cpu time spent up to now is       80.1 secs

     Computing kpt #:    48  of    71
     total cpu time spent up to now is       81.4 secs

     Computing kpt #:    49  of    71
     total cpu time spent up to now is       82.6 secs

     Computing kpt #:    50  of    71
     total cpu time spent up to now is       83.9 secs

     Computing kpt #:    51  of    71
     total cpu time spent up to now is       85.2 secs

     Computing kpt #:    52  of    71
     total cpu time spent up to now is       86.4 secs

     Computing kpt #:    53  of    71
     total cpu time spent up to now is       87.6 secs

     Computing kpt #:    54  of    71
     total cpu time spent up to now is       88.9 secs

     Computing kpt #:    55  of    71
     total cpu time spent up to now is       90.4 secs

     Computing kpt #:    56  of    71
     total cpu time spent up to now is       91.7 secs

     Computing kpt #:    57  of    71
     total cpu time spent up to now is       93.2 secs

     Computing kpt #:    58  of    71
     total cpu time spent up to now is       94.8 secs

     Computing kpt #:    59  of    71
     total cpu time spent up to now is       96.7 secs

     Computing kpt #:    60  of    71
     total cpu time spent up to now is       98.1 secs

     Computing kpt #:    61  of    71
     total cpu time spent up to now is       99.5 secs

     Computing kpt #:    62  of    71
     total cpu time spent up to now is      101.1 secs

     Computing kpt #:    63  of    71
     total cpu time spent up to now is      102.4 secs

     Computing kpt #:    64  of    71
     total cpu time spent up to now is      103.7 secs

     Computing kpt #:    65  of    71
     total cpu time spent up to now is      105.0 secs

     Computing kpt #:    66  of    71
     total cpu time spent up to now is      106.3 secs

     Computing kpt #:    67  of    71
     total cpu time spent up to now is      107.7 secs

     Computing kpt #:    68  of    71
     total cpu time spent up to now is      109.2 secs

     Computing kpt #:    69  of    71
     total cpu time spent up to now is      110.6 secs

     Computing kpt #:    70  of    71
     total cpu time spent up to now is      112.0 secs

     Computing kpt #:    71  of    71
     total cpu time spent up to now is      113.3 secs

     ethr =  1.92E-10,  avg # of iterations = 39.8

     total cpu time spent up to now is      113.3 secs

     End of band structure calculation

          k = 0.0000 0.0000 0.0000 (  7113 PWs)   bands (ev):

   -50.6260 -50.6260 -24.7878 -24.7877 -24.5626 -24.5626 -24.5625 -24.5625
    -4.0545  -3.7820  -2.8656  -2.4217   4.0241   5.0700   7.3377   7.6101
     7.6101   7.6232   7.6232   8.7037   8.7037   8.7500   8.7500   9.6703
     9.6726  10.8369  12.9573  12.9573  12.9859  12.9859  13.1044  13.1045
    13.2752  13.2753  16.3987  16.5569  18.9509  19.3727  19.4807  20.7541
    20.7542  20.8904  21.1751  21.1751  22.3478  22.5101  22.5101  23.2316
    23.2316  23.6013  25.6840  25.6840  25.7030  25.8438  25.8438  26.0522
    26.5633  26.5633  26.8051  27.1329

          k =-0.0159 0.0275 0.0000 (  7108 PWs)   bands (ev):

   -50.6257 -50.6257 -24.7872 -24.7870 -24.5656 -24.5655 -24.5633 -24.5632
    -4.0430  -3.7707  -2.8600  -2.4176   4.0377   5.0834   7.3135   7.5832
     7.5966   7.6222   7.6354   8.6503   8.6840   8.7310   8.7617   9.6746
     9.6991  10.8152  12.9435  12.9611  12.9811  13.0082  13.0891  13.0902
    13.2337  13.2632  16.4574  16.6124  19.0035  19.3747  19.5363  20.7306
    20.7902  20.8935  21.1370  21.2121  22.3358  22.4154  22.5075  23.1296
    23.2420  23.6129  25.5348  25.6330  25.7752  25.8661  25.8664  26.1626
    26.4825  26.5773  26.9396  27.1120

          k =-0.0317 0.0550 0.0000 (  7116 PWs)   bands (ev):

   -50.6248 -50.6248 -24.7855 -24.7853 -24.5743 -24.5743 -24.5653 -24.5652
    -4.0086  -3.7369  -2.8435  -2.4054   4.0778   5.1227   7.2452   7.5049
     7.5196   7.6574   7.6713   8.5128   8.6245   8.6735   8.7935   9.6798
     9.7626  10.7500  12.9052  12.9105  13.0372  13.0384  13.0538  13.0721
    13.1244  13.2261  16.6254  16.7738  19.1533  19.3779  19.6952  20.6673
    20.8899  20.9009  21.0374  21.3218  22.1716  22.2948  22.4875  22.8798
    23.2697  23.6367  25.3695  25.4975  25.6066  25.9170  26.0740  26.2004
    26.5434  26.6083  27.0491  27.1361

          k =-0.0476 0.0825 0.0000 (  7110 PWs)   bands (ev):

   -50.6234 -50.6234 -24.7827 -24.7825 -24.5884 -24.5884 -24.5687 -24.5686
    -3.9520  -3.6812  -2.8163  -2.3852   4.1430   5.1862   7.1433   7.3823
     7.3989   7.7149   7.7302   8.3295   8.5234   8.5770   8.8386   9.6854
     9.8217  10.6415  12.8244  12.8728  12.9066  13.0087  13.0132  13.1325
    13.1633  13.1770  16.8828  17.0275  19.3761  19.3770  19.9333  20.5813
    20.8630  20.9091  21.0760  21.4986  21.8558  22.2198  22.3428  22.6735
    23.3106  23.6466  25.1817  25.3129  25.4093  25.8703  26.0176  26.3216
    26.6514  26.9520  27.0123  27.1026

          k =-0.0635 0.1100 0.0000 (  7130 PWs)   bands (ev):

   -50.6215 -50.6215 -24.7789 -24.7787 -24.6076 -24.6075 -24.5734 -24.5734
    -3.8740  -3.6047  -2.7787  -2.3575   4.2308   5.2701   7.0199   7.2260
     7.2445   7.7925   7.8098   8.1267   8.3796   8.4414   8.8895   9.6871
     9.8517  10.4919  12.7056  12.7373  12.8462  12.9198  12.9674  13.0782
    13.2560  13.3200  17.2057  17.3561  19.3665  19.6362  20.2055  20.4880
    20.6868  20.9198  21.2675  21.5357  21.7286  22.0029  22.1278  22.6559
    23.3593  23.6211  24.9606  25.1042  25.2428  25.5373  26.1143  26.5312
    26.7065  26.9060  27.0293  27.5789

          k =-0.0794 0.1375 0.0000 (  7134 PWs)   bands (ev):

   -50.6191 -50.6191 -24.7742 -24.7740 -24.6307 -24.6307 -24.5795 -24.5795
    -3.7758  -3.5086  -2.7314  -2.3228   4.3373   5.3689   6.8861   7.0488
     7.0680   7.8864   7.9068   7.9184   8.1943   8.2694   8.9404   9.6788
     9.8434  10.3079  12.4883  12.6589  12.8194  12.8423  12.9283  12.9849
    13.4010  13.4963  17.5696  17.7405  19.3540  19.8703  20.3925  20.4226
    20.4903  20.9537  21.2766  21.4234  21.6609  21.9822  22.0914  22.7114
    23.4013  23.5657  24.6958  24.8735  25.1447  25.2300  26.2442  26.4589
    26.7740  26.9371  27.1635  28.1892

          k =-0.0952 0.1650 0.0000 (  7154 PWs)   bands (ev):

   -50.6163 -50.6163 -24.7687 -24.7686 -24.6572 -24.6571 -24.5870 -24.5870
    -3.6589  -3.3948  -2.6751  -2.2818   4.4574   5.4736   6.7506   6.8661
     6.8822   7.7105   7.9715   7.9911   8.0156   8.0686   8.9872   9.6541
     9.7977  10.1001  12.2780  12.5997  12.7168  12.8364  12.8660  12.9479
    13.5584  13.6978  17.9472  18.1605  19.3514  19.9868  20.2805  20.2976
    20.4698  20.9311  21.1612  21.4338  21.5297  22.2019  22.2276  22.8153
    23.4047  23.5285  24.3786  24.6135  25.0212  25.1319  26.2591  26.3959
    26.8553  26.8628  27.5830  28.8091

          k =-0.1111 0.1925 0.0000 (  7150 PWs)   bands (ev):

   -50.6133 -50.6133 -24.7627 -24.7625 -24.6858 -24.6857 -24.5958 -24.5958
    -3.5254  -3.2655  -2.6107  -2.2352   4.5835   5.5693   6.6200   6.6971
     6.7003   7.5006   7.7187   7.8538   8.0977   8.1266   9.0264   9.6087
     9.7200   9.8835  12.0888  12.5652  12.6242  12.7176  12.9157  12.9495
    13.7182  13.9143  18.3023  18.5906  19.3773  19.9337  20.0619  20.1960
    20.3818  20.7017  21.2268  21.3456  21.7282  22.3012  22.4972  22.9655
    23.3291  23.5663  24.0079  24.3593  24.9735  25.2019  26.0490  26.5646
    26.8318  26.9594  28.0663  29.4068

          k =-0.1270 0.2199 0.0000 (  7168 PWs)   bands (ev):

   -50.6100 -50.6100 -24.7562 -24.7560 -24.7156 -24.7155 -24.6060 -24.6060
    -3.3774  -3.1231  -2.5392  -2.1840   4.7059   5.6323   6.4984   6.5363
     6.5680   7.2776   7.4458   7.6488   8.1928   8.2247   9.0554   9.5440
     9.6165   9.6774  11.9293  12.5552  12.5568  12.6052  12.9628  12.9880
    13.8707  14.1348  18.5859  18.9745  19.4436  19.7869  19.8704  20.1017
    20.2230  20.4504  21.2587  21.3852  22.0136  22.2392  22.7860  23.1547
    23.1717  23.5627  23.6011  24.2997  25.0978  25.3297  25.8724  26.7489
    26.8518  27.1035  28.5929  29.9484

          k =-0.1429 0.2474 0.0000 (  7172 PWs)   bands (ev):

   -50.6066 -50.6066 -24.7495 -24.7493 -24.7454 -24.7453 -24.6176 -24.6176
    -3.2178  -2.9707  -2.4621  -2.1294   4.8117   5.6345   6.3864   6.4055
     6.5073   7.0298   7.1658   7.4775   8.2565   8.2866   9.0714   9.4717
     9.4920   9.5068  11.8048  12.5159  12.5229  12.5714  12.9799  13.0765
    14.0066  14.3486  18.7586  19.1219  19.4915  19.6297  19.8817  20.0293
    20.0886  20.2543  21.2147  21.5481  22.0531  22.2887  22.9104  22.9755
    23.2885  23.3662  23.3792  24.5809  25.3420  25.4664  25.7765  26.9147
    26.9510  27.3235  29.1497  30.3991

          k =-0.1587 0.2749 0.0000 (  7196 PWs)   bands (ev):

   -50.6031 -50.6031 -24.7742 -24.7742 -24.7427 -24.7425 -24.6305 -24.6304
    -3.0494  -2.8116  -2.3806  -2.0724   4.8869   5.5707   6.2784   6.3227
     6.5181   6.7598   6.8966   7.3487   8.2642   8.2854   9.0721   9.3501
     9.3983   9.4121  11.7208  12.4653  12.5299  12.6064  12.9921  13.1761
    14.1189  14.5461  18.8261  18.9435  19.4071  19.4999  19.8539  20.1098
    20.1703  20.2300  21.2282  21.6806  21.7912  22.5339  22.5753  22.7839
    23.1923  23.3284  23.5834  25.0187  25.5556  25.6332  25.8171  27.0111
    27.1795  27.6595  29.7213  30.2963

          k =-0.1746 0.3024 0.0000 (  7202 PWs)   bands (ev):

   -50.5997 -50.5997 -24.8009 -24.8009 -24.7360 -24.7358 -24.6447 -24.6446
    -2.8760  -2.6497  -2.2963  -2.0145   4.9231   5.4689   6.1554   6.2962
     6.4802   6.5687   6.6679   7.2588   8.1978   8.2102   9.0557   9.1938
     9.3621   9.3834  11.6845  12.4672  12.5718  12.6557  12.9911  13.2810
    14.2040  14.7197  18.6621  18.7974  19.2401  19.4123  19.7231  20.0125
    20.4280  20.4771  21.3100  21.5228  21.7730  22.1739  22.6269  22.7484
    23.0927  23.3375  23.7742  25.5048  25.5734  25.9035  26.0265  27.1343
    27.4419  28.1261  29.9054  30.2824

          k =-0.1905 0.3299 0.0000 (  7210 PWs)   bands (ev):

   -50.5964 -50.5964 -24.8248 -24.8248 -24.7295 -24.7293 -24.6599 -24.6599
    -2.7013  -2.4891  -2.2109  -1.9570   4.9244   5.3608   5.9879   6.2036
     6.3206   6.5179   6.6228   7.2031   8.0590   8.0799   9.0210   9.0262
     9.3819   9.3881  11.7014  12.5299  12.6375  12.7122  12.9683  13.3853
    14.2638  14.8646  18.3667  18.6546  19.0701  19.3724  19.6464  19.9672
    20.5562  20.6265  21.3570  21.4528  21.8208  21.9164  22.5271  22.9352
    23.0817  23.2394  23.9010  25.5483  25.9807  26.1072  26.3766  27.2795
    27.7211  28.7028  29.5271  30.7749

          k =-0.2063 0.3574 0.0000 (  7202 PWs)   bands (ev):

   -50.5934 -50.5934 -24.8449 -24.8449 -24.7234 -24.7233 -24.6762 -24.6762
    -2.5297  -2.3343  -2.1264  -1.9016   4.9072   5.2668   5.7762   5.9395
     6.3782   6.4534   6.6567   7.1776   7.8654   7.9216   8.8507   8.9678
     9.4185   9.4362  11.7690  12.6522  12.7140  12.7664  12.9164  13.4828
    14.3065  14.9793  18.0862  18.4136  18.8978  19.3805  19.6214  19.9813
    20.5190  20.5789  21.3592  21.5582  21.8217  21.9888  22.5012  23.0866
    23.0963  23.1431  23.9143  25.5396  26.2337  26.3795  26.8036  27.4374
    27.9534  29.2537  29.3535  31.0581

          k =-0.2222 0.3849 0.0000 (  7186 PWs)   bands (ev):

   -50.5906 -50.5906 -24.8607 -24.8607 -24.7179 -24.7178 -24.6935 -24.6935
    -2.3658  -2.1901  -2.0446  -1.8498   4.8910   5.1990   5.5514   5.6950
     6.4474   6.4502   6.6584   7.1782   7.6357   7.7525   8.6718   8.8970
     9.4694   9.5155  11.8732  12.7922  12.8078  12.8140  12.8390  13.5676
    14.3454  15.0654  17.8384  18.1215  18.7011  19.4332  19.6417  20.0584
    20.2401  20.5902  21.4542  21.6638  21.7866  22.2247  22.5485  22.9643
    23.2295  23.2566  23.7864  25.5887  26.2969  26.6193  27.2440  27.5857
    28.0470  29.1824  30.0331  31.0587

          k =-0.2381 0.4124 0.0000 (  7198 PWs)   bands (ev):

   -50.5882 -50.5882 -24.8718 -24.8718 -24.7131 -24.7130 -24.7116 -24.7116
    -2.2142  -2.0608  -1.9677  -1.8032   4.8922   5.1650   5.3370   5.4757
     6.4841   6.5172   6.6264   7.1998   7.3839   7.5790   8.4955   8.8105
     9.5413   9.6178  11.9862  12.7059  12.8268  12.8727  13.0248  13.6344
    14.3954  15.1266  17.6376  17.8085  18.4982  19.5240  19.7015  19.9178
    20.1955  20.6546  21.5696  21.7390  21.7958  22.3478  22.6519  23.0198
    23.3090  23.3969  23.5605  25.6828  26.3150  26.6510  27.6478  27.7230
    27.9426  29.3305  30.6413  30.8733

          k =-0.2540 0.4399 0.0000 (  7192 PWs)   bands (ev):

   -50.5861 -50.5861 -24.8779 -24.8779 -24.7303 -24.7301 -24.7090 -24.7089
    -2.0794  -1.9505  -1.8975  -1.7633   4.9227   5.1451   5.1692   5.2860
     6.5496   6.5667   6.5744   7.1198   7.2344   7.4031   8.3305   8.7110
     9.6346   9.7405  12.0694  12.5522  12.8188  12.9710  13.2295  13.6799
    14.4674  15.1668  17.4953  17.4980  18.3171  19.6044  19.6442  19.7968
    20.3836  20.7732  21.6881  21.7018  21.8806  22.3757  22.7913  23.1221
    23.2637  23.4860  23.5373  25.7808  26.3019  26.5251  27.6568  27.8781
    27.9827  29.5424  30.5235  30.8349

          k =-0.2698 0.4674 0.0000 (  7204 PWs)   bands (ev):

   -50.5844 -50.5844 -24.8790 -24.8790 -24.7492 -24.7491 -24.7057 -24.7056
    -1.9650  -1.8621  -1.8359  -1.7316   4.9829   4.9900   5.1294   5.2124
     6.4888   6.6177   6.6385   6.8508   7.2266   7.2688   8.1902   8.6022
     9.7449   9.8760  12.0901  12.3785  12.7867  13.1050  13.4134  13.7036
    14.5642  15.1880  17.2009  17.4328  18.1711  19.3121  19.7819  19.9226
    20.6099  20.9311  21.6925  21.8103  21.8458  22.5114  22.7500  22.9466
    23.5125  23.5421  23.6482  25.8500  26.2666  26.3430  27.2588  28.0535
    28.2395  29.5805  30.0381  30.4950

          k =-0.2857 0.4949 0.0000 (  7204 PWs)   bands (ev):

   -50.5832 -50.5832 -24.8754 -24.8754 -24.7681 -24.7680 -24.7031 -24.7031
    -1.8737  -1.7976  -1.7845  -1.7090   4.8545   5.0081   5.0975   5.2905
     6.4029   6.5832   6.6491   6.7441   7.0553   7.2820   8.0947   8.4883
     9.8616  10.0114  12.0486  12.2025  12.7400  13.2699  13.5543  13.7090
    14.6804  15.1892  16.9436  17.4519  18.0586  19.0388  19.9256  20.0709
    20.8560  21.1122  21.7241  21.7568  21.9354  22.3548  22.7438  23.0922
    23.4983  23.7068  23.7720  25.8822  26.1723  26.2144  26.8292  28.2372
    28.4255  29.3485  29.5257  30.1459

          k =-0.3016 0.5224 0.0000 (  7196 PWs)   bands (ev):

   -50.5823 -50.5823 -24.8677 -24.8677 -24.7862 -24.7861 -24.7014 -24.7014
    -1.8065  -1.7571  -1.7444  -1.6962   4.7626   4.9229   5.2429   5.3903
     6.3215   6.3258   6.6707   6.8600   6.8976   7.2535   8.0634   8.3742
     9.9678  10.1287  11.9765  12.0476  12.6914  13.4373  13.6390  13.7022
    14.8059  15.1668  16.7419  17.5549  17.9715  18.7823  20.0649  20.2241
    21.0882  21.2970  21.6750  21.7997  21.9932  22.0543  23.0217  23.1958
    23.4241  23.7054  23.8986  25.8969  26.0357  26.1493  26.4466  28.4102
    28.5376  29.0256  29.1264  29.7963

          k =-0.3175 0.5499 0.0000 (  7198 PWs)   bands (ev):

   -50.5818 -50.5818 -24.8580 -24.8580 -24.8020 -24.8019 -24.7004 -24.7004
    -1.7631  -1.7393  -1.7162  -1.6933   4.7079   4.8736   5.4097   5.4815
     6.0973   6.2646   6.6869   6.7690   6.9774   7.1818   8.0959   8.2658
    10.0428  10.2081  11.9144  11.9392  12.6538  13.5729  13.6669  13.6916
    14.9286  15.1168  16.6138  17.7190  17.9024  18.5543  20.1951  20.3377
    21.2250  21.4577  21.6126  21.7654  21.8996  22.1477  23.2313  23.3076
    23.3234  23.6572  23.8764  25.9282  25.9340  26.0787  26.1797  28.5049
    28.5283  28.8572  28.9845  29.4640

          k =-0.3333 0.5774 0.0000 (  7206 PWs)   bands (ev):

   -50.5817 -50.5817 -24.8523 -24.8523 -24.8096 -24.8096 -24.7001 -24.7001
    -1.7417  -1.7417  -1.6998  -1.6998   4.6901   4.8579   5.5152   5.5152
     5.9784   6.2498   6.7019   6.7019   7.0861   7.0861   8.1701   8.1701
    10.0695  10.2352  11.8955  11.8955  12.6389  13.6477  13.6477  13.6861
    15.0362  15.0363  16.5713  17.8497  17.8497  18.4341  20.3166  20.3167
    21.2317  21.5581  21.5581  21.7314  21.9576  22.1875  23.2296  23.2296
    23.5900  23.5900  23.7406  25.8886  26.0022  26.0022  26.0763  28.4924
    28.4924  28.9445  28.9445  29.2761

          k =-0.3030 0.5774 0.0000 (  7192 PWs)   bands (ev):

   -50.5818 -50.5818 -24.8583 -24.8583 -24.8020 -24.8019 -24.7003 -24.7003
    -1.7596  -1.7390  -1.7137  -1.6942   4.7055   4.8708   5.4242   5.4692
     6.0937   6.2410   6.7227   6.7528   6.9917   7.1701   8.0985   8.2577
    10.0472  10.2139  11.9148  11.9306  12.6552  13.5985  13.6494  13.6935
    14.9308  15.1143  16.6037  17.7775  17.8228  18.5723  20.1316  20.4260
    21.2173  21.4877  21.5705  21.7355  21.8738  22.1346  23.3012  23.3014
    23.3638  23.5501  23.9867  25.9055  25.9468  26.1190  26.1422  28.4615
    28.5341  28.8036  29.0947  29.4040

          k =-0.2727 0.5774 0.0000 (  7208 PWs)   bands (ev):

   -50.5821 -50.5821 -24.8710 -24.8709 -24.7851 -24.7850 -24.7010 -24.7010
    -1.7892  -1.7503  -1.7337  -1.6974   4.7495   4.9057   5.2447   5.3680
     6.1959   6.3077   6.7730   6.9073   6.9335   7.2240   8.0535   8.3459
     9.9911  10.1616  11.9778  12.0104  12.7080  13.5319  13.5876  13.7197
    14.8007  15.1596  16.6744  17.5832  17.8396  18.8774  19.8722  20.5232
    21.0226  21.3587  21.5025  21.6287  21.8570  21.9489  23.0346  23.5105
    23.5400  23.5883  24.3091  25.8123  26.1352  26.2755  26.3035  28.2092
    28.6373  28.9288  29.2353  29.6548

          k =-0.2424 0.5774 0.0000 (  7204 PWs)   bands (ev):

   -50.5826 -50.5826 -24.8849 -24.8848 -24.7647 -24.7647 -24.7021 -24.7020
    -1.8270  -1.7722  -1.7583  -1.7074   4.8179   4.9563   5.0563   5.2407
     6.1302   6.4700   6.8425   6.9195   7.1958   7.2422   8.0377   8.4234
     9.9200  10.0967  12.0638  12.1177  12.8020  13.4579  13.4781  13.7689
    14.6522  15.1666  16.7310  17.3653  17.9309  19.2448  19.6095  20.5750
    20.6425  21.1249  21.3197  21.3789  21.6382  22.1133  22.7561  23.7223
    23.8223  23.8902  24.6367  25.7285  26.4412  26.4618  26.5179  27.8717
    28.7474  29.1923  29.3317  29.9754

          k =-0.2121 0.5774 0.0000 (  7192 PWs)   bands (ev):

   -50.5833 -50.5833 -24.8983 -24.8983 -24.7434 -24.7433 -24.7033 -24.7033
    -1.8695  -1.8011  -1.7855  -1.7225   4.8779   4.9053   5.0146   5.1057
     6.0606   6.5266   6.8037   7.1920   7.2289   7.5007   8.0450   8.4821
     9.8495  10.0320  12.1553  12.2345  12.9388  13.3399  13.3837  13.8418
    14.4953  15.1338  16.7314  17.1530  18.1146  19.3725  19.6409  20.1839
    20.4652  20.7740  21.1251  21.2127  21.2762  22.4345  22.5766  23.9264
    24.1832  24.3050  24.9581  25.6685  26.6669  26.7531  26.8277  27.5257
    28.8045  29.3324  29.4923  30.3503

          k =-0.1818 0.5774 0.0000 (  7208 PWs)   bands (ev):

   -50.5840 -50.5840 -24.9107 -24.9107 -24.7225 -24.7224 -24.7047 -24.7047
    -1.9133  -1.8336  -1.8135  -1.7406   4.7161   4.9742   5.0054   5.0726
     5.9939   6.5318   6.7956   7.1949   7.5243   7.8255   8.0641   8.5167
     9.7884   9.9734  12.2407  12.3454  13.1166  13.1903  13.3141  13.9299
    14.3473  15.0658  16.6700  16.9580  18.3744  19.1643  19.7080  20.0403
    20.1431  20.3593  20.8564  21.0901  21.1298  22.4796  22.7912  24.1709
    24.5372  24.7591  25.2522  25.6669  26.8805  26.9862  27.2035  27.2459
    28.7626  29.1966  29.7824  30.5163

          k =-0.1515 0.5774 0.0000 (  7214 PWs)   bands (ev):

   -50.5846 -50.5846 -24.9216 -24.9216 -24.7060 -24.7060 -24.7030 -24.7029
    -1.9554  -1.8665  -1.8406  -1.7597   4.5745   4.8535   5.1108   5.1235
     5.9334   6.5185   6.8194   7.1517   7.8735   8.0851   8.1544   8.5251
     9.7384   9.9205  12.3140  12.4375  13.0456  13.2513  13.3296  13.9871
    14.2598  14.9721  16.5639  16.7871  18.6741  18.9452  19.2851  19.7534
    19.8814  20.4896  20.4930  20.9536  21.2083  22.4291  23.1677  24.4331
    24.8006  25.2365  25.4673  25.7943  26.9624  27.0925  27.2041  27.6061
    28.6276  29.0059  30.0123  30.2063

          k =-0.1212 0.5774 0.0000 (  7196 PWs)   bands (ev):

   -50.5853 -50.5853 -24.9308 -24.9308 -24.7073 -24.7072 -24.6856 -24.6856
    -1.9935  -1.8973  -1.8650  -1.7780   4.4555   4.7487   5.1630   5.2138
     5.8811   6.4985   6.8714   7.1075   8.1024   8.2182   8.4738   8.5091
     9.6950   9.8688  12.3731  12.4972  12.9240  13.1964  13.5666  13.9304
    14.3169  14.8665  16.4338  16.6448  18.6043  18.9760  19.0445  19.3735
    19.4650  20.1811  20.8463  20.8983  21.2968  22.3993  23.5491  24.6928
    24.9166  25.5096  25.7218  26.0942  26.9017  27.2951  27.4040  27.6980
    28.5246  28.9474  29.7383  30.1118

          k =-0.0909 0.5774 0.0000 (  7202 PWs)   bands (ev):

   -50.5858 -50.5858 -24.9382 -24.9381 -24.7083 -24.7083 -24.6714 -24.6713
    -2.0253  -1.9236  -1.8855  -1.7939   4.3610   4.6635   5.1904   5.3059
     5.8387   6.4777   6.9415   7.0681   8.1142   8.4744   8.5416   8.7713
     9.6495   9.8108  12.4186  12.5105  12.8462  13.1501  13.8097  13.8300
    14.4426  14.7642  16.3004  16.5335  18.2084  18.9360  19.0367  19.1028
    19.2442  19.9355  20.7770  21.2915  21.3758  22.3751  23.9147  24.9267
    24.9393  25.3594  26.1920  26.4877  27.0470  27.4851  27.5112  27.5992
    28.3628  29.2217  29.2877  30.0349

          k =-0.0606 0.5774 0.0000 (  7188 PWs)   bands (ev):

   -50.5862 -50.5862 -24.9434 -24.9434 -24.7091 -24.7091 -24.6608 -24.6607
    -2.0493  -1.9437  -1.9010  -1.8062   4.2925   4.6007   5.2072   5.3791
     5.8073   6.4600   7.0140   7.0372   8.1210   8.4319   8.8267   9.0340
     9.5915   9.7384  12.4514  12.4825  12.8164  13.1137  13.7446  14.0317
    14.5665  14.6792  16.1848  16.4542  17.8641  18.7687  18.8234  18.8767
    19.4453  19.7641  20.7485  21.4362  21.6441  22.3451  24.2334  24.9314
    25.1066  25.1325  26.6038  26.8576  27.2879  27.3102  27.6730  27.8308
    28.1437  28.9002  29.6338  29.8347

          k =-0.0303 0.5774 0.0000 (  7188 PWs)   bands (ev):

   -50.5865 -50.5865 -24.9467 -24.9467 -24.7096 -24.7096 -24.6542 -24.6541
    -2.0641  -1.9563  -1.9105  -1.8139   4.2509   4.5623   5.2159   5.4263
     5.7882   6.4483   7.0176   7.0697   8.1242   8.3964   9.0508   9.2468
     9.5172   9.6486  12.4473  12.4716  12.8107  13.0899  13.6897  14.1941
    14.6227  14.6559  16.1060  16.4070  17.6266  18.5941  18.6470  18.8455
    19.5498  19.6783  20.7487  21.4742  21.9216  22.2973  24.4596  24.9181
    24.9447  25.2118  26.8853  27.0982  27.2050  27.5064  27.8693  27.9557
    28.1416  28.6210  29.4311  29.6174

          k = 0.0000 0.5774 0.0000 (  7222 PWs)   bands (ev):

   -50.5866 -50.5866 -24.9478 -24.9478 -24.7099 -24.7099 -24.6520 -24.6519
    -2.0691  -1.9606  -1.9138  -1.8165   4.2370   4.5494   5.2185   5.4427
     5.7817   6.4442   7.0108   7.0908   8.1251   8.3824   9.1535   9.3540
     9.4669   9.5839  12.4328  12.4785  12.8105  13.0815  13.6708  14.2550
    14.6026  14.6886  16.0781  16.3912  17.5407  18.5332  18.5867  18.8357
    19.5636  19.6699  20.7532  21.4871  22.0532  22.2509  24.5431  24.8668
    24.9173  25.2442  26.9811  27.1746  27.1813  27.5977  27.8775  27.9858
    28.3684  28.5048  29.1454  29.4434

          k = 0.0000 0.5453 0.0000 (  7196 PWs)   bands (ev):

   -50.5869 -50.5869 -24.9449 -24.9449 -24.7104 -24.7104 -24.6513 -24.6513
    -2.0913  -1.9767  -1.9251  -1.8198   4.2562   4.5684   5.2342   5.4642
     5.7907   6.4551   7.0200   7.0999   8.1258   8.3977   9.1443   9.3419
     9.4281   9.5794  12.4254  12.4755  12.7817  13.0736  13.6600  14.2513
    14.5902  14.6819  16.1036  16.4890  17.5606  18.4175  18.5466  18.9936
    19.6017  19.7090  20.7902  21.4837  22.0906  22.2674  24.5131  24.8179
    24.9028  25.2376  26.8975  27.0627  27.1041  27.5347  27.6926  27.9987
    28.3799  28.5261  28.8322  29.6277

          k = 0.0000 0.5132 0.0000 (  7186 PWs)   bands (ev):

   -50.5878 -50.5878 -24.9365 -24.9365 -24.7122 -24.7122 -24.6492 -24.6492
    -2.1553  -2.0251  -1.9570  -1.8308   4.3118   4.6244   5.2808   5.5279
     5.8164   6.4859   7.0476   7.1271   8.1305   8.4412   9.1165   9.3053
     9.3377   9.5500  12.4052  12.4679  12.7022  13.0519  13.6273  14.2398
    14.5517  14.6618  16.2083  16.7379  17.6206  18.2668  18.4579  19.2706
    19.6244  19.8850  20.8992  21.4759  22.2000  22.3130  24.4252  24.6709
    24.8596  25.2127  26.6608  26.7888  26.8845  27.2633  27.3465  27.9908
    28.3358  28.4086  28.6418  29.7344

          k = 0.0000 0.4811 0.0000 (  7188 PWs)   bands (ev):

   -50.5892 -50.5892 -24.9227 -24.9226 -24.7151 -24.7150 -24.6460 -24.6460
    -2.2550  -2.1045  -2.0054  -1.8513   4.3977   4.7139   5.3566   5.6313
     5.8545   6.5301   7.0933   7.1722   8.1448   8.5080   9.0694   9.2297
     9.2445   9.4905  12.3777  12.4597  12.5879  13.0216  13.5721  14.2198
    14.4844  14.6276  16.4085  17.0803  17.7219  18.1678  18.3655  19.5784
    19.6325  20.1457  21.0742  21.4702  22.3738  22.3758  24.2856  24.4333
    24.7849  25.1478  26.3094  26.4349  26.5523  26.7667  27.0442  27.8234
    27.9337  28.4255  28.8033  29.6447

          k = 0.0000 0.4491 0.0000 (  7178 PWs)   bands (ev):

   -50.5912 -50.5912 -24.9039 -24.9038 -24.7190 -24.7189 -24.6416 -24.6415
    -2.3830  -2.2113  -2.0666  -1.8817   4.5042   4.8322   5.4587   5.7710
     5.8990   6.5773   7.1566   7.2346   8.1734   8.5944   9.0024   9.1313
     9.1602   9.4155  12.3504  12.4562  12.4567  12.9882  13.4944  14.1902
    14.3857  14.5786  16.6906  17.4767  17.8647  18.1382  18.2934  19.6454
    19.8942  20.4342  21.3063  21.4762  22.4323  22.5984  24.1042  24.1299
    24.6739  24.9919  25.8873  26.0474  26.1426  26.3399  26.6556  27.2792
    27.8427  28.4013  29.0419  29.4559

          k = 0.0000 0.4170 0.0000 (  7176 PWs)   bands (ev):

   -50.5936 -50.5936 -24.8806 -24.8806 -24.7238 -24.7238 -24.6361 -24.6360
    -2.5320  -2.3403  -2.1372  -1.9210   4.6180   4.9728   5.5831   5.9424
     5.9447   6.6146   7.2368   7.3136   8.2192   8.6983   8.9157   9.0538
     9.0668   9.3485  12.3241  12.3312  12.4628  12.9554  13.3957  14.1495
    14.2558  14.5139  17.0307  17.8931  18.0426  18.1904  18.2541  19.6677
    20.1986  20.7106  21.5068  21.5847  22.4382  22.8529  23.8177  23.8937
    24.5199  24.6952  25.4311  25.6532  25.6891  26.0914  26.2199  26.7306
    27.7329  28.3267  29.3039  29.3370

          k = 0.0000 0.3849 0.0000 (  7184 PWs)   bands (ev):

   -50.5965 -50.5965 -24.8536 -24.8536 -24.7294 -24.7294 -24.6297 -24.6297
    -2.6947  -2.4855  -2.2143  -1.9672   4.7213   5.1281   5.7252   5.9920
     6.1406   6.6301   7.3329   7.4084   8.2832   8.8104   8.8185   8.9284
     9.0544   9.3132  12.2029  12.3268  12.4835  12.9255  13.2796  14.0963
    14.0977  14.4325  17.4024  18.1905  18.2256  18.3518  18.3642  19.6973
    20.4678  20.9265  21.5756  21.8974  22.3270  23.1012  23.5810  23.6680
    24.3087  24.3311  24.9781  25.2223  25.2701  25.7855  26.0163  26.2010
    27.6117  28.2050  29.2056  29.6637

          k = 0.0000 0.3528 0.0000 (  7184 PWs)   bands (ev):

   -50.5996 -50.5996 -24.8236 -24.8236 -24.7356 -24.7356 -24.6227 -24.6227
    -2.8648  -2.6407  -2.2950  -2.0185   4.7928   5.2874   5.8803   6.0512
     6.3601   6.6196   7.4437   7.5175   8.3642   8.6893   8.7881   8.9536
     9.1031   9.3248  12.1044  12.3415  12.5208  12.8997  13.1524  13.9175
    14.0289  14.3340  17.7749  18.2238  18.4162  18.6153  18.7451  19.7232
    20.6769  21.0097  21.6876  22.1006  22.2306  23.2765  23.4184  23.4412
    24.0078  24.0902  24.5857  24.7694  24.9102  25.4247  25.7158  26.0421
    27.4810  28.0452  29.1154  29.9938

          k = 0.0000 0.3208 0.0000 (  7172 PWs)   bands (ev):

   -50.6029 -50.6029 -24.7915 -24.7914 -24.7422 -24.7421 -24.6152 -24.6152
    -3.0365  -2.8003  -2.3767  -2.0726   4.8134   5.4342   6.0436   6.1392
     6.5927   6.5974   7.5676   7.6393   8.4588   8.5564   8.6378   9.1017
     9.2107   9.3843  12.0404  12.3773  12.5750  12.8792  13.0233  13.7228
    13.9467  14.2183  18.0858  18.2849  18.6480  18.9323  19.1100  19.7266
    20.8135  20.8798  21.8166  21.8924  22.5645  23.2254  23.2488  23.2753
    23.5995  24.1076  24.3092  24.3490  24.5821  25.2512  25.3072  26.1201
    27.3392  27.8590  28.9657  30.2461

          k = 0.0000 0.2887 0.0000 (  7158 PWs)   bands (ev):

   -50.6063 -50.6063 -24.7582 -24.7581 -24.7490 -24.7488 -24.6075 -24.6074
    -3.2050  -2.9590  -2.4572  -2.1275   4.7770   5.5424   6.2110   6.2669
     6.5838   6.8424   7.7024   7.7718   8.4167   8.4831   8.5605   9.2590
     9.3589   9.4854  12.0222  12.4336  12.6447  12.8653  12.9030  13.5230
    13.8493  14.0866  18.1955  18.4629  18.9203  19.2867  19.4153  19.7018
    20.5820  20.8849  21.7773  21.8933  22.8517  23.0308  23.0583  23.1349
    23.1435  23.9898  24.1623  24.2902  24.2910  25.0040  25.3259  26.2286
    27.1833  27.6591  28.7058  30.2299

          k = 0.0000 0.2566 0.0000 (  7158 PWs)   bands (ev):

   -50.6097 -50.6097 -24.7557 -24.7556 -24.7247 -24.7246 -24.5997 -24.5997
    -3.3659  -3.1123  -2.5343  -2.1813   4.6942   5.5833   6.3794   6.4315
     6.6260   7.0951   7.8455   7.9123   8.2757   8.3294   8.6600   9.4190
     9.4971   9.6414  12.0598  12.5079  12.7272  12.8032  12.8597  13.3290
    13.7378  13.9411  18.1875  18.5547  19.2188  19.6033  19.6659  19.6804
    20.3383  20.8947  21.7352  21.8435  22.6793  22.7148  22.8645  22.9378
    23.1433  23.8402  24.0395  24.1766  24.5222  24.8205  25.5650  26.3602
    27.0102  27.4591  28.3454  29.9046

          k = 0.0000 0.2245 0.0000 (  7156 PWs)   bands (ev):

   -50.6130 -50.6130 -24.7622 -24.7621 -24.6920 -24.6920 -24.5922 -24.5921
    -3.5157  -3.2562  -2.6063  -2.2324   4.5832   5.5511   6.5459   6.6213
     6.7350   7.3499   7.9935   8.0575   8.1385   8.1818   8.7466   9.5713
     9.5893   9.8518  12.1574  12.5962  12.7349  12.8186  12.8647  13.1537
    13.6148  13.7851  18.0866  18.4176  19.5152  19.5444  19.7727  20.0496
    20.3599  20.8461  21.6595  21.7578  22.2908  22.3342  22.7117  22.7311
    23.2267  23.8280  24.0174  24.3593  24.7377  24.7532  25.8695  26.5136
    26.8198  27.2702  27.9304  29.3966

          k = 0.0000 0.1925 0.0000 (  7140 PWs)   bands (ev):

   -50.6161 -50.6161 -24.7684 -24.7682 -24.6612 -24.6611 -24.5851 -24.5850
    -3.6513  -3.3875  -2.6715  -2.2793   4.4614   5.4707   6.7084   6.8230
     6.8916   7.6032   8.0100   8.0450   8.1423   8.2032   8.8099   9.6464
     9.7013  10.0773  12.3101  12.6936  12.7062  12.8822  12.9140  13.0114
    13.4845  13.6240  17.8653  18.1107  19.4183  19.7479  19.9722  20.3565
    20.5043  20.8021  21.3966  21.8388  21.9617  22.0579  22.3767  22.6314
    23.3548  23.6550  24.3253  24.6644  24.7891  24.9031  26.1831  26.6184
    26.6812  27.0990  27.5058  28.8007

          k = 0.0000 0.1604 0.0000 (  7118 PWs)   bands (ev):

   -50.6190 -50.6190 -24.7739 -24.7737 -24.6332 -24.6331 -24.5787 -24.5786
    -3.7702  -3.5032  -2.7287  -2.3209   4.3420   5.3713   6.8641   7.0240
     7.0680   7.8513   7.8946   7.9227   8.2866   8.3443   8.8432   9.6762
     9.7927  10.2932  12.5033  12.7190  12.7939  12.9125  12.9163  13.0082
    13.3528  13.4643  17.5521  17.7372  19.3696  19.7980  20.1899  20.3794
    20.6410  20.9333  21.2202  21.6198  21.9614  22.0387  22.0445  22.5642
    23.4891  23.5171  24.6546  24.9129  25.0196  25.0392  26.4174  26.4743
    26.8194  26.9476  27.1250  28.1773

          k = 0.0000 0.1283 0.0000 (  7100 PWs)   bands (ev):

   -50.6214 -50.6214 -24.7786 -24.7785 -24.6089 -24.6088 -24.5731 -24.5731
    -3.8703  -3.6011  -2.7769  -2.3562   4.2345   5.2732   7.0094   7.2119
     7.2421   7.7956   7.8184   8.0901   8.4203   8.4746   8.8458   9.6865
     9.8322  10.4834  12.7155  12.7675  12.8721  12.8907  12.9586  13.0955
    13.2274  13.3139  17.2097  17.3649  19.3677  19.6304  20.2010  20.3902
    20.7644  20.9249  21.3227  21.4599  21.7489  22.0960  22.2174  22.5254
    23.4105  23.5922  24.9707  25.1053  25.1193  25.4424  26.2309  26.6595
    26.7216  26.8171  27.0464  27.5670

          k = 0.0000 0.0962 0.0000 (  7109 PWs)   bands (ev):

   -50.6233 -50.6233 -24.7826 -24.7824 -24.5891 -24.5891 -24.5687 -24.5686
    -3.9499  -3.6792  -2.8152  -2.3845   4.1453   5.1884   7.1385   7.3749
     7.3968   7.7159   7.7345   8.3127   8.5360   8.5872   8.8243   9.6855
     9.8178  10.6371  12.8367  12.8775  12.9191  12.9768  13.0153  13.1169
    13.1700  13.1820  16.8899  17.0356  19.3756  19.3825  19.9393  20.5486
    20.8963  20.9101  21.0805  21.5055  21.8183  22.2126  22.5085  22.5236
    23.3311  23.6396  25.2353  25.2528  25.3405  25.8399  26.0706  26.3499
    26.7101  26.9122  27.0047  27.1130

          k = 0.0000 0.0642 0.0000 (  7111 PWs)   bands (ev):

   -50.6248 -50.6248 -24.7855 -24.7853 -24.5746 -24.5745 -24.5654 -24.5653
    -4.0077  -3.7360  -2.8431  -2.4050   4.0789   5.1238   7.2433   7.5017
     7.5185   7.6576   7.6732   8.5068   8.6262   8.6749   8.7910   9.6799
     9.7633  10.7482  12.9020  12.9176  13.0304  13.0451  13.0453  13.0775
    13.1178  13.2273  16.6298  16.7780  19.1572  19.3778  19.6993  20.6602
    20.9010  20.9014  21.0328  21.3245  22.1580  22.2932  22.5056  22.8596
    23.2757  23.6364  25.3780  25.4804  25.5810  25.9477  26.0829  26.1816
    26.5400  26.6300  27.0407  27.1401

          k = 0.0000 0.0321 0.0000 (  7109 PWs)   bands (ev):

   -50.6257 -50.6257 -24.7872 -24.7870 -24.5657 -24.5656 -24.5633 -24.5632
    -4.0427  -3.7705  -2.8599  -2.4175   4.0380   5.0836   7.3130   7.5824
     7.5964   7.6221   7.6358   8.6491   8.6839   8.7308   8.7617   9.6747
     9.6997  10.8148  12.9420  12.9667  12.9758  13.0097  13.0892  13.0896
    13.2327  13.2631  16.4587  16.6136  19.0046  19.3748  19.5375  20.7298
    20.7913  20.8935  21.1363  21.2128  22.3355  22.4128  22.5083  23.1270
    23.2426  23.6132  25.5339  25.6310  25.7709  25.8687  25.8703  26.1640
    26.4788  26.5802  26.9419  27.1111

          k = 0.0000 0.0000 0.0000 (  7113 PWs)   bands (ev):

   -50.6260 -50.6260 -24.7878 -24.7877 -24.5626 -24.5626 -24.5625 -24.5625
    -4.0545  -3.7820  -2.8656  -2.4217   4.0241   5.0700   7.3377   7.6101
     7.6101   7.6232   7.6232   8.7037   8.7037   8.7500   8.7500   9.6703
     9.6726  10.8369  12.9573  12.9573  12.9859  12.9859  13.1044  13.1045
    13.2752  13.2753  16.3987  16.5569  18.9509  19.3727  19.4807  20.7541
    20.7542  20.8904  21.1751  21.1751  22.3478  22.5101  22.5101  23.2316
    23.2316  23.6013  25.6840  25.6840  25.7030  25.8438  25.8438  26.0522
    26.5633  26.5633  26.8051  27.1329

          k = 0.0000 0.0000 0.0128 (  7095 PWs)   bands (ev):

   -50.6260 -50.6260 -24.7878 -24.7876 -24.5626 -24.5626 -24.5625 -24.5625
    -4.0532  -3.7844  -2.8622  -2.4241   4.0290   5.0603   7.3507   7.6102
     7.6102   7.6231   7.6231   8.7040   8.7040   8.7497   8.7497   9.5463
     9.7910  10.8344  12.9573  12.9573  12.9853  12.9853  13.1059  13.1059
    13.2743  13.2744  16.3999  16.5562  18.9538  19.3789  19.4770  20.7564
    20.7564  20.8736  21.1721  21.1721  22.3600  22.5138  22.5138  23.2261
    23.2261  23.5935  25.6812  25.6812  25.7202  25.8606  25.8606  26.0607
    26.5559  26.5559  26.8053  27.1268

          k = 0.0000 0.0000 0.0257 (  7101 PWs)   bands (ev):

   -50.6260 -50.6260 -24.7878 -24.7876 -24.5626 -24.5626 -24.5625 -24.5625
    -4.0494  -3.7914  -2.8522  -2.4312   4.0436   5.0320   7.3889   7.6104
     7.6105   7.6229   7.6229   8.7048   8.7049   8.7488   8.7489   9.4160
     9.9046  10.8268  12.9573  12.9574  12.9836  12.9836  13.1102  13.1102
    13.2717  13.2717  16.4035  16.5538  18.9626  19.3975  19.4660  20.7632
    20.7632  20.8251  21.1632  21.1632  22.3948  22.5249  22.5249  23.2099
    23.2100  23.5706  25.6781  25.6781  25.7712  25.9048  25.9048  26.0856
    26.5340  26.5340  26.8057  27.1086

          k = 0.0000 0.0000 0.0385 (  7082 PWs)   bands (ev):

   -50.6260 -50.6260 -24.7878 -24.7875 -24.5626 -24.5626 -24.5625 -24.5625
    -4.0431  -3.8026  -2.8361  -2.4429   4.0677   4.9871   7.4501   7.6108
     7.6108   7.6225   7.6225   8.7062   8.7062   8.7474   8.7475   9.2812
    10.0118  10.8142  12.9574  12.9574  12.9810  12.9811  13.1169  13.1170
    13.2673  13.2673  16.4093  16.5500  18.9770  19.4282  19.4483  20.7504
    20.7743  20.7743  21.1487  21.1487  22.4483  22.5431  22.5431  23.1838
    23.1838  23.5336  25.6827  25.6827  25.8544  25.9675  25.9675  26.1256
    26.4984  26.4984  26.8051  27.0785

          k = 0.0000 0.0000 0.0513 (  7094 PWs)   bands (ev):

   -50.6260 -50.6260 -24.7878 -24.7875 -24.5626 -24.5626 -24.5625 -24.5625
    -4.0345  -3.8174  -2.8147  -2.4590   4.1010   4.9287   7.5315   7.6113
     7.6114   7.6219   7.6219   8.7081   8.7081   8.7455   8.7456   9.1425
    10.1123  10.7963  12.9576  12.9576  12.9780  12.9781  13.1257  13.1257
    13.2612  13.2613  16.4170  16.5446  18.9968  19.4240  19.4714  20.6558
    20.7896  20.7896  21.1291  21.1291  22.5153  22.5683  22.5683  23.1487
    23.1487  23.4841  25.6987  25.6987  25.9671  26.0428  26.0428  26.1785
    26.4506  26.4507  26.8016  27.0370

          k = 0.0000 0.0000 0.0641 (  7118 PWs)   bands (ev):

   -50.6260 -50.6260 -24.7878 -24.7876 -24.5627 -24.5626 -24.5626 -24.5626
    -4.0234  -3.8349  -2.7888  -2.4792   4.1431   4.8601   7.6120   7.6120
     7.6212   7.6212   7.6297   8.7105   8.7105   8.7432   8.7432   9.0006
    10.2060  10.7732  12.9578  12.9578  12.9748  12.9749  13.1361  13.1361
    13.2537  13.2537  16.4265  16.5379  19.0216  19.3944  19.5262  20.5477
    20.8089  20.8089  21.1052  21.1052  22.5917  22.6001  22.6001  23.1060
    23.1060  23.4240  25.7271  25.7271  26.1062  26.1270  26.1270  26.2416
    26.3924  26.3925  26.7932  26.9848

          k = 0.0000 0.0000 0.0770 (  7118 PWs)   bands (ev):

   -50.6260 -50.6260 -24.7878 -24.7877 -24.5626 -24.5626 -24.5626 -24.5626
    -4.0102  -3.8545  -2.7594  -2.5031   4.1934   4.7844   7.6128   7.6128
     7.6204   7.6204   7.7415   8.7132   8.7132   8.7404   8.7405   8.8563
    10.2927  10.7445  12.9582  12.9582  12.9717  12.9718  13.1476  13.1476
    13.2447  13.2448  16.4373  16.5298  19.0509  19.3604  19.5926  20.4315
    20.8317  20.8317  21.0777  21.0777  22.6379  22.6379  22.6741  23.0574
    23.0574  23.3552  25.7677  25.7677  26.2173  26.2173  26.2677  26.3118
    26.3259  26.3259  26.7776  26.9227

          k = 0.0000 0.0000 0.0898 (  7106 PWs)   bands (ev):

   -50.6260 -50.6260 -24.7878 -24.7877 -24.5626 -24.5626 -24.5626 -24.5626
    -3.9950  -3.8754  -2.7275  -2.5302   4.2514   4.7046   7.6136   7.6136
     7.6195   7.6195   7.8641   8.7105   8.7163   8.7163   8.7373   8.7374
    10.3725  10.7101  12.9588  12.9588  12.9688  12.9689  13.1600  13.1600
    13.2346  13.2346  16.4491  16.5204  19.0842  19.3229  19.6699  20.3117
    20.8578  20.8578  21.0475  21.0475  22.6812  22.6812  22.7604  23.0044
    23.0044  23.2795  25.8192  25.8193  26.2533  26.2533  26.3115  26.3115
    26.3859  26.4469  26.7538  26.8516

          k = 0.0000 0.0000 0.1026 (  7100 PWs)   bands (ev):

   -50.6260 -50.6260 -24.7878 -24.7877 -24.5626 -24.5626 -24.5626 -24.5625
    -3.9779  -3.8968  -2.6940  -2.5599   4.3162   4.6230   7.6145   7.6146
     7.6186   7.6186   7.9949   8.5640   8.7197   8.7197   8.7340   8.7340
    10.4453  10.6699  12.9596  12.9597  12.9663  12.9663  13.1728  13.1728
    13.2234  13.2234  16.4615  16.5100  19.1207  19.2831  19.7576  20.1918
    20.8865  20.8865  21.0155  21.0155  22.7292  22.7292  22.8486  22.9488
    22.9488  23.1986  25.8801  25.8801  26.1769  26.1769  26.4074  26.4074
    26.4608  26.6273  26.7327  26.7728

          k = 0.0000 0.0000 0.1155 (  7082 PWs)   bands (ev):

   -50.6260 -50.6260 -24.7877 -24.7877 -24.5625 -24.5625 -24.5625 -24.5625
    -3.9592  -3.9182  -2.6597  -2.5918   4.3869   4.5417   7.6155   7.6155
     7.6176   7.6176   8.1320   8.4180   8.7232   8.7232   8.7305   8.7305
    10.5112  10.6236  12.9608  12.9608  12.9641  12.9641  13.1858  13.1858
    13.2114  13.2115  16.4741  16.4986  19.1597  19.2419  19.8542  20.0751
    20.9173  20.9173  20.9826  20.9826  22.7810  22.7810  22.8921  22.8921
    22.9376  23.1139  25.9484  25.9484  26.0991  26.0991  26.5031  26.5031
    26.5329  26.6526  26.6876  26.6876

          k = 0.0000 0.0000 0.1283 (  7094 PWs)   bands (ev):

   -50.6260 -50.6260 -24.7877 -24.7877 -24.5625 -24.5625 -24.5625 -24.5625
    -3.9401  -3.9383  -2.6276  -2.6231   4.4598   4.4653   7.6165   7.6165
     7.6166   7.6166   8.2705   8.2766   8.7266   8.7266   8.7271   8.7271
    10.5664  10.5749  12.9620  12.9621  12.9624  12.9625  13.1976  13.1976
    13.2000  13.2000  16.4863  16.4868  19.1983  19.2027  19.9434  19.9790
    20.9481  20.9481  20.9511  20.9511  22.8335  22.8335  22.8380  22.8380
    23.0218  23.0311  26.0196  26.0196  26.0247  26.0248  26.5927  26.5927
    26.5959  26.6015  26.6016  26.6016

          k =-0.0333 0.0577 0.1283 (  7106 PWs)   bands (ev):

   -50.6247 -50.6247 -24.7852 -24.7852 -24.5755 -24.5754 -24.5655 -24.5655
    -3.8901  -3.8884  -2.6061  -2.6016   4.5152   4.5206   7.5012   7.5014
     7.6689   7.6690   8.0593   8.0644   8.6405   8.6410   8.8701   8.8704
    10.5127  10.5205  12.8998  12.8999  13.0306  13.0312  13.0843  13.0860
    13.1561  13.1592  16.7289  16.7294  19.4253  19.4299  19.9222  19.9533
    20.8583  20.8595  21.1078  21.1110  22.3750  22.3793  22.8377  22.8421
    23.1477  23.1571  25.5914  25.5975  25.9667  25.9707  26.4232  26.4255
    26.5861  26.5897  27.2111  27.2183

          k =-0.0667 0.1155 0.1283 (  7146 PWs)   bands (ev):

   -50.6210 -50.6210 -24.7780 -24.7780 -24.6119 -24.6119 -24.5745 -24.5745
    -3.7440  -3.7423  -2.5431  -2.5387   4.6701   4.6754   7.1972   7.1973
     7.6993   7.7040   7.8188   7.8190   8.3756   8.3762   9.0528   9.0530
    10.3259  10.3315  12.7071  12.7092  12.8976  12.9007  12.9687  12.9694
    13.3260  13.3272  17.3602  17.3610  19.8015  19.8209  19.9656  19.9702
    20.6768  20.6880  21.5123  21.5154  21.7515  21.7549  22.8215  22.8257
    23.0893  23.0997  24.9224  24.9286  25.8099  25.8114  26.1229  26.1262
    26.7672  26.7677  27.9532  27.9641

          k =-0.1000 0.1732 0.1283 (  7160 PWs)   bands (ev):

   -50.6154 -50.6154 -24.7669 -24.7669 -24.6656 -24.6656 -24.5895 -24.5895
    -3.5124  -3.5108  -2.4434  -2.4392   4.8878   4.8929   6.8031   6.8032
     7.3514   7.3560   7.9317   7.9317   8.0447   8.0458   9.1690   9.1693
     9.9981  10.0010  12.4207  12.4216  12.7685  12.7695  12.8883  12.8926
    13.6883  13.6897  18.1844  18.1860  19.5809  19.5881  20.2969  20.3110
    20.5099  20.5182  21.4275  21.4297  21.9935  21.9989  22.6176  22.6190
    23.0900  23.0977  24.5545  24.5602  25.3004  25.3045  26.1426  26.1512
    26.9198  26.9204  28.6960  28.7107

          k =-0.1333 0.2309 0.1283 (  7178 PWs)   bands (ev):

   -50.6086 -50.6086 -24.7535 -24.7534 -24.7275 -24.7275 -24.6105 -24.6105
    -3.2133  -3.2119  -2.3150  -2.3110   5.0928   5.0974   6.4389   6.4391
     7.0397   7.0432   7.4260   7.4278   8.2391   8.2397   9.2000   9.2009
     9.6171   9.6177  12.1758  12.1766  12.6379  12.6384  12.9761  12.9810
    14.0785  14.0805  18.8110  18.8159  19.4754  19.4760  20.1175  20.1377
    20.3458  20.3459  21.7422  21.7447  21.8039  21.8057  22.2678  22.2709
    23.6549  23.6600  24.5754  24.5768  24.7669  24.7701  26.4745  26.4844
    27.0827  27.0832  29.5047  29.5210

          k =-0.1667 0.2887 0.1283 (  7178 PWs)   bands (ev):

   -50.6014 -50.6014 -24.7878 -24.7878 -24.7392 -24.7392 -24.6374 -24.6374
    -2.8719  -2.8708  -2.1689  -2.1652   5.1673   5.1708   6.2188   6.2201
     6.6225   6.6229   7.1113   7.1159   8.2423   8.2429   9.1144   9.1156
     9.3873   9.3880  12.0370  12.0386  12.6484  12.6487  13.1070  13.1121
    14.4034  14.4061  18.6521  18.6543  19.5962  19.6128  20.0218  20.0220
    20.4653  20.4658  21.1899  21.1918  21.8050  21.8078  22.2760  22.2781
    24.1130  24.1148  24.5340  24.5371  25.0180  25.0220  26.7494  26.7527
    27.7045  27.7109  30.1453  30.1529

          k =-0.2000 0.3464 0.1283 (  7186 PWs)   bands (ev):

   -50.5946 -50.5946 -24.8373 -24.8373 -24.7257 -24.7257 -24.6695 -24.6695
    -2.5214  -2.5207  -2.0189  -2.0156   5.0905   5.0928   5.9457   5.9476
     6.3313   6.3315   7.0567   7.0614   7.9451   7.9460   8.9135   8.9160
     9.4124   9.4126  12.0902  12.0921  12.7457  12.7462  13.2381  13.2430
    14.6108  14.6140  18.3018  18.3024  19.3061  19.3228  20.0929  20.0960
    20.3323  20.3324  20.9516  20.9532  22.0122  22.0128  22.5344  22.5344
    23.8953  23.8996  24.7354  24.7355  25.4099  25.4231  27.2322  27.2322
    28.7974  28.8067  30.1561  30.1664

          k =-0.2333 0.4041 0.1283 (  7188 PWs)   bands (ev):

   -50.5889 -50.5889 -24.8690 -24.8690 -24.7144 -24.7144 -24.7061 -24.7061
    -2.2012  -2.2012  -1.8816  -1.8786   5.0185   5.0200   5.4750   5.4766
     6.3666   6.3674   7.0735   7.0767   7.5256   7.5283   8.6517   8.6555
     9.5557   9.5562  12.2732  12.2752  12.8383  12.8385  13.3507  13.3556
    14.7302  14.7332  17.9107  17.9110  19.1080  19.1186  19.5065  19.5090
    20.4373  20.4393  21.3080  21.3101  22.3935  22.3953  22.8584  22.8595
    23.6438  23.6515  24.4964  24.4964  25.6877  25.7016  28.0069  28.0109
    29.7531  29.7646  29.9819  29.9892

          k =-0.2667 0.4619 0.1283 (  7194 PWs)   bands (ev):

   -50.5847 -50.5847 -24.8792 -24.8792 -24.7454 -24.7453 -24.7062 -24.7062
    -1.9512  -1.9504  -1.7750  -1.7722   5.0262   5.0262   5.1468   5.1495
     6.4112   6.4114   6.9125   6.9137   7.2895   7.2952   8.3652   8.3697
     9.7845   9.7854  12.2574  12.2586  13.0112  13.0126  13.4349  13.4390
    14.8407  14.8428  17.5794  17.5803  18.7000  18.7015  19.3639  19.3700
    20.8401  20.8420  21.7671  21.7692  22.4596  22.4609  23.1527  23.1529
    23.4753  23.4837  24.2782  24.2799  25.7684  25.7765  28.3632  28.3728
    29.6618  29.6695  29.8552  29.8579

          k =-0.3000 0.5196 0.1283 (  7216 PWs)   bands (ev):

   -50.5824 -50.5824 -24.8686 -24.8686 -24.7845 -24.7845 -24.7016 -24.7016
    -1.7958  -1.7945  -1.7146  -1.7123   4.8393   4.8403   5.3265   5.3279
     6.3294   6.3300   6.5645   6.5668   7.3744   7.3788   8.1076   8.1117
    10.0314  10.0324  12.0255  12.0259  13.1176  13.1222  13.5848  13.5859
    14.9404  14.9415  17.4340  17.4370  18.2871  18.2889  19.5176  19.5213
    21.3826  21.3843  22.0862  22.0876  22.4533  22.4540  23.0633  23.0672
    23.4360  23.4386  24.2648  24.2704  25.6720  25.6741  28.2415  28.2543
    29.1482  29.1496  29.3737  29.3816

          k =-0.3333 0.5774 0.1283 (  7212 PWs)   bands (ev):

   -50.5817 -50.5817 -24.8522 -24.8522 -24.8096 -24.8096 -24.7002 -24.7002
    -1.7416  -1.7416  -1.6999  -1.6999   4.7657   4.7669   5.5483   5.5483
     6.1199   6.1224   6.4686   6.4686   7.4563   7.4563   7.9888   7.9888
    10.1420  10.1431  11.8970  11.8970  13.1052  13.1106  13.6893  13.6893
    14.9787  14.9787  17.4551  17.4600  18.0923  18.0923  19.6143  19.6143
    21.7852  21.7873  21.9689  21.9730  22.7490  22.7490  22.8880  22.8880
    23.3438  23.3438  24.1994  24.2073  25.6009  25.6009  28.1394  28.1535
    28.7430  28.7430  29.2961  29.2961

     Writing all to output data dir ./tmp/MoS2_bulk_pbe_vdW_nsoc.save/

     init_run     :     10.35s CPU     10.44s WALL (       1 calls)
     electrons    :    139.54s CPU    102.67s WALL (       1 calls)

     Called by init_run:
     wfcinit      :      0.00s CPU      0.00s WALL (       1 calls)
     wfcinit:atom :      0.04s CPU      0.05s WALL (      71 calls)
     wfcinit:wfcr :      3.45s CPU      2.68s WALL (      71 calls)
     potinit      :     10.08s CPU     10.16s WALL (       1 calls)
     hinit0       :      0.22s CPU      0.22s WALL (       1 calls)

     Called by electrons:
     c_bands      :    139.53s CPU    102.67s WALL (       1 calls)
     v_of_rho     :     10.08s CPU     10.16s WALL (       1 calls)
     v_h          :      0.00s CPU      0.00s WALL (       1 calls)
     v_xc         :     10.08s CPU     10.16s WALL (       1 calls)
     vdW_kernel   :     10.03s CPU     10.10s WALL (       1 calls)

     Called by c_bands:
     init_us_2    :      0.07s CPU      0.07s WALL (      71 calls)
     init_us_2:cp :      0.07s CPU      0.07s WALL (      71 calls)
     cegterg      :    135.61s CPU     99.43s WALL (     170 calls)

     Called by sum_band:

     Called by *egterg:
     cdiaghg      :     19.24s CPU     18.75s WALL (    2899 calls)
     cegterg:over :     23.70s CPU     13.22s WALL (    2828 calls)
     cegterg:upda :     13.22s CPU      6.53s WALL (    2828 calls)
     cegterg:last :     24.94s CPU     13.90s WALL (    1522 calls)
     h_psi        :     52.38s CPU     44.82s WALL (    3069 calls)
     g_psi        :      0.47s CPU      0.56s WALL (    2828 calls)

     Called by h_psi:
     h_psi:calbec :     13.35s CPU      8.38s WALL (    3069 calls)
     vloc_psi     :     26.16s CPU     27.36s WALL (    3069 calls)
     add_vuspsi   :     12.20s CPU      8.31s WALL (    3069 calls)

     General routines
     calbec       :     13.34s CPU      8.35s WALL (    3069 calls)
     fft          :      0.12s CPU      0.12s WALL (      61 calls)
     fftw         :     22.19s CPU     23.13s WALL (  184676 calls)
     davcio       :      0.00s CPU      0.08s WALL (     142 calls)

     Parallel routines

     PWSCF        :   2m30.54s CPU   1m54.03s WALL


   This run was terminated on:  22:23:20  17Apr2024            

=------------------------------------------------------------------------------=
   JOB DONE.
=------------------------------------------------------------------------------=
