
     Program PWSCF v.7.2 starts on 17Apr2024 at 22:20:25 

     This program is part of the open-source Quantum ESPRESSO suite
     for quantum simulation of materials; please cite
         "P. Giannozzi et al., J. Phys.:Condens. Matter 21 395502 (2009);
         "P. Giannozzi et al., J. Phys.:Condens. Matter 29 465901 (2017);
         "P. Giannozzi et al., J. Chem. Phys. 152 154105 (2020);
          URL http://www.quantum-espresso.org", 
     in publications or presentations arising from this work. More details at
     http://www.quantum-espresso.org/quote

     Parallel version (MPI & OpenMP), running on       8 processor cores
     Number of MPI processes:                 8
     Threads/MPI process:                     1

     MPI processes distributed on     1 nodes
     0 MiB available memory on the printing compute node when the environment starts

     Waiting for input...
     Reading input from standard input

     Current dimensions of program PWSCF are:
     Max number of different atomic species (ntypx) = 10
     Max number of k-points (npk) =  40000
     Max angular momentum in pseudopotentials (lmaxx) =  4

     IMPORTANT: XC functional enforced from input :
     Exchange-correlation= VDW-DF2-B86R
                           (   1   4  26   0   2   0   0)
     Any further DFT definition will be discarded
     Please, verify this is what you really want


     R & G space division:  proc/nbgrp/npool/nimage =       8
     Subspace diagonalization in iterative solution of the eigenvalue problem:
     a serial algorithm will be used


     Parallelization info
     --------------------
     sticks:   dense  smooth     PW     G-vecs:    dense   smooth      PW
     Min          85      85     24                 7173     7173    1130
     Max          86      86     25                 7186     7186    1149
     Sum         685     685    199                57449    57449    9157

     Using Slab Decomposition



     bravais-lattice index     =            4
     lattice parameter (alat)  =       5.9926  a.u.
     unit-cell volume          =     726.4071 (a.u.)^3
     number of atoms/cell      =            6
     number of atomic types    =            2
     number of electrons       =        52.00
     number of Kohn-Sham states=           31
     kinetic-energy cutoff     =      70.0000  Ry
     charge density cutoff     =     280.0000  Ry
     scf convergence threshold =      1.0E-07
     mixing beta               =       0.7000
     number of iterations used =            8  plain     mixing
     Exchange-correlation= VDW-DF2-B86R
                           (   1   4  26   0   2   0   0)

     celldm(1)=   5.992589  celldm(2)=   0.000000  celldm(3)=   3.897678
     celldm(4)=   0.000000  celldm(5)=   0.000000  celldm(6)=   0.000000

     crystal axes: (cart. coord. in units of alat)
               a(1) = (   1.000000   0.000000   0.000000 )  
               a(2) = (  -0.500000   0.866025   0.000000 )  
               a(3) = (   0.000000   0.000000   3.897678 )  

     reciprocal axes: (cart. coord. in units 2 pi/alat)
               b(1) = (  1.000000  0.577350 -0.000000 )  
               b(2) = (  0.000000  1.154701  0.000000 )  
               b(3) = (  0.000000 -0.000000  0.256563 )  


     PseudoPot. # 1 for S  read from file:
     ../../../Pseudo/PBE/S.upf
     MD5 check sum: b72b6a9ca752e39de1a6cc592280dae2
     Pseudo is Norm-conserving + core correction, Zval =  6.0
     Generated using ONCVPSP code by D. R. Hamann
     Using radial grid of 1148 points,  6 beta functions with: 
                l(1) =   0
                l(2) =   0
                l(3) =   1
                l(4) =   1
                l(5) =   2
                l(6) =   2

     PseudoPot. # 2 for Mo read from file:
     ../../../Pseudo/PBE/Mo.upf
     MD5 check sum: 7ca7a9feba7bf08d88d14bc7fbf60c1e
     Pseudo is Norm-conserving + core correction, Zval = 14.0
     Generated using ONCVPSP code by D. R. Hamann
     Using radial grid of 1640 points,  6 beta functions with: 
                l(1) =   0
                l(2) =   0
                l(3) =   1
                l(4) =   1
                l(5) =   2
                l(6) =   2

     atomic species   valence    mass     pseudopotential
        S              6.00    32.06500     S ( 1.00)
        Mo            14.00   183.84000     Mo( 1.00)

     12 Sym. Ops., with inversion, found


                                    s                        frac. trans.

      isym =  1     identity                                     

 cryst.   s( 1) = (     1          0          0      )
                  (     0          1          0      )
                  (     0          0          1      )

 cart.    s( 1) = (  1.0000000  0.0000000  0.0000000 )
                  (  0.0000000  1.0000000  0.0000000 )
                  (  0.0000000  0.0000000  1.0000000 )


      isym =  2     180 deg rotation - cart. axis [1,0,0]        

 cryst.   s( 2) = (     1          0          0      )
                  (    -1         -1          0      )
                  (     0          0         -1      )

 cart.    s( 2) = (  1.0000000  0.0000000  0.0000000 )
                  (  0.0000000 -1.0000000  0.0000000 )
                  (  0.0000000  0.0000000 -1.0000000 )


      isym =  3     120 deg rotation - cryst. axis [0,0,1]       

 cryst.   s( 3) = (     0          1          0      )
                  (    -1         -1          0      )
                  (     0          0          1      )

 cart.    s( 3) = ( -0.5000000 -0.8660254  0.0000000 )
                  (  0.8660254 -0.5000000  0.0000000 )
                  (  0.0000000  0.0000000  1.0000000 )


      isym =  4     120 deg rotation - cryst. axis [0,0,-1]      

 cryst.   s( 4) = (    -1         -1          0      )
                  (     1          0          0      )
                  (     0          0          1      )

 cart.    s( 4) = ( -0.5000000  0.8660254  0.0000000 )
                  ( -0.8660254 -0.5000000  0.0000000 )
                  (  0.0000000  0.0000000  1.0000000 )


      isym =  5     180 deg rotation - cryst. axis [0,1,0]       

 cryst.   s( 5) = (    -1         -1          0      )
                  (     0          1          0      )
                  (     0          0         -1      )

 cart.    s( 5) = ( -0.5000000 -0.8660254  0.0000000 )
                  ( -0.8660254  0.5000000  0.0000000 )
                  (  0.0000000  0.0000000 -1.0000000 )


      isym =  6     180 deg rotation - cryst. axis [1,1,0]       

 cryst.   s( 6) = (     0          1          0      )
                  (     1          0          0      )
                  (     0          0         -1      )

 cart.    s( 6) = ( -0.5000000  0.8660254  0.0000000 )
                  (  0.8660254  0.5000000  0.0000000 )
                  (  0.0000000  0.0000000 -1.0000000 )


      isym =  7     inversion                                    

 cryst.   s( 7) = (    -1          0          0      )
                  (     0         -1          0      )
                  (     0          0         -1      )

 cart.    s( 7) = ( -1.0000000  0.0000000  0.0000000 )
                  (  0.0000000 -1.0000000  0.0000000 )
                  (  0.0000000  0.0000000 -1.0000000 )


      isym =  8     inv. 180 deg rotation - cart. axis [1,0,0]   

 cryst.   s( 8) = (    -1          0          0      )
                  (     1          1          0      )
                  (     0          0          1      )

 cart.    s( 8) = ( -1.0000000  0.0000000  0.0000000 )
                  (  0.0000000  1.0000000  0.0000000 )
                  (  0.0000000  0.0000000  1.0000000 )


      isym =  9     inv. 120 deg rotation - cryst. axis [0,0,1]  

 cryst.   s( 9) = (     0         -1          0      )
                  (     1          1          0      )
                  (     0          0         -1      )

 cart.    s( 9) = (  0.5000000  0.8660254  0.0000000 )
                  ( -0.8660254  0.5000000  0.0000000 )
                  (  0.0000000  0.0000000 -1.0000000 )


      isym = 10     inv. 120 deg rotation - cryst. axis [0,0,-1] 

 cryst.   s(10) = (     1          1          0      )
                  (    -1          0          0      )
                  (     0          0         -1      )

 cart.    s(10) = (  0.5000000 -0.8660254  0.0000000 )
                  (  0.8660254  0.5000000  0.0000000 )
                  (  0.0000000  0.0000000 -1.0000000 )


      isym = 11     inv. 180 deg rotation - cryst. axis [0,1,0]  

 cryst.   s(11) = (     1          1          0      )
                  (     0         -1          0      )
                  (     0          0          1      )

 cart.    s(11) = (  0.5000000  0.8660254  0.0000000 )
                  (  0.8660254 -0.5000000  0.0000000 )
                  (  0.0000000  0.0000000  1.0000000 )


      isym = 12     inv. 180 deg rotation - cryst. axis [1,1,0]  

 cryst.   s(12) = (     0         -1          0      )
                  (    -1          0          0      )
                  (     0          0          1      )

 cart.    s(12) = (  0.5000000 -0.8660254  0.0000000 )
                  ( -0.8660254 -0.5000000  0.0000000 )
                  (  0.0000000  0.0000000  1.0000000 )


     point group D_3d (-3m) 
     there are  6 classes
     the character table:

       E     2C3   3C2'  i     2S6   3s_d 
A_1g   1.00  1.00  1.00  1.00  1.00  1.00
A_2g   1.00  1.00 -1.00  1.00  1.00 -1.00
E_g    2.00 -1.00  0.00  2.00 -1.00  0.00
A_1u   1.00  1.00  1.00 -1.00 -1.00 -1.00
A_2u   1.00  1.00 -1.00 -1.00 -1.00  1.00
E_u    2.00 -1.00  0.00 -2.00  1.00  0.00

     the symmetry operations in each class and the name of the first element:

     E        1
          identity                                               
     2C3      3    4
          120 deg rotation - cryst. axis [0,0,1]                 
     3C2'     2    5    6
          180 deg rotation - cart. axis [1,0,0]                  
     i        7
          inversion                                              
     2S6      9   10
          inv. 120 deg rotation - cryst. axis [0,0,1]            
     3s_d     8   11   12
          inv. 180 deg rotation - cart. axis [1,0,0]             

   Cartesian axes

     site n.     atom                  positions (alat units)
         1           Mo  tau(   1) = (  -0.0000003   0.5773503  -0.9751726  )
         2           Mo  tau(   2) = (   0.5000002   0.2886748   0.9751726  )
         3           S   tau(   3) = (   0.5000002   0.2886748  -0.4800038  )
         4           S   tau(   4) = (  -0.0000003   0.5773503   0.4800038  )
         5           S   tau(   5) = (  -0.0000003   0.5773503   1.4703207  )
         6           S   tau(   6) = (   0.5000002   0.2886748  -1.4703207  )

   Crystallographic axes

     site n.     atom                  positions (cryst. coord.)
         1           Mo  tau(   1) = (  0.3333330  0.6666667 -0.2501932  )
         2           Mo  tau(   2) = (  0.6666667  0.3333330  0.2501932  )
         3           S   tau(   3) = (  0.6666667  0.3333330 -0.1231512  )
         4           S   tau(   4) = (  0.3333330  0.6666667  0.1231512  )
         5           S   tau(   5) = (  0.3333330  0.6666667  0.3772299  )
         6           S   tau(   6) = (  0.6666667  0.3333330 -0.3772299  )

     number of k points=    50  Marzari-Vanderbilt smearing, width (Ry)=  0.0050
                       cart. coord. in units 2pi/alat
        k(    1) = (   0.0000000   0.0000000   0.0000000), wk =   0.0046296
        k(    2) = (   0.0000000   0.0000000   0.0855210), wk =   0.0092593
        k(    3) = (   0.0000000   0.0962250   0.0000000), wk =   0.0277778
        k(    4) = (   0.0000000   0.0962250   0.0855210), wk =   0.0277778
        k(    5) = (   0.0000000   0.1924501   0.0000000), wk =   0.0277778
        k(    6) = (   0.0000000   0.1924501   0.0855210), wk =   0.0277778
        k(    7) = (   0.0000000   0.2886751   0.0000000), wk =   0.0277778
        k(    8) = (   0.0000000   0.2886751   0.0855210), wk =   0.0277778
        k(    9) = (   0.0000000   0.3849002   0.0000000), wk =   0.0277778
        k(   10) = (   0.0000000   0.3849002   0.0855210), wk =   0.0277778
        k(   11) = (   0.0000000   0.4811252   0.0000000), wk =   0.0277778
        k(   12) = (   0.0000000   0.4811252   0.0855210), wk =   0.0277778
        k(   13) = (   0.0000000  -0.5773503   0.0000000), wk =   0.0138889
        k(   14) = (   0.0000000  -0.5773503   0.0855210), wk =   0.0277778
        k(   15) = (   0.0833333   0.1443376   0.0000000), wk =   0.0277778
        k(   16) = (   0.0833333   0.1443376   0.0855210), wk =   0.0555556
        k(   17) = (   0.0833333   0.2405626   0.0000000), wk =   0.0555556
        k(   18) = (   0.0833333   0.2405626   0.0855210), wk =   0.0555556
        k(   19) = (   0.0833333   0.3367877   0.0000000), wk =   0.0555556
        k(   20) = (   0.0833333   0.3367877   0.0855210), wk =   0.0555556
        k(   21) = (   0.0833333   0.4330127   0.0000000), wk =   0.0555556
        k(   22) = (   0.0833333   0.4330127   0.0855210), wk =   0.0555556
        k(   23) = (   0.0833333   0.5292377   0.0000000), wk =   0.0555556
        k(   24) = (   0.0833333   0.5292377   0.0855210), wk =   0.0555556
        k(   25) = (   0.1666667   0.2886751   0.0000000), wk =   0.0277778
        k(   26) = (   0.1666667   0.2886751   0.0855210), wk =   0.0555556
        k(   27) = (   0.1666667   0.3849002   0.0000000), wk =   0.0555556
        k(   28) = (   0.1666667   0.3849002   0.0855210), wk =   0.0555556
        k(   29) = (   0.1666667   0.4811252   0.0000000), wk =   0.0555556
        k(   30) = (   0.1666667   0.4811252   0.0855210), wk =   0.0555556
        k(   31) = (   0.1666667   0.5773503   0.0000000), wk =   0.0277778
        k(   32) = (   0.1666667   0.5773503   0.0855210), wk =   0.0555556
        k(   33) = (   0.2500000   0.4330127   0.0000000), wk =   0.0277778
        k(   34) = (   0.2500000   0.4330127   0.0855210), wk =   0.0555556
        k(   35) = (   0.2500000   0.5292377   0.0000000), wk =   0.0555556
        k(   36) = (   0.2500000   0.5292377   0.0855210), wk =   0.0555556
        k(   37) = (   0.3333333   0.5773503   0.0000000), wk =   0.0092593
        k(   38) = (   0.3333333   0.5773503   0.0855210), wk =   0.0185185
        k(   39) = (   0.0000000   0.0962250  -0.0855210), wk =   0.0277778
        k(   40) = (   0.0000000   0.1924501  -0.0855210), wk =   0.0277778
        k(   41) = (   0.0000000   0.2886751  -0.0855210), wk =   0.0277778
        k(   42) = (   0.0000000   0.3849002  -0.0855210), wk =   0.0277778
        k(   43) = (   0.0000000   0.4811252  -0.0855210), wk =   0.0277778
        k(   44) = (  -0.0833333   0.2405626  -0.0855210), wk =   0.0555556
        k(   45) = (  -0.0833333   0.3367877  -0.0855210), wk =   0.0555556
        k(   46) = (  -0.0833333   0.4330127  -0.0855210), wk =   0.0555556
        k(   47) = (  -0.0833333   0.5292377  -0.0855210), wk =   0.0555556
        k(   48) = (  -0.1666667   0.3849002  -0.0855210), wk =   0.0555556
        k(   49) = (  -0.1666667   0.4811252  -0.0855210), wk =   0.0555556
        k(   50) = (  -0.2500000   0.5292377  -0.0855210), wk =   0.0555556

                       cryst. coord.
        k(    1) = (   0.0000000   0.0000000   0.0000000), wk =   0.0046296
        k(    2) = (   0.0000000   0.0000000   0.3333333), wk =   0.0092593
        k(    3) = (   0.0000000   0.0833333   0.0000000), wk =   0.0277778
        k(    4) = (   0.0000000   0.0833333   0.3333333), wk =   0.0277778
        k(    5) = (   0.0000000   0.1666667   0.0000000), wk =   0.0277778
        k(    6) = (   0.0000000   0.1666667   0.3333333), wk =   0.0277778
        k(    7) = (   0.0000000   0.2500000   0.0000000), wk =   0.0277778
        k(    8) = (   0.0000000   0.2500000   0.3333333), wk =   0.0277778
        k(    9) = (   0.0000000   0.3333333   0.0000000), wk =   0.0277778
        k(   10) = (   0.0000000   0.3333333   0.3333333), wk =   0.0277778
        k(   11) = (   0.0000000   0.4166667   0.0000000), wk =   0.0277778
        k(   12) = (   0.0000000   0.4166667   0.3333333), wk =   0.0277778
        k(   13) = (   0.0000000  -0.5000000   0.0000000), wk =   0.0138889
        k(   14) = (   0.0000000  -0.5000000   0.3333333), wk =   0.0277778
        k(   15) = (   0.0833333   0.0833333   0.0000000), wk =   0.0277778
        k(   16) = (   0.0833333   0.0833333   0.3333333), wk =   0.0555556
        k(   17) = (   0.0833333   0.1666667   0.0000000), wk =   0.0555556
        k(   18) = (   0.0833333   0.1666667   0.3333333), wk =   0.0555556
        k(   19) = (   0.0833333   0.2500000   0.0000000), wk =   0.0555556
        k(   20) = (   0.0833333   0.2500000   0.3333333), wk =   0.0555556
        k(   21) = (   0.0833333   0.3333333   0.0000000), wk =   0.0555556
        k(   22) = (   0.0833333   0.3333333   0.3333333), wk =   0.0555556
        k(   23) = (   0.0833333   0.4166667   0.0000000), wk =   0.0555556
        k(   24) = (   0.0833333   0.4166667   0.3333333), wk =   0.0555556
        k(   25) = (   0.1666667   0.1666667   0.0000000), wk =   0.0277778
        k(   26) = (   0.1666667   0.1666667   0.3333333), wk =   0.0555556
        k(   27) = (   0.1666667   0.2500000   0.0000000), wk =   0.0555556
        k(   28) = (   0.1666667   0.2500000   0.3333333), wk =   0.0555556
        k(   29) = (   0.1666667   0.3333333   0.0000000), wk =   0.0555556
        k(   30) = (   0.1666667   0.3333333   0.3333333), wk =   0.0555556
        k(   31) = (   0.1666667   0.4166667   0.0000000), wk =   0.0277778
        k(   32) = (   0.1666667   0.4166667   0.3333333), wk =   0.0555556
        k(   33) = (   0.2500000   0.2500000   0.0000000), wk =   0.0277778
        k(   34) = (   0.2500000   0.2500000   0.3333333), wk =   0.0555556
        k(   35) = (   0.2500000   0.3333333   0.0000000), wk =   0.0555556
        k(   36) = (   0.2500000   0.3333333   0.3333333), wk =   0.0555556
        k(   37) = (   0.3333333   0.3333333   0.0000000), wk =   0.0092593
        k(   38) = (   0.3333333   0.3333333   0.3333333), wk =   0.0185185
        k(   39) = (   0.0000000   0.0833333  -0.3333333), wk =   0.0277778
        k(   40) = (   0.0000000   0.1666667  -0.3333333), wk =   0.0277778
        k(   41) = (   0.0000000   0.2500000  -0.3333333), wk =   0.0277778
        k(   42) = (   0.0000000   0.3333333  -0.3333333), wk =   0.0277778
        k(   43) = (   0.0000000   0.4166667  -0.3333333), wk =   0.0277778
        k(   44) = (  -0.0833333   0.2500000  -0.3333333), wk =   0.0555556
        k(   45) = (  -0.0833333   0.3333333  -0.3333333), wk =   0.0555556
        k(   46) = (  -0.0833333   0.4166667  -0.3333333), wk =   0.0555556
        k(   47) = (  -0.0833333   0.5000000  -0.3333333), wk =   0.0555556
        k(   48) = (  -0.1666667   0.4166667  -0.3333333), wk =   0.0555556
        k(   49) = (  -0.1666667   0.5000000  -0.3333333), wk =   0.0555556
        k(   50) = (  -0.2500000   0.5833333  -0.3333333), wk =   0.0555556

     Dense  grid:    57449 G-vectors     FFT dimensions: (  32,  32, 125)

     Dynamical RAM for                 wfc:       0.42 MB

     Dynamical RAM for     wfc (w. buffer):      21.66 MB

     Dynamical RAM for           str. fact:       0.22 MB

     Dynamical RAM for           local pot:       0.00 MB

     Dynamical RAM for          nlocal pot:       1.48 MB

     Dynamical RAM for                qrad:       2.69 MB

     Dynamical RAM for          rho,v,vnew:       0.70 MB

     Dynamical RAM for               rhoin:       0.23 MB

     Dynamical RAM for            rho*nmix:       1.75 MB

     Dynamical RAM for           G-vectors:       0.47 MB

     Dynamical RAM for          h,s,v(r/c):       0.18 MB

     Dynamical RAM for          <psi|beta>:       0.05 MB

     Dynamical RAM for                 psi:       0.85 MB

     Dynamical RAM for                hpsi:       0.85 MB

     Dynamical RAM for      wfcinit/wfcrot:       1.02 MB

     Estimated static dynamical RAM per process >      28.41 MB

     Estimated max dynamical RAM per process >      32.09 MB

     Estimated total dynamical RAM >     256.71 MB

     Initial potential from superposition of free atoms

     starting charge      51.9970, renormalised to      52.0000


     %%%%%%%%%%%%%%%%%%%%%%%%%%%%%%%%%%%%%%%%%%%%%%%%%%%%%%%%%%%%%%%%%%%%%%%%
     %                                                                      %
     % You are using vdW-DF, which was implemented by the Thonhauser group. %
     % Please cite the following two papers that made this development      %
     % possible and the two reviews that describe the various versions:     %
     %                                                                      %
     %   T. Thonhauser et al., PRL 115, 136402 (2015).                      %
     %   T. Thonhauser et al., PRB 76, 125112 (2007).                       %
     %   K. Berland et al., Rep. Prog. Phys. 78, 066501 (2015).             %
     %   D.C. Langreth et al., J. Phys.: Condens. Matter 21, 084203 (2009). %
     %                                                                      %
     % If you are calculating stress with vdW-DF, please also cite:         %
     %                                                                      %
     %   R. Sabatini et al., J. Phys.: Condens. Matter 24, 424209 (2012).   %
     %                                                                      %
     %%%%%%%%%%%%%%%%%%%%%%%%%%%%%%%%%%%%%%%%%%%%%%%%%%%%%%%%%%%%%%%%%%%%%%%%

     %%%%%%%%%%%%%%%%%%%%%%%%%%%%%%%%%%%%%%%%%%%%%%%%%%%%%%%%%%%%%%%%%%%%%%%%
     %                                                                      %
     %  vdW-DF NEWS:                                                        %
     %                                                                      %
     %  * vdW-DF3 is now available. DOI: 10.1021/acs.jctc.0c00471           %
     %    use with input_dft = 'vdW-DF3-opt1' or 'vdW-DF3-opt2'             %
     %                                                                      %
     %  * Unscreened and range-separated hybrid vdW-DF-cx functionals       %
     %    DOI: 10.1063/1.4986522 and 10.1088/1361-648X/ac2ad2               %
     %    use with input_dft = 'vdW-DF-cx0'    and 'vdW-DF-ahcx'            %
     %  * Unscreened and range-separated hybrid vdW-DF2-b86r functionals    %
     %    DOI: 10.1063/1.4986522 and DOI: 10.1103/PhysRevX.12.041003        %
     %    use with input_dft = 'vdW-DF2-br0' and 'vdW-DF2-ahbr'             %
     %                                                                      %
     %%%%%%%%%%%%%%%%%%%%%%%%%%%%%%%%%%%%%%%%%%%%%%%%%%%%%%%%%%%%%%%%%%%%%%%%


     Carrying out vdW-DF run using the following parameters:
     Nqs    =  20  Npoints =  1024  r_max =  100.000
     q_mesh =  0.00001000  0.04494208  0.09755937  0.15916263
               0.23128650  0.31572767  0.41458969  0.53033537
               0.66584808  0.82450364  1.01025438  1.22772762
               1.48234092  1.78043706  2.12944203  2.53805004
               3.01644009  3.57652955  4.23227104  5.00000000


     -----------------------------------------------
     Non-local corr. energy    =       0.55692245 Ry
     -----------------------------------------------

     Starting wfcs are   36 randomized atomic wfcs

     total cpu time spent up to now is        9.4 secs

     Self-consistent Calculation

     iteration #  1     ecut=    70.00 Ry     beta= 0.70
     Davidson diagonalization with overlap

---- Real-time Memory Report at c_bands before calling an iterative solver
             0 MiB given to the printing process from OS
             0 MiB allocation reported by mallinfo(arena+hblkhd)
             0 MiB available memory on the node where the printing process lives
------------------
     ethr =  1.00E-02,  avg # of iterations =  2.6


     -----------------------------------------------
     Non-local corr. energy    =       0.55848350 Ry
     -----------------------------------------------


     total cpu time spent up to now is       12.9 secs

     total energy              =    -369.21448819 Ry
     estimated scf accuracy    <       0.92868124 Ry

     iteration #  2     ecut=    70.00 Ry     beta= 0.70
     Davidson diagonalization with overlap

---- Real-time Memory Report at c_bands before calling an iterative solver
             0 MiB given to the printing process from OS
             0 MiB allocation reported by mallinfo(arena+hblkhd)
             0 MiB available memory on the node where the printing process lives
------------------
     ethr =  1.79E-03,  avg # of iterations =  6.0


     -----------------------------------------------
     Non-local corr. energy    =       0.55925975 Ry
     -----------------------------------------------


     total cpu time spent up to now is       17.7 secs

     total energy              =    -368.01643609 Ry
     estimated scf accuracy    <      13.06876200 Ry

     iteration #  3     ecut=    70.00 Ry     beta= 0.70
     Davidson diagonalization with overlap

---- Real-time Memory Report at c_bands before calling an iterative solver
             0 MiB given to the printing process from OS
             0 MiB allocation reported by mallinfo(arena+hblkhd)
             0 MiB available memory on the node where the printing process lives
------------------
     ethr =  1.79E-03,  avg # of iterations =  4.7


     -----------------------------------------------
     Non-local corr. energy    =       0.55689022 Ry
     -----------------------------------------------


     total cpu time spent up to now is       21.8 secs

     total energy              =    -369.76043106 Ry
     estimated scf accuracy    <       0.11027436 Ry

     iteration #  4     ecut=    70.00 Ry     beta= 0.70
     Davidson diagonalization with overlap

---- Real-time Memory Report at c_bands before calling an iterative solver
             0 MiB given to the printing process from OS
             0 MiB allocation reported by mallinfo(arena+hblkhd)
             0 MiB available memory on the node where the printing process lives
------------------
     ethr =  2.12E-04,  avg # of iterations =  2.5


     -----------------------------------------------
     Non-local corr. energy    =       0.55599155 Ry
     -----------------------------------------------


     total cpu time spent up to now is       24.8 secs

     total energy              =    -369.76435592 Ry
     estimated scf accuracy    <       0.02702974 Ry

     iteration #  5     ecut=    70.00 Ry     beta= 0.70
     Davidson diagonalization with overlap

---- Real-time Memory Report at c_bands before calling an iterative solver
             0 MiB given to the printing process from OS
             0 MiB allocation reported by mallinfo(arena+hblkhd)
             0 MiB available memory on the node where the printing process lives
------------------
     ethr =  5.20E-05,  avg # of iterations =  4.1


     -----------------------------------------------
     Non-local corr. energy    =       0.55597555 Ry
     -----------------------------------------------


     total cpu time spent up to now is       28.3 secs

     total energy              =    -369.76742219 Ry
     estimated scf accuracy    <       0.01282304 Ry

     iteration #  6     ecut=    70.00 Ry     beta= 0.70
     Davidson diagonalization with overlap

---- Real-time Memory Report at c_bands before calling an iterative solver
             0 MiB given to the printing process from OS
             0 MiB allocation reported by mallinfo(arena+hblkhd)
             0 MiB available memory on the node where the printing process lives
------------------
     ethr =  2.47E-05,  avg # of iterations =  2.3


     -----------------------------------------------
     Non-local corr. energy    =       0.55620063 Ry
     -----------------------------------------------


     total cpu time spent up to now is       31.3 secs

     total energy              =    -369.76904732 Ry
     estimated scf accuracy    <       0.00042117 Ry

     iteration #  7     ecut=    70.00 Ry     beta= 0.70
     Davidson diagonalization with overlap

---- Real-time Memory Report at c_bands before calling an iterative solver
             0 MiB given to the printing process from OS
             0 MiB allocation reported by mallinfo(arena+hblkhd)
             0 MiB available memory on the node where the printing process lives
------------------
     c_bands:  1 eigenvalues not converged
     ethr =  8.10E-07,  avg # of iterations =  8.0


     -----------------------------------------------
     Non-local corr. energy    =       0.55626185 Ry
     -----------------------------------------------


     total cpu time spent up to now is       36.3 secs

     total energy              =    -369.76913590 Ry
     estimated scf accuracy    <       0.00023082 Ry

     iteration #  8     ecut=    70.00 Ry     beta= 0.70
     Davidson diagonalization with overlap

---- Real-time Memory Report at c_bands before calling an iterative solver
             0 MiB given to the printing process from OS
             0 MiB allocation reported by mallinfo(arena+hblkhd)
             0 MiB available memory on the node where the printing process lives
------------------
     ethr =  4.44E-07,  avg # of iterations =  2.2


     -----------------------------------------------
     Non-local corr. energy    =       0.55624476 Ry
     -----------------------------------------------


     total cpu time spent up to now is       39.2 secs

     total energy              =    -369.76916573 Ry
     estimated scf accuracy    <       0.00000565 Ry

     iteration #  9     ecut=    70.00 Ry     beta= 0.70
     Davidson diagonalization with overlap

---- Real-time Memory Report at c_bands before calling an iterative solver
             0 MiB given to the printing process from OS
             0 MiB allocation reported by mallinfo(arena+hblkhd)
             0 MiB available memory on the node where the printing process lives
------------------
     ethr =  1.09E-08,  avg # of iterations =  5.0


     -----------------------------------------------
     Non-local corr. energy    =       0.55624741 Ry
     -----------------------------------------------


     total cpu time spent up to now is       43.6 secs

     total energy              =    -369.76916732 Ry
     estimated scf accuracy    <       0.00000523 Ry

     iteration # 10     ecut=    70.00 Ry     beta= 0.70
     Davidson diagonalization with overlap

---- Real-time Memory Report at c_bands before calling an iterative solver
             0 MiB given to the printing process from OS
             0 MiB allocation reported by mallinfo(arena+hblkhd)
             0 MiB available memory on the node where the printing process lives
------------------
     ethr =  1.01E-08,  avg # of iterations =  1.9


     -----------------------------------------------
     Non-local corr. energy    =       0.55624550 Ry
     -----------------------------------------------


     total cpu time spent up to now is       46.4 secs

     total energy              =    -369.76916770 Ry
     estimated scf accuracy    <       0.00000022 Ry

     iteration # 11     ecut=    70.00 Ry     beta= 0.70
     Davidson diagonalization with overlap

---- Real-time Memory Report at c_bands before calling an iterative solver
             0 MiB given to the printing process from OS
             0 MiB allocation reported by mallinfo(arena+hblkhd)
             0 MiB available memory on the node where the printing process lives
------------------
     ethr =  4.18E-10,  avg # of iterations =  4.9


     -----------------------------------------------
     Non-local corr. energy    =       0.55624543 Ry
     -----------------------------------------------


     total cpu time spent up to now is       50.4 secs

     total energy              =    -369.76916777 Ry
     estimated scf accuracy    <       0.00000014 Ry

     iteration # 12     ecut=    70.00 Ry     beta= 0.70
     Davidson diagonalization with overlap

---- Real-time Memory Report at c_bands before calling an iterative solver
             0 MiB given to the printing process from OS
             0 MiB allocation reported by mallinfo(arena+hblkhd)
             0 MiB available memory on the node where the printing process lives
------------------
     ethr =  2.69E-10,  avg # of iterations =  1.2


     -----------------------------------------------
     Non-local corr. energy    =       0.55624529 Ry
     -----------------------------------------------


     total cpu time spent up to now is       52.9 secs

     End of self-consistent calculation

          k = 0.0000 0.0000 0.0000 (  7113 PWs)   bands (ev):

   -50.6259 -50.6259 -24.7878 -24.7877 -24.5626 -24.5626 -24.5625 -24.5625
    -4.0544  -3.7820  -2.8655  -2.4217   4.0242   5.0701   7.3377   7.6102
     7.6102   7.6233   7.6233   8.7037   8.7037   8.7500   8.7500   9.6703
     9.6726  10.8369  12.9573  12.9574  12.9859  12.9860  13.1045

     occupation numbers 
     1.0000   1.0000   1.0000   1.0000   1.0000   1.0000   1.0000   1.0000
     1.0000   1.0000   1.0000   1.0000   1.0000   1.0000   1.0000   1.0000
     1.0000   1.0000   1.0000   1.0000   1.0000   1.0000   1.0000   1.0000
     1.0000   1.0000   0.0000   0.0000   0.0000   0.0000   0.0000

          k = 0.0000 0.0000 0.0855 (  7106 PWs)   bands (ev):

   -50.6259 -50.6259 -24.7878 -24.7877 -24.5626 -24.5625 -24.5625 -24.5625
    -4.0003  -3.8683  -2.7384  -2.5208   4.2313   4.7315   7.6134   7.6134
     7.6199   7.6199   7.8222   8.7153   8.7153   8.7384   8.7385   8.7592
    10.3467  10.7222  12.9586  12.9586  12.9698  12.9698  13.1559

     occupation numbers 
     1.0000   1.0000   1.0000   1.0000   1.0000   1.0000   1.0000   1.0000
     1.0000   1.0000   1.0000   1.0000   1.0000   1.0000   1.0000   1.0000
     1.0000   1.0000   1.0000   1.0000   1.0000   1.0000   1.0000   1.0000
     1.0000   1.0000   0.0000   0.0000   0.0000   0.0000   0.0000

          k = 0.0000 0.0962 0.0000 (  7109 PWs)   bands (ev):

   -50.6233 -50.6233 -24.7826 -24.7824 -24.5891 -24.5891 -24.5687 -24.5685
    -3.9499  -3.6791  -2.8152  -2.3844   4.1453   5.1884   7.1386   7.3750
     7.3968   7.7159   7.7346   8.3127   8.5360   8.5873   8.8243   9.6855
     9.8179  10.6371  12.8368  12.8776  12.9191  12.9769  13.0154

     occupation numbers 
     1.0000   1.0000   1.0000   1.0000   1.0000   1.0000   1.0000   1.0000
     1.0000   1.0000   1.0000   1.0000   1.0000   1.0000   1.0000   1.0000
     1.0000   1.0000   1.0000   1.0000   1.0000   1.0000   1.0000   1.0000
     1.0000   1.0000   0.0000   0.0000   0.0000   0.0000   0.0000

          k = 0.0000 0.0962 0.0855 (  7118 PWs)   bands (ev):

   -50.6233 -50.6233 -24.7826 -24.7825 -24.5891 -24.5891 -24.5686 -24.5686
    -3.8963  -3.7654  -2.6906  -2.4798   4.3480   4.8434   7.3776   7.3894
     7.5692   7.7204   7.7297   8.1547   8.5490   8.5746   8.8619   9.1304
    10.2841  10.5592  12.8433  12.8606  12.9543  12.9997  13.0070

     occupation numbers 
     1.0000   1.0000   1.0000   1.0000   1.0000   1.0000   1.0000   1.0000
     1.0000   1.0000   1.0000   1.0000   1.0000   1.0000   1.0000   1.0000
     1.0000   1.0000   1.0000   1.0000   1.0000   1.0000   1.0000   1.0000
     1.0000   1.0000   0.0000   0.0000   0.0000   0.0000   0.0000

          k = 0.0000 0.1925 0.0000 (  7140 PWs)   bands (ev):

   -50.6161 -50.6161 -24.7684 -24.7682 -24.6612 -24.6611 -24.5850 -24.5850
    -3.6513  -3.3874  -2.6715  -2.2793   4.4614   5.4707   6.7084   6.8231
     6.8917   7.6032   8.0101   8.0450   8.1423   8.2032   8.8099   9.6464
     9.7013  10.0773  12.3101  12.6936  12.7062  12.8826  12.9141

     occupation numbers 
     1.0000   1.0000   1.0000   1.0000   1.0000   1.0000   1.0000   1.0000
     1.0000   1.0000   1.0000   1.0000   1.0000   1.0000   1.0000   1.0000
     1.0000   1.0000   1.0000   1.0000   1.0000   1.0000   1.0000   1.0000
     1.0000   1.0000   0.0000   0.0000   0.0000   0.0000   0.0000

          k = 0.0000 0.1925 0.0855 (  7156 PWs)   bands (ev):

   -50.6161 -50.6161 -24.7684 -24.7683 -24.6612 -24.6611 -24.5851 -24.5850
    -3.6001  -3.4733  -2.5546  -2.3638   4.6471   5.1156   6.8217   6.8472
     7.1041   7.4909   8.0165   8.0331   8.1607   8.1902   8.8966   9.2223
     9.9607  10.0596  12.4207  12.6126  12.7412  12.8494  12.9264

     occupation numbers 
     1.0000   1.0000   1.0000   1.0000   1.0000   1.0000   1.0000   1.0000
     1.0000   1.0000   1.0000   1.0000   1.0000   1.0000   1.0000   1.0000
     1.0000   1.0000   1.0000   1.0000   1.0000   1.0000   1.0000   1.0000
     1.0000   1.0000   0.0000   0.0000   0.0000   0.0000   0.0000

          k = 0.0000 0.2887 0.0000 (  7158 PWs)   bands (ev):

   -50.6063 -50.6063 -24.7581 -24.7580 -24.7489 -24.7488 -24.6074 -24.6074
    -3.2049  -2.9589  -2.4572  -2.1275   4.7771   5.5424   6.2110   6.2670
     6.5839   6.8424   7.7024   7.7719   8.4168   8.4831   8.5605   9.2590
     9.3589   9.4854  12.0222  12.4336  12.6447  12.8653  12.9030

     occupation numbers 
     1.0000   1.0000   1.0000   1.0000   1.0000   1.0000   1.0000   1.0000
     1.0000   1.0000   1.0000   1.0000   1.0000   1.0000   1.0000   1.0000
     1.0000   1.0000   1.0000   1.0000   1.0000   1.0000   1.0000   1.0000
     1.0000   1.0000   0.0000   0.0000   0.0000   0.0000   0.0000

          k = 0.0000 0.2887 0.0855 (  7181 PWs)   bands (ev):

   -50.6063 -50.6063 -24.7581 -24.7581 -24.7489 -24.7489 -24.6075 -24.6075
    -3.1588  -3.0422  -2.3535  -2.1950   4.9190   5.2755   6.2415   6.2904
     6.7029   6.8301   7.7185   7.7531   8.4348   8.4678   8.6696   8.9841
     9.4509   9.4858  12.1998  12.4802  12.5503  12.5847  13.1804

     occupation numbers 
     1.0000   1.0000   1.0000   1.0000   1.0000   1.0000   1.0000   1.0000
     1.0000   1.0000   1.0000   1.0000   1.0000   1.0000   1.0000   1.0000
     1.0000   1.0000   1.0000   1.0000   1.0000   1.0000   1.0000   1.0000
     1.0000   1.0000   0.0000   0.0000   0.0000   0.0000   0.0000

          k = 0.0000 0.3849 0.0000 (  7184 PWs)   bands (ev):

   -50.5965 -50.5965 -24.8536 -24.8536 -24.7294 -24.7294 -24.6297 -24.6297
    -2.6947  -2.4855  -2.2142  -1.9672   4.7213   5.1282   5.7252   5.9920
     6.1406   6.6301   7.3329   7.4084   8.2832   8.8104   8.8185   8.9285
     9.0544   9.3133  12.2029  12.3268  12.4835  12.9255  13.2796

     occupation numbers 
     1.0000   1.0000   1.0000   1.0000   1.0000   1.0000   1.0000   1.0000
     1.0000   1.0000   1.0000   1.0000   1.0000   1.0000   1.0000   1.0000
     1.0000   1.0000   1.0000   1.0000   1.0000   1.0000   1.0000   1.0000
     1.0000   1.0000   0.0000   0.0000   0.0000   0.0000   0.0000

          k = 0.0000 0.3849 0.0855 (  7179 PWs)   bands (ev):

   -50.5965 -50.5965 -24.8536 -24.8536 -24.7294 -24.7293 -24.6297 -24.6297
    -2.6576  -2.5611  -2.1293  -2.0139   4.8050   5.0032   5.7667   5.8697
     6.3468   6.5602   7.3508   7.3885   8.3699   8.6089   8.8410   8.9000
     9.1799   9.2811  12.3528  12.3611  12.4388  12.6787  13.5465

     occupation numbers 
     1.0000   1.0000   1.0000   1.0000   1.0000   1.0000   1.0000   1.0000
     1.0000   1.0000   1.0000   1.0000   1.0000   1.0000   1.0000   1.0000
     1.0000   1.0000   1.0000   1.0000   1.0000   1.0000   1.0000   1.0000
     1.0000   1.0000   0.0000   0.0000   0.0000   0.0000   0.0000

          k = 0.0000 0.4811 0.0000 (  7188 PWs)   bands (ev):

   -50.5892 -50.5892 -24.9227 -24.9226 -24.7151 -24.7150 -24.6460 -24.6459
    -2.2550  -2.1045  -2.0054  -1.8513   4.3977   4.7139   5.3566   5.6313
     5.8545   6.5301   7.0933   7.1722   8.1448   8.5080   9.0694   9.2297
     9.2445   9.4905  12.3777  12.4597  12.5879  13.0216  13.5721

     occupation numbers 
     1.0000   1.0000   1.0000   1.0000   1.0000   1.0000   1.0000   1.0000
     1.0000   1.0000   1.0000   1.0000   1.0000   1.0000   1.0000   1.0000
     1.0000   1.0000   1.0000   1.0000   1.0000   1.0000   1.0000   1.0000
     1.0000   1.0000   0.0000   0.0000   0.0000   0.0000   0.0000

          k = 0.0000 0.4811 0.0855 (  7182 PWs)   bands (ev):

   -50.5892 -50.5892 -24.9226 -24.9226 -24.7151 -24.7150 -24.6460 -24.6459
    -2.2302  -2.1642  -1.9448  -1.8770   4.4667   4.6235   5.3861   5.4839
     6.1162   6.4151   7.1121   7.1515   8.2099   8.3819   9.1137   9.2012
     9.3235   9.4452  12.3953  12.4360  12.6841  12.8896  13.7886

     occupation numbers 
     1.0000   1.0000   1.0000   1.0000   1.0000   1.0000   1.0000   1.0000
     1.0000   1.0000   1.0000   1.0000   1.0000   1.0000   1.0000   1.0000
     1.0000   1.0000   1.0000   1.0000   1.0000   1.0000   1.0000   1.0000
     1.0000   1.0000   0.0000   0.0000   0.0000   0.0000   0.0000

          k = 0.0000-0.5774 0.0000 (  7222 PWs)   bands (ev):

   -50.5866 -50.5866 -24.9478 -24.9478 -24.7099 -24.7098 -24.6520 -24.6519
    -2.0691  -1.9605  -1.9138  -1.8165   4.2370   4.5494   5.2185   5.4427
     5.7817   6.4442   7.0108   7.0908   8.1251   8.3824   9.1535   9.3541
     9.4669   9.5839  12.4328  12.4785  12.8105  13.0815  13.6709

     occupation numbers 
     1.0000   1.0000   1.0000   1.0000   1.0000   1.0000   1.0000   1.0000
     1.0000   1.0000   1.0000   1.0000   1.0000   1.0000   1.0000   1.0000
     1.0000   1.0000   1.0000   1.0000   1.0000   1.0000   1.0000   1.0000
     1.0000   1.0000   0.0000   0.0000   0.0000   0.0000   0.0000

          k = 0.0000-0.5774 0.0855 (  7198 PWs)   bands (ev):

   -50.5866 -50.5866 -24.9478 -24.9477 -24.7099 -24.7098 -24.6519 -24.6519
    -2.0515  -2.0051  -1.8720  -1.8312   4.3065   4.4622   5.2398   5.3235
     6.0218   6.3244   7.0299   7.0698   8.1777   8.3044   9.2037   9.3039
     9.5033   9.5603  12.4425  12.4652  12.8866  13.0218  13.8424

     occupation numbers 
     1.0000   1.0000   1.0000   1.0000   1.0000   1.0000   1.0000   1.0000
     1.0000   1.0000   1.0000   1.0000   1.0000   1.0000   1.0000   1.0000
     1.0000   1.0000   1.0000   1.0000   1.0000   1.0000   1.0000   1.0000
     1.0000   1.0000   0.0000   0.0000   0.0000   0.0000   0.0000

          k = 0.0833 0.1443 0.0000 (  7138 PWs)   bands (ev):

   -50.6184 -50.6184 -24.7729 -24.7727 -24.6371 -24.6370 -24.5812 -24.5812
    -3.7482  -3.4817  -2.7181  -2.3131   4.3663   5.3950   6.8521   7.0031
     7.0220   7.8664   7.9119   7.9333   8.1419   8.2215   8.9527   9.6744
     9.8353  10.2576  12.4344  12.6420  12.7936  12.8457  12.9122

     occupation numbers 
     1.0000   1.0000   1.0000   1.0000   1.0000   1.0000   1.0000   1.0000
     1.0000   1.0000   1.0000   1.0000   1.0000   1.0000   1.0000   1.0000
     1.0000   1.0000   1.0000   1.0000   1.0000   1.0000   1.0000   1.0000
     1.0000   1.0000   0.0000   0.0000   0.0000   0.0000   0.0000

          k = 0.0833 0.1443 0.0855 (  7153 PWs)   bands (ev):

   -50.6184 -50.6184 -24.7729 -24.7728 -24.6371 -24.6370 -24.5812 -24.5812
    -3.6961  -3.5678  -2.5986  -2.4011   4.5586   5.0396   6.9932   7.0133
     7.2534   7.7239   7.9154   7.9259   8.1603   8.1989   9.0165   9.2924
    10.0935  10.2272  12.5062  12.6089  12.8318  12.8589  12.8854

     occupation numbers 
     1.0000   1.0000   1.0000   1.0000   1.0000   1.0000   1.0000   1.0000
     1.0000   1.0000   1.0000   1.0000   1.0000   1.0000   1.0000   1.0000
     1.0000   1.0000   1.0000   1.0000   1.0000   1.0000   1.0000   1.0000
     1.0000   1.0000   0.0000   0.0000   0.0000   0.0000   0.0000

          k = 0.0833 0.2406 0.0000 (  7177 PWs)   bands (ev):

   -50.6099 -50.6099 -24.7561 -24.7560 -24.7181 -24.7181 -24.6041 -24.6041
    -3.3747  -3.1206  -2.5381  -2.1834   4.7022   5.6183   6.4611   6.4922
     6.5998   7.2011   7.5740   7.7191   8.2147   8.2541   8.9605   9.5321
     9.5628   9.6680  11.9645  12.5330  12.6232  12.6452  12.9400

     occupation numbers 
     1.0000   1.0000   1.0000   1.0000   1.0000   1.0000   1.0000   1.0000
     1.0000   1.0000   1.0000   1.0000   1.0000   1.0000   1.0000   1.0000
     1.0000   1.0000   1.0000   1.0000   1.0000   1.0000   1.0000   1.0000
     1.0000   1.0000   0.0000   0.0000   0.0000   0.0000   0.0000

          k = 0.0833 0.2406 0.0855 (  7176 PWs)   bands (ev):

   -50.6099 -50.6099 -24.7561 -24.7560 -24.7181 -24.7181 -24.6041 -24.6041
    -3.3264  -3.2052  -2.4291  -2.2576   4.8666   5.2869   6.4662   6.5038
     6.8756   7.1457   7.5955   7.6722   8.2254   8.2449   9.0288   9.2671
     9.6639   9.6743  12.1193  12.4015  12.5954  12.6899  12.9701

     occupation numbers 
     1.0000   1.0000   1.0000   1.0000   1.0000   1.0000   1.0000   1.0000
     1.0000   1.0000   1.0000   1.0000   1.0000   1.0000   1.0000   1.0000
     1.0000   1.0000   1.0000   1.0000   1.0000   1.0000   1.0000   1.0000
     1.0000   1.0000   0.0000   0.0000   0.0000   0.0000   0.0000

          k = 0.0833 0.3368 0.0000 (  7185 PWs)   bands (ev):

   -50.6001 -50.6001 -24.8101 -24.8101 -24.7366 -24.7365 -24.6306 -24.6306
    -2.8928  -2.6660  -2.3066  -2.0240   4.8534   5.3855   5.9974   6.1408
     6.4186   6.6130   7.1427   7.3809   8.4394   8.4925   8.7229   9.0963
     9.2691   9.3738  11.8613  12.4814  12.4994  12.9096  12.9465

     occupation numbers 
     1.0000   1.0000   1.0000   1.0000   1.0000   1.0000   1.0000   1.0000
     1.0000   1.0000   1.0000   1.0000   1.0000   1.0000   1.0000   1.0000
     1.0000   1.0000   1.0000   1.0000   1.0000   1.0000   1.0000   1.0000
     1.0000   1.0000   0.0000   0.0000   0.0000   0.0000   0.0000

          k = 0.0833 0.3368 0.0855 (  7176 PWs)   bands (ev):

   -50.6001 -50.6001 -24.8101 -24.8101 -24.7366 -24.7365 -24.6306 -24.6306
    -2.8516  -2.7456  -2.2132  -2.0794   4.9603   5.2173   6.0220   6.1022
     6.5027   6.6020   7.2205   7.3431   8.4492   8.4724   8.7766   8.9441
     9.3221   9.3613  12.0247  12.3346  12.5429  12.6913  13.2216

     occupation numbers 
     1.0000   1.0000   1.0000   1.0000   1.0000   1.0000   1.0000   1.0000
     1.0000   1.0000   1.0000   1.0000   1.0000   1.0000   1.0000   1.0000
     1.0000   1.0000   1.0000   1.0000   1.0000   1.0000   1.0000   1.0000
     1.0000   1.0000   0.0000   0.0000   0.0000   0.0000   0.0000

          k = 0.0833 0.4330 0.0000 (  7189 PWs)   bands (ev):

   -50.5915 -50.5915 -24.8887 -24.8887 -24.7196 -24.7196 -24.6535 -24.6534
    -2.4085  -2.2312  -2.0748  -1.8805   4.6282   4.9580   5.5271   5.7570
     5.9922   6.6314   6.9644   7.1819   8.3912   8.5019   8.6376   8.6995
     9.3980   9.4923  12.0993  12.4998  12.6678  12.9608  13.3110

     occupation numbers 
     1.0000   1.0000   1.0000   1.0000   1.0000   1.0000   1.0000   1.0000
     1.0000   1.0000   1.0000   1.0000   1.0000   1.0000   1.0000   1.0000
     1.0000   1.0000   1.0000   1.0000   1.0000   1.0000   1.0000   1.0000
     1.0000   1.0000   0.0000   0.0000   0.0000   0.0000   0.0000

          k = 0.0833 0.4330 0.0855 (  7194 PWs)   bands (ev):

   -50.5915 -50.5915 -24.8887 -24.8887 -24.7197 -24.7196 -24.6535 -24.6534
    -2.3785  -2.2991  -2.0028  -1.9148   4.6989   4.8617   5.5567   5.6452
     6.2009   6.4803   7.0624   7.1624   8.3936   8.4552   8.6345   8.6917
     9.4303   9.4753  12.2143  12.4237  12.6840  12.7933  13.5641

     occupation numbers 
     1.0000   1.0000   1.0000   1.0000   1.0000   1.0000   1.0000   1.0000
     1.0000   1.0000   1.0000   1.0000   1.0000   1.0000   1.0000   1.0000
     1.0000   1.0000   1.0000   1.0000   1.0000   1.0000   1.0000   1.0000
     1.0000   1.0000   0.0000   0.0000   0.0000   0.0000   0.0000

          k = 0.0833 0.5292 0.0000 (  7195 PWs)   bands (ev):

   -50.5866 -50.5866 -24.9338 -24.9337 -24.7098 -24.7098 -24.6666 -24.6666
    -2.0801  -1.9641  -1.9146  -1.8049   4.3792   4.6832   5.2345   5.3767
     5.8533   6.4986   6.9527   7.0767   8.1510   8.4904   8.6009   8.8114
     9.5979   9.7502  12.3893  12.5119  12.7991  13.1098  13.6757

     occupation numbers 
     1.0000   1.0000   1.0000   1.0000   1.0000   1.0000   1.0000   1.0000
     1.0000   1.0000   1.0000   1.0000   1.0000   1.0000   1.0000   1.0000
     1.0000   1.0000   1.0000   1.0000   1.0000   1.0000   1.0000   1.0000
     1.0000   1.0000   0.0000   0.0000   0.0000   0.0000   0.0000

          k = 0.0833 0.5292 0.0855 (  7203 PWs)   bands (ev):

   -50.5866 -50.5866 -24.9337 -24.9337 -24.7099 -24.7098 -24.6666 -24.6666
    -2.0617  -2.0124  -1.8679  -1.8218   4.4467   4.5981   5.2492   5.3058
     6.0400   6.3388   7.0220   7.0766   8.2013   8.3579   8.6760   8.7732
     9.6438   9.7179  12.4190  12.4787  12.8647  13.0135  13.8670

     occupation numbers 
     1.0000   1.0000   1.0000   1.0000   1.0000   1.0000   1.0000   1.0000
     1.0000   1.0000   1.0000   1.0000   1.0000   1.0000   1.0000   1.0000
     1.0000   1.0000   1.0000   1.0000   1.0000   1.0000   1.0000   1.0000
     1.0000   1.0000   0.0000   0.0000   0.0000   0.0000   0.0000

          k = 0.1667 0.2887 0.0000 (  7190 PWs)   bands (ev):

   -50.6014 -50.6014 -24.7878 -24.7878 -24.7393 -24.7391 -24.6374 -24.6373
    -2.9631  -2.7307  -2.3386  -2.0435   4.9100   5.5224   6.2207   6.3024
     6.5409   6.6204   6.7748   7.2992   8.2407   8.2565   9.0662   9.2736
     9.3717   9.3933  11.6963  12.4590  12.5471  12.6297  12.9938

     occupation numbers 
     1.0000   1.0000   1.0000   1.0000   1.0000   1.0000   1.0000   1.0000
     1.0000   1.0000   1.0000   1.0000   1.0000   1.0000   1.0000   1.0000
     1.0000   1.0000   1.0000   1.0000   1.0000   1.0000   1.0000   1.0000
     1.0000   1.0000   0.0000   0.0000   0.0000   0.0000   0.0000

          k = 0.1667 0.2887 0.0855 (  7185 PWs)   bands (ev):

   -50.6014 -50.6014 -24.7878 -24.7878 -24.7392 -24.7391 -24.6374 -24.6373
    -2.9205  -2.8116  -2.2424  -2.1020   5.0320   5.3282   6.1983   6.2553
     6.6084   6.6258   6.9634   7.2232   8.2410   8.2475   9.0801   9.1766
     9.3808   9.3925  11.8707  12.2130  12.5983  12.6857  13.0429

     occupation numbers 
     1.0000   1.0000   1.0000   1.0000   1.0000   1.0000   1.0000   1.0000
     1.0000   1.0000   1.0000   1.0000   1.0000   1.0000   1.0000   1.0000
     1.0000   1.0000   1.0000   1.0000   1.0000   1.0000   1.0000   1.0000
     1.0000   1.0000   0.0000   0.0000   0.0000   0.0000   0.0000

          k = 0.1667 0.3849 0.0000 (  7197 PWs)   bands (ev):

   -50.5928 -50.5928 -24.8534 -24.8533 -24.7223 -24.7222 -24.6740 -24.6740
    -2.4970  -2.3057  -2.1113  -1.8934   4.8664   5.2147   5.7229   5.8593
     6.2855   6.5450   6.6884   7.1812   7.9087   8.0295   8.7621   8.9248
     9.4282   9.4501  11.8195  12.6357  12.7341  12.8509  12.9121

     occupation numbers 
     1.0000   1.0000   1.0000   1.0000   1.0000   1.0000   1.0000   1.0000
     1.0000   1.0000   1.0000   1.0000   1.0000   1.0000   1.0000   1.0000
     1.0000   1.0000   1.0000   1.0000   1.0000   1.0000   1.0000   1.0000
     1.0000   1.0000   0.0000   0.0000   0.0000   0.0000   0.0000

          k = 0.1667 0.3849 0.0855 (  7194 PWs)   bands (ev):

   -50.5928 -50.5928 -24.8533 -24.8533 -24.7223 -24.7223 -24.6740 -24.6740
    -2.4642  -2.3776  -2.0328  -1.9330   4.9428   5.1155   5.7539   5.8231
     6.3042   6.4023   6.9273   7.1436   7.9235   7.9897   8.7727   8.8554
     9.4390   9.4495  11.9879  12.3581  12.7384  12.7932  13.1837

     occupation numbers 
     1.0000   1.0000   1.0000   1.0000   1.0000   1.0000   1.0000   1.0000
     1.0000   1.0000   1.0000   1.0000   1.0000   1.0000   1.0000   1.0000
     1.0000   1.0000   1.0000   1.0000   1.0000   1.0000   1.0000   1.0000
     1.0000   1.0000   0.0000   0.0000   0.0000   0.0000   0.0000

          k = 0.1667 0.4811 0.0000 (  7199 PWs)   bands (ev):

   -50.5866 -50.5866 -24.8997 -24.8996 -24.7099 -24.7099 -24.7020 -24.7020
    -2.1012  -1.9719  -1.9147  -1.7830   4.7124   4.9874   5.2386   5.3018
     6.1010   6.6384   6.6742   7.1825   7.7013   7.9765   8.2836   8.6570
     9.6174   9.7477  12.1627  12.5855  12.8904  13.1066  13.1502

     occupation numbers 
     1.0000   1.0000   1.0000   1.0000   1.0000   1.0000   1.0000   1.0000
     1.0000   1.0000   1.0000   1.0000   1.0000   1.0000   1.0000   1.0000
     1.0000   1.0000   1.0000   1.0000   1.0000   1.0000   1.0000   1.0000
     1.0000   1.0000   0.0000   0.0000   0.0000   0.0000   0.0000

          k = 0.1667 0.4811 0.0855 (  7196 PWs)   bands (ev):

   -50.5866 -50.5866 -24.8997 -24.8996 -24.7099 -24.7099 -24.7020 -24.7020
    -2.0809  -2.0263  -1.8597  -1.8039   4.7730   4.9089   5.2557   5.2867
     6.1737   6.3789   6.9389   7.1398   7.7710   7.9135   8.3486   8.5381
     9.6568   9.7200  12.2662  12.4789  12.9034  12.9689  13.4092

     occupation numbers 
     1.0000   1.0000   1.0000   1.0000   1.0000   1.0000   1.0000   1.0000
     1.0000   1.0000   1.0000   1.0000   1.0000   1.0000   1.0000   1.0000
     1.0000   1.0000   1.0000   1.0000   1.0000   1.0000   1.0000   1.0000
     1.0000   1.0000   0.0000   0.0000   0.0000   0.0000   0.0000

          k = 0.1667 0.5774 0.0000 (  7208 PWs)   bands (ev):

   -50.5843 -50.5843 -24.9163 -24.9163 -24.7125 -24.7124 -24.7053 -24.7053
    -1.9347  -1.8501  -1.8272  -1.7502   4.6426   4.9122   5.0579   5.0993
     5.9628   6.5266   6.8036   7.1739   7.6983   7.9903   8.0748   8.5242
     9.7622   9.9465  12.2791  12.3946  13.1163  13.2193  13.2818

     occupation numbers 
     1.0000   1.0000   1.0000   1.0000   1.0000   1.0000   1.0000   1.0000
     1.0000   1.0000   1.0000   1.0000   1.0000   1.0000   1.0000   1.0000
     1.0000   1.0000   1.0000   1.0000   1.0000   1.0000   1.0000   1.0000
     1.0000   1.0000   0.0000   0.0000   0.0000   0.0000   0.0000

          k = 0.1667 0.5774 0.0855 (  7203 PWs)   bands (ev):

   -50.5843 -50.5843 -24.9164 -24.9163 -24.7124 -24.7124 -24.7053 -24.7053
    -1.9217  -1.8869  -1.7923  -1.7613   4.7020   4.8345   5.0701   5.0893
     6.0551   6.2983   7.0058   7.1581   7.7696   7.9127   8.1589   8.3832
     9.8158   9.9054  12.3106  12.3694  13.1308  13.1754  13.4630

     occupation numbers 
     1.0000   1.0000   1.0000   1.0000   1.0000   1.0000   1.0000   1.0000
     1.0000   1.0000   1.0000   1.0000   1.0000   1.0000   1.0000   1.0000
     1.0000   1.0000   1.0000   1.0000   1.0000   1.0000   1.0000   1.0000
     1.0000   1.0000   0.0000   0.0000   0.0000   0.0000   0.0000

          k = 0.2500 0.4330 0.0000 (  7200 PWs)   bands (ev):

   -50.5866 -50.5866 -24.8769 -24.8768 -24.7256 -24.7254 -24.7099 -24.7098
    -2.1113  -1.9760  -1.9142  -1.7726   4.9119   5.1645   5.1906   5.3305
     6.5307   6.5615   6.5838   7.1866   7.2252   7.4472   8.3701   8.7369
     9.6094   9.7083  12.0536  12.5931  12.8233  12.9435  13.1793

     occupation numbers 
     1.0000   1.0000   1.0000   1.0000   1.0000   1.0000   1.0000   1.0000
     1.0000   1.0000   1.0000   1.0000   1.0000   1.0000   1.0000   1.0000
     1.0000   1.0000   1.0000   1.0000   1.0000   1.0000   1.0000   1.0000
     1.0000   1.0000   0.0000   0.0000   0.0000   0.0000   0.0000

          k = 0.2500 0.4330 0.0855 (  7192 PWs)   bands (ev):

   -50.5866 -50.5866 -24.8768 -24.8768 -24.7255 -24.7255 -24.7099 -24.7099
    -2.0902  -2.0331  -1.8556  -1.7953   4.9662   5.0828   5.2439   5.3029
     6.3843   6.4548   6.8940   7.1423   7.2987   7.4010   8.4242   8.6176
     9.6362   9.6855  12.1804  12.4436  12.8809  12.9291  13.2761

     occupation numbers 
     1.0000   1.0000   1.0000   1.0000   1.0000   1.0000   1.0000   1.0000
     1.0000   1.0000   1.0000   1.0000   1.0000   1.0000   1.0000   1.0000
     1.0000   1.0000   1.0000   1.0000   1.0000   1.0000   1.0000   1.0000
     1.0000   1.0000   0.0000   0.0000   0.0000   0.0000   0.0000

          k = 0.2500 0.5292 0.0000 (  7210 PWs)   bands (ev):

   -50.5830 -50.5830 -24.8816 -24.8816 -24.7641 -24.7640 -24.7027 -24.7027
    -1.8556  -1.7876  -1.7749  -1.7092   4.8450   4.9885   5.0595   5.2515
     6.2197   6.5368   6.7850   6.8397   7.1626   7.2648   8.0666   8.4633
     9.8819  10.0460  12.0633  12.1761  12.7822  13.3214  13.5356

     occupation numbers 
     1.0000   1.0000   1.0000   1.0000   1.0000   1.0000   1.0000   1.0000
     1.0000   1.0000   1.0000   1.0000   1.0000   1.0000   1.0000   1.0000
     1.0000   1.0000   1.0000   1.0000   1.0000   1.0000   1.0000   1.0000
     1.0000   1.0000   0.0000   0.0000   0.0000   0.0000   0.0000

          k = 0.2500 0.5292 0.0855 (  7211 PWs)   bands (ev):

   -50.5830 -50.5830 -24.8816 -24.8816 -24.7640 -24.7640 -24.7028 -24.7027
    -1.8456  -1.8186  -1.7445  -1.7186   4.8714   4.9354   5.1292   5.2202
     6.2281   6.3700   6.7804   6.9069   7.2249   7.3952   8.0851   8.3138
     9.9216  10.0025  12.0952  12.1509  12.9692  13.2855  13.5140

     occupation numbers 
     1.0000   1.0000   1.0000   1.0000   1.0000   1.0000   1.0000   1.0000
     1.0000   1.0000   1.0000   1.0000   1.0000   1.0000   1.0000   1.0000
     1.0000   1.0000   1.0000   1.0000   1.0000   1.0000   1.0000   1.0000
     1.0000   1.0000   0.0000   0.0000   0.0000   0.0000   0.0000

          k = 0.3333 0.5774 0.0000 (  7206 PWs)   bands (ev):

   -50.5816 -50.5816 -24.8522 -24.8522 -24.8096 -24.8096 -24.7000 -24.7000
    -1.7416  -1.7416  -1.6998  -1.6998   4.6901   4.8579   5.5152   5.5152
     5.9784   6.2498   6.7020   6.7020   7.0861   7.0861   8.1701   8.1701
    10.0695  10.2352  11.8956  11.8956  12.6389  13.6477  13.6478

     occupation numbers 
     1.0000   1.0000   1.0000   1.0000   1.0000   1.0000   1.0000   1.0000
     1.0000   1.0000   1.0000   1.0000   1.0000   1.0000   1.0000   1.0000
     1.0000   1.0000   1.0000   1.0000   1.0000   1.0000   1.0000   1.0000
     1.0000   1.0000   0.0000   0.0000   0.0000   0.0000   0.0000

          k = 0.3333 0.5774 0.0855 (  7209 PWs)   bands (ev):

   -50.5816 -50.5816 -24.8522 -24.8522 -24.8096 -24.8096 -24.7001 -24.7001
    -1.7415  -1.7415  -1.6999  -1.6999   4.7267   4.8097   5.5395   5.5395
     6.0521   6.1868   6.5129   6.5129   7.3659   7.3659   8.0465   8.0465
    10.1041  10.1859  11.8967  11.8967  12.8661  13.3748  13.6787

     occupation numbers 
     1.0000   1.0000   1.0000   1.0000   1.0000   1.0000   1.0000   1.0000
     1.0000   1.0000   1.0000   1.0000   1.0000   1.0000   1.0000   1.0000
     1.0000   1.0000   1.0000   1.0000   1.0000   1.0000   1.0000   1.0000
     1.0000   1.0000   0.0000   0.0000   0.0000   0.0000   0.0000

          k = 0.0000 0.0962-0.0855 (  7118 PWs)   bands (ev):

   -50.6233 -50.6233 -24.7826 -24.7825 -24.5891 -24.5891 -24.5686 -24.5686
    -3.8963  -3.7654  -2.6906  -2.4798   4.3480   4.8434   7.3775   7.3894
     7.5693   7.7204   7.7297   8.1547   8.5489   8.5746   8.8618   9.1304
    10.2841  10.5592  12.8433  12.8604  12.9549  12.9990  13.0070

     occupation numbers 
     1.0000   1.0000   1.0000   1.0000   1.0000   1.0000   1.0000   1.0000
     1.0000   1.0000   1.0000   1.0000   1.0000   1.0000   1.0000   1.0000
     1.0000   1.0000   1.0000   1.0000   1.0000   1.0000   1.0000   1.0000
     1.0000   1.0000   0.0000   0.0000   0.0000   0.0000   0.0000

          k = 0.0000 0.1925-0.0855 (  7156 PWs)   bands (ev):

   -50.6161 -50.6161 -24.7684 -24.7683 -24.6612 -24.6611 -24.5851 -24.5850
    -3.6001  -3.4733  -2.5546  -2.3638   4.6471   5.1156   6.8213   6.8476
     7.1042   7.4909   8.0165   8.0331   8.1607   8.1903   8.8963   9.2226
     9.9607  10.0596  12.4210  12.6121  12.7412  12.8494  12.9261

     occupation numbers 
     1.0000   1.0000   1.0000   1.0000   1.0000   1.0000   1.0000   1.0000
     1.0000   1.0000   1.0000   1.0000   1.0000   1.0000   1.0000   1.0000
     1.0000   1.0000   1.0000   1.0000   1.0000   1.0000   1.0000   1.0000
     1.0000   1.0000   0.0000   0.0000   0.0000   0.0000   0.0000

          k = 0.0000 0.2887-0.0855 (  7181 PWs)   bands (ev):

   -50.6063 -50.6063 -24.7581 -24.7581 -24.7489 -24.7489 -24.6075 -24.6075
    -3.1588  -3.0422  -2.3535  -2.1951   4.9189   5.2757   6.2395   6.2927
     6.7021   6.8304   7.7185   7.7531   8.4348   8.4678   8.6689   8.9853
     9.4500   9.4863  12.2001  12.4802  12.5497  12.5847  13.1809

     occupation numbers 
     1.0000   1.0000   1.0000   1.0000   1.0000   1.0000   1.0000   1.0000
     1.0000   1.0000   1.0000   1.0000   1.0000   1.0000   1.0000   1.0000
     1.0000   1.0000   1.0000   1.0000   1.0000   1.0000   1.0000   1.0000
     1.0000   1.0000   0.0000   0.0000   0.0000   0.0000   0.0000

          k = 0.0000 0.3849-0.0855 (  7179 PWs)   bands (ev):

   -50.5965 -50.5965 -24.8536 -24.8536 -24.7294 -24.7293 -24.6297 -24.6297
    -2.6576  -2.5611  -2.1293  -2.0139   4.8049   5.0033   5.7644   5.8728
     6.3458   6.5603   7.3508   7.3885   8.3689   8.6105   8.8410   8.9000
     9.1789   9.2816  12.3531  12.3610  12.4388  12.6780  13.5469

     occupation numbers 
     1.0000   1.0000   1.0000   1.0000   1.0000   1.0000   1.0000   1.0000
     1.0000   1.0000   1.0000   1.0000   1.0000   1.0000   1.0000   1.0000
     1.0000   1.0000   1.0000   1.0000   1.0000   1.0000   1.0000   1.0000
     1.0000   1.0000   0.0000   0.0000   0.0000   0.0000   0.0000

          k = 0.0000 0.4811-0.0855 (  7182 PWs)   bands (ev):

   -50.5892 -50.5892 -24.9226 -24.9226 -24.7151 -24.7150 -24.6460 -24.6459
    -2.2302  -2.1642  -1.9448  -1.8770   4.4666   4.6236   5.3850   5.4853
     6.1160   6.4150   7.1121   7.1515   8.2090   8.3830   9.1137   9.2012
     9.3227   9.4456  12.3953  12.4360  12.6844  12.8891  13.7891

     occupation numbers 
     1.0000   1.0000   1.0000   1.0000   1.0000   1.0000   1.0000   1.0000
     1.0000   1.0000   1.0000   1.0000   1.0000   1.0000   1.0000   1.0000
     1.0000   1.0000   1.0000   1.0000   1.0000   1.0000   1.0000   1.0000
     1.0000   1.0000   0.0000   0.0000   0.0000   0.0000   0.0000

          k =-0.0833 0.2406-0.0855 (  7176 PWs)   bands (ev):

   -50.6099 -50.6099 -24.7561 -24.7560 -24.7181 -24.7181 -24.6041 -24.6041
    -3.3264  -3.2052  -2.4291  -2.2576   4.8666   5.2869   6.4655   6.5045
     6.8756   7.1456   7.5958   7.6719   8.2254   8.2449   9.0285   9.2676
     9.6635   9.6746  12.1195  12.4009  12.5959  12.6900  12.9700

     occupation numbers 
     1.0000   1.0000   1.0000   1.0000   1.0000   1.0000   1.0000   1.0000
     1.0000   1.0000   1.0000   1.0000   1.0000   1.0000   1.0000   1.0000
     1.0000   1.0000   1.0000   1.0000   1.0000   1.0000   1.0000   1.0000
     1.0000   1.0000   0.0000   0.0000   0.0000   0.0000   0.0000

          k =-0.0833 0.3368-0.0855 (  7176 PWs)   bands (ev):

   -50.6001 -50.6001 -24.8101 -24.8101 -24.7366 -24.7365 -24.6306 -24.6306
    -2.8515  -2.7456  -2.2132  -2.0794   4.9602   5.2175   6.0196   6.1054
     6.5013   6.6026   7.2206   7.3429   8.4493   8.4723   8.7758   8.9454
     9.3214   9.3616  12.0248  12.3343  12.5431  12.6910  13.2217

     occupation numbers 
     1.0000   1.0000   1.0000   1.0000   1.0000   1.0000   1.0000   1.0000
     1.0000   1.0000   1.0000   1.0000   1.0000   1.0000   1.0000   1.0000
     1.0000   1.0000   1.0000   1.0000   1.0000   1.0000   1.0000   1.0000
     1.0000   1.0000   0.0000   0.0000   0.0000   0.0000   0.0000

          k =-0.0833 0.4330-0.0855 (  7194 PWs)   bands (ev):

   -50.5915 -50.5915 -24.8887 -24.8887 -24.7197 -24.7196 -24.6535 -24.6534
    -2.3785  -2.2991  -2.0028  -1.9148   4.6988   4.8618   5.5553   5.6470
     6.2008   6.4800   7.0624   7.1623   8.3931   8.4555   8.6357   8.6911
     9.4299   9.4756  12.2142  12.4240  12.6839  12.7929  13.5647

     occupation numbers 
     1.0000   1.0000   1.0000   1.0000   1.0000   1.0000   1.0000   1.0000
     1.0000   1.0000   1.0000   1.0000   1.0000   1.0000   1.0000   1.0000
     1.0000   1.0000   1.0000   1.0000   1.0000   1.0000   1.0000   1.0000
     1.0000   1.0000   0.0000   0.0000   0.0000   0.0000   0.0000

          k =-0.0833 0.5292-0.0855 (  7203 PWs)   bands (ev):

   -50.5866 -50.5866 -24.9337 -24.9337 -24.7099 -24.7098 -24.6666 -24.6666
    -2.0617  -2.0124  -1.8679  -1.8218   4.4467   4.5982   5.2486   5.3065
     6.0400   6.3387   7.0221   7.0765   8.2009   8.3584   8.6759   8.7733
     9.6435   9.7182  12.4189  12.4787  12.8648  13.0133  13.8666

     occupation numbers 
     1.0000   1.0000   1.0000   1.0000   1.0000   1.0000   1.0000   1.0000
     1.0000   1.0000   1.0000   1.0000   1.0000   1.0000   1.0000   1.0000
     1.0000   1.0000   1.0000   1.0000   1.0000   1.0000   1.0000   1.0000
     1.0000   1.0000   0.0000   0.0000   0.0000   0.0000   0.0000

          k =-0.1667 0.3849-0.0855 (  7194 PWs)   bands (ev):

   -50.5928 -50.5928 -24.8533 -24.8533 -24.7223 -24.7223 -24.6740 -24.6740
    -2.4642  -2.3776  -2.0328  -1.9330   4.9428   5.1156   5.7537   5.8233
     6.3036   6.4034   6.9262   7.1441   7.9238   7.9895   8.7718   8.8564
     9.4391   9.4494  11.9879  12.3582  12.7382  12.7932  13.1840

     occupation numbers 
     1.0000   1.0000   1.0000   1.0000   1.0000   1.0000   1.0000   1.0000
     1.0000   1.0000   1.0000   1.0000   1.0000   1.0000   1.0000   1.0000
     1.0000   1.0000   1.0000   1.0000   1.0000   1.0000   1.0000   1.0000
     1.0000   1.0000   0.0000   0.0000   0.0000   0.0000   0.0000

          k =-0.1667 0.4811-0.0855 (  7196 PWs)   bands (ev):

   -50.5866 -50.5866 -24.8997 -24.8996 -24.7099 -24.7099 -24.7020 -24.7020
    -2.0809  -2.0263  -1.8597  -1.8039   4.7730   4.9089   5.2556   5.2867
     6.1738   6.3791   6.9384   7.1399   7.7714   7.9133   8.3482   8.5385
     9.6567   9.7200  12.2661  12.4789  12.9037  12.9683  13.4096

     occupation numbers 
     1.0000   1.0000   1.0000   1.0000   1.0000   1.0000   1.0000   1.0000
     1.0000   1.0000   1.0000   1.0000   1.0000   1.0000   1.0000   1.0000
     1.0000   1.0000   1.0000   1.0000   1.0000   1.0000   1.0000   1.0000
     1.0000   1.0000   0.0000   0.0000   0.0000   0.0000   0.0000

          k =-0.2500 0.5292-0.0855 (  7211 PWs)   bands (ev):

   -50.5830 -50.5830 -24.8816 -24.8816 -24.7640 -24.7640 -24.7028 -24.7027
    -1.8456  -1.8186  -1.7446  -1.7186   4.8713   4.9355   5.1292   5.2203
     6.2277   6.3703   6.7823   6.9039   7.2266   7.3946   8.0850   8.3139
     9.9216  10.0025  12.0952  12.1509  12.9692  13.2857  13.5129

     occupation numbers 
     1.0000   1.0000   1.0000   1.0000   1.0000   1.0000   1.0000   1.0000
     1.0000   1.0000   1.0000   1.0000   1.0000   1.0000   1.0000   1.0000
     1.0000   1.0000   1.0000   1.0000   1.0000   1.0000   1.0000   1.0000
     1.0000   1.0000   0.0000   0.0000   0.0000   0.0000   0.0000

     the Fermi energy is    11.2032 ev

!    total energy              =    -369.76916774 Ry
     estimated scf accuracy    <       0.00000003 Ry
     smearing contrib. (-TS)   =       0.00000000 Ry
     internal energy E=F+TS    =    -369.76916774 Ry

     The total energy is F=E-TS. E is the sum of the following terms:
     one-electron contribution =    -172.03215732 Ry
     hartree contribution      =     108.13247244 Ry
     xc contribution           =     -66.67960783 Ry
     ewald contribution        =    -239.18987504 Ry

     convergence has been achieved in  12 iterations


     -----------------------------------------------
     Non-local corr. energy    =       0.55624529 Ry
     -----------------------------------------------


     Forces acting on atoms (cartesian axes, Ry/au):

     atom    1 type  2   force =     0.00000000   -0.00000000    0.00005122
     atom    2 type  2   force =     0.00000000    0.00000000   -0.00005122
     atom    3 type  1   force =     0.00000000    0.00000000    0.00001939
     atom    4 type  1   force =     0.00000000   -0.00000000   -0.00001939
     atom    5 type  1   force =     0.00000000    0.00000000   -0.00007220
     atom    6 type  1   force =    -0.00000000   -0.00000000    0.00007220
     The non-local contrib.  to forces
     atom    1 type  2   force =     0.00000000    0.00000000    0.00010845
     atom    2 type  2   force =     0.00000000   -0.00000000   -0.00010845
     atom    3 type  1   force =    -0.00000000   -0.00000000   -0.24544812
     atom    4 type  1   force =     0.00000000    0.00000000    0.24544812
     atom    5 type  1   force =    -0.00000000   -0.00000000   -0.24551984
     atom    6 type  1   force =     0.00000000    0.00000000    0.24551984
     The ionic contribution  to forces
     atom    1 type  2   force =     0.00000912   -0.00000526    0.11344433
     atom    2 type  2   force =    -0.00000912    0.00000526   -0.11344433
     atom    3 type  1   force =    -0.00000464    0.00000268   14.11979524
     atom    4 type  1   force =     0.00000464   -0.00000268  -14.11979524
     atom    5 type  1   force =     0.00000464   -0.00000268   14.02412167
     atom    6 type  1   force =    -0.00000464    0.00000268  -14.02412167
     The local contribution  to forces
     atom    1 type  2   force =     0.00014603   -0.00001204   -0.11439977
     atom    2 type  2   force =    -0.00008344    0.00012044    0.11439977
     atom    3 type  1   force =    -0.00000376    0.00000542  -13.87991926
     atom    4 type  1   force =     0.00000657   -0.00000054   13.87991926
     atom    5 type  1   force =     0.00000657   -0.00000054  -13.78382219
     atom    6 type  1   force =    -0.00000376    0.00000542   13.78382219
     The core correction contribution to forces
     atom    1 type  2   force =    -0.00000316    0.00000026   -0.00000477
     atom    2 type  2   force =     0.00000181   -0.00000261    0.00000477
     atom    3 type  1   force =     0.00000050   -0.00000073    0.00538966
     atom    4 type  1   force =    -0.00000088    0.00000007   -0.00538966
     atom    5 type  1   force =    -0.00000088    0.00000007    0.00539377
     atom    6 type  1   force =     0.00000050   -0.00000073   -0.00539377
     The Hubbard contrib.    to forces
     atom    1 type  2   force =     0.00000000    0.00000000    0.00000000
     atom    2 type  2   force =     0.00000000    0.00000000    0.00000000
     atom    3 type  1   force =     0.00000000    0.00000000    0.00000000
     atom    4 type  1   force =     0.00000000    0.00000000    0.00000000
     atom    5 type  1   force =     0.00000000    0.00000000    0.00000000
     atom    6 type  1   force =     0.00000000    0.00000000    0.00000000
     The SCF correction term to forces
     atom    1 type  2   force =     0.00000000   -0.00000000    0.00090299
     atom    2 type  2   force =    -0.00000000    0.00000000   -0.00090299
     atom    3 type  1   force =    -0.00000000    0.00000000    0.00020186
     atom    4 type  1   force =     0.00000000   -0.00000000   -0.00020186
     atom    5 type  1   force =     0.00000000   -0.00000000   -0.00024561
     atom    6 type  1   force =    -0.00000000   -0.00000000    0.00024561

     Total force =     0.000128     Total SCF correction =     0.001354
     SCF correction compared to forces is large: reduce conv_thr to get better values


     Computing stress (Cartesian axis) and pressure



     -----------------------------------------------
     Non-local corr. energy    =       0.55624529 Ry
     -----------------------------------------------

          total   stress  (Ry/bohr**3)                   (kbar)     P=       -2.65
  -0.00001874   0.00000000   0.00000000           -2.76        0.00        0.00
   0.00000000  -0.00001874   0.00000000            0.00       -2.76        0.00
   0.00000000   0.00000000  -0.00001666            0.00        0.00       -2.45

     kinetic stress (kbar)  16151.36      0.00      0.00
                                0.00  16151.36      0.00
                                0.00      0.00  16239.93

     local   stress (kbar) -33812.78     -0.01      0.00
                               -0.01 -33812.79     -0.00
                                0.00     -0.00  18785.13

     nonloc. stress (kbar)  12778.46      0.00      0.00
                                0.00  12778.46      0.00
                                0.00      0.00  12807.71

     hartree stress (kbar)  15199.10      0.00     -0.00
                                0.00  15199.10     -0.00
                               -0.00     -0.00  -8500.23

     exc-cor stress (kbar)   -291.38      0.00     -0.00
                                0.00   -291.38      0.00
                               -0.00      0.00   -287.74

     corecor stress (kbar)  -3591.80     -0.00     -0.00
                               -0.00  -3591.80      0.00
                               -0.00      0.00  -3595.83

     ewald   stress (kbar)  -6472.46      0.01     -0.00
                                0.01  -6472.44      0.00
                               -0.00      0.00 -35493.57

     hubbard stress (kbar)      0.00      0.00      0.00
                                0.00      0.00      0.00
                                0.00      0.00      0.00

     DFT-D   stress (kbar)      0.00      0.00      0.00
                                0.00      0.00      0.00
                                0.00      0.00      0.00

     XDM     stress (kbar)      0.00      0.00      0.00
                                0.00      0.00      0.00
                                0.00      0.00      0.00

     dft-nl  stress (kbar)     36.74     -0.00     -0.00
                               -0.00     36.74      0.00
                               -0.00      0.00     42.15

     TS-vdW  stress (kbar)      0.00      0.00      0.00
                                0.00      0.00      0.00
                                0.00      0.00      0.00

     MDB     stress (kbar)      0.00      0.00      0.00
                                0.00      0.00      0.00
                                0.00      0.00      0.00

     3D-RISM stress (kbar)      0.00      0.00      0.00
                                0.00      0.00      0.00
                                0.00      0.00      0.00


     Writing all to output data dir ./tmp/MoS2_bulk_pbe_vdW_nsoc.save/

     init_run     :      9.64s CPU      9.37s WALL (       1 calls)
     electrons    :     54.50s CPU     43.51s WALL (       1 calls)
     forces       :      1.30s CPU      0.94s WALL (       1 calls)
     stress       :      7.31s CPU      7.29s WALL (       1 calls)

     Called by init_run:
     wfcinit      :      1.35s CPU      1.06s WALL (       1 calls)
     wfcinit:atom :      0.02s CPU      0.02s WALL (      50 calls)
     wfcinit:wfcr :      1.22s CPU      0.92s WALL (      50 calls)
     potinit      :      8.05s CPU      8.06s WALL (       1 calls)
     hinit0       :      0.19s CPU      0.20s WALL (       1 calls)

     Called by electrons:
     c_bands      :     50.54s CPU     39.34s WALL (      12 calls)
     sum_band     :      3.29s CPU      3.41s WALL (      12 calls)
     v_of_rho     :      8.62s CPU      8.70s WALL (      13 calls)
     v_h          :      0.01s CPU      0.01s WALL (      13 calls)
     v_xc         :      8.72s CPU      8.82s WALL (      15 calls)
     mix_rho      :      0.03s CPU      0.05s WALL (      12 calls)
     vdW_kernel   :      7.95s CPU      7.96s WALL (       1 calls)

     Called by c_bands:
     init_us_2    :      1.20s CPU      1.22s WALL (    1350 calls)
     init_us_2:cp :      1.20s CPU      1.22s WALL (    1350 calls)
     cegterg      :     47.73s CPU     36.48s WALL (     600 calls)

     Called by sum_band:
     sum_band:wei :      0.00s CPU      0.00s WALL (      12 calls)
     sum_band:loo :      3.27s CPU      3.38s WALL (      12 calls)
     sum_band:buf :      0.18s CPU      0.18s WALL (     600 calls)
     sum_band:ini :      0.49s CPU      0.50s WALL (     600 calls)

     Called by *egterg:
     cdiaghg      :      3.57s CPU      3.60s WALL (    2877 calls)
     cegterg:over :      4.95s CPU      3.20s WALL (    2277 calls)
     cegterg:upda :      3.09s CPU      1.84s WALL (    2277 calls)
     cegterg:last :      4.94s CPU      2.74s WALL (    1296 calls)
     h_psi        :     30.25s CPU     23.80s WALL (    2927 calls)
     g_psi        :      0.19s CPU      0.23s WALL (    2277 calls)

     Called by h_psi:
     h_psi:calbec :      8.33s CPU      4.82s WALL (    2927 calls)
     vloc_psi     :     13.92s CPU     14.49s WALL (    2927 calls)
     add_vuspsi   :      7.72s CPU      4.18s WALL (    2927 calls)

     General routines
     calbec       :      9.48s CPU      5.44s WALL (    3177 calls)
     fft          :      0.36s CPU      0.37s WALL (     948 calls)
     ffts         :      0.00s CPU      0.00s WALL (      12 calls)
     fftw         :     13.78s CPU     14.29s WALL (  119694 calls)

     Parallel routines

     PWSCF        :   1m13.06s CPU   1m 1.56s WALL


   This run was terminated on:  22:21:26  17Apr2024            

=------------------------------------------------------------------------------=
   JOB DONE.
=------------------------------------------------------------------------------=
