
     Program PWSCF v.7.2 starts on 17Apr2024 at 15:31:56 

     This program is part of the open-source Quantum ESPRESSO suite
     for quantum simulation of materials; please cite
         "P. Giannozzi et al., J. Phys.:Condens. Matter 21 395502 (2009);
         "P. Giannozzi et al., J. Phys.:Condens. Matter 29 465901 (2017);
         "P. Giannozzi et al., J. Chem. Phys. 152 154105 (2020);
          URL http://www.quantum-espresso.org", 
     in publications or presentations arising from this work. More details at
     http://www.quantum-espresso.org/quote

     Parallel version (MPI & OpenMP), running on       8 processor cores
     Number of MPI processes:                 8
     Threads/MPI process:                     1

     MPI processes distributed on     1 nodes
     0 MiB available memory on the printing compute node when the environment starts

     Waiting for input...
     Reading input from standard input

     Current dimensions of program PWSCF are:
     Max number of different atomic species (ntypx) = 10
     Max number of k-points (npk) =  40000
     Max angular momentum in pseudopotentials (lmaxx) =  4

     IMPORTANT: XC functional enforced from input :
     Exchange-correlation= VDW-DF2-B86R
                           (   1   4  26   0   2   0   0)
     Any further DFT definition will be discarded
     Please, verify this is what you really want


     R & G space division:  proc/nbgrp/npool/nimage =       8
     Subspace diagonalization in iterative solution of the eigenvalue problem:
     a serial algorithm will be used


     Parallelization info
     --------------------
     sticks:   dense  smooth     PW     G-vecs:    dense   smooth      PW
     Min          93      93     26                16477    16477    2580
     Max          94      94     27                16516    16516    2611
     Sum         745     745    211               131881   131881   20729

     Using Slab Decomposition



     bravais-lattice index     =            4
     lattice parameter (alat)  =       4.7489  a.u.
     unit-cell volume          =     741.9928 (a.u.)^3
     number of atoms/cell      =            4
     number of atomic types    =            2
     number of electrons       =        16.00
     number of Kohn-Sham states=           12
     kinetic-energy cutoff     =     120.0000  Ry
     charge density cutoff     =     480.0000  Ry
     scf convergence threshold =      1.0E-06
     mixing beta               =       0.7000
     number of iterations used =            8  plain     mixing
     energy convergence thresh.=      1.0E-04
     force convergence thresh. =      1.0E-03
     press convergence thresh. =      5.0E-01
     Exchange-correlation= VDW-DF2-B86R
                           (   1   4  26   0   2   0   0)
     nstep                     =           50


     celldm(1)=   4.748900  celldm(2)=   0.000000  celldm(3)=   8.000000
     celldm(4)=   0.000000  celldm(5)=   0.000000  celldm(6)=   0.000000

     crystal axes: (cart. coord. in units of alat)
               a(1) = (   1.000000   0.000000   0.000000 )  
               a(2) = (  -0.500000   0.866025   0.000000 )  
               a(3) = (   0.000000   0.000000   8.000000 )  

     reciprocal axes: (cart. coord. in units 2 pi/alat)
               b(1) = (  1.000000  0.577350 -0.000000 )  
               b(2) = (  0.000000  1.154701  0.000000 )  
               b(3) = (  0.000000 -0.000000  0.125000 )  


     PseudoPot. # 1 for B  read from file:
     ../../../../Pseudo/PBE/B.upf
     MD5 check sum: 72f82fc31bc892420d0cab7e25c88ab8
     Pseudo is Norm-conserving + core correction, Zval =  3.0
     Generated using ONCVPSP code by D. R. Hamann
     Using radial grid of 1534 points,  4 beta functions with: 
                l(1) =   0
                l(2) =   0
                l(3) =   1
                l(4) =   1

     PseudoPot. # 2 for N  read from file:
     ../../../../Pseudo/PBE/N.upf
     MD5 check sum: d34365f73bb0e2ee98afc20ec3e87676
     Pseudo is Norm-conserving + core correction, Zval =  5.0
     Generated using ONCVPSP code by D. R. Hamann
     Using radial grid of 1058 points,  4 beta functions with: 
                l(1) =   0
                l(2) =   0
                l(3) =   1
                l(4) =   1

     atomic species   valence    mass     pseudopotential
        B              3.00    10.00000     B ( 1.00)
        N              5.00    14.01100     N ( 1.00)

      6 Sym. Ops. (no inversion) found


                                    s                        frac. trans.

      isym =  1     identity                                     

 cryst.   s( 1) = (     1          0          0      )
                  (     0          1          0      )
                  (     0          0          1      )

 cart.    s( 1) = (  1.0000000  0.0000000  0.0000000 )
                  (  0.0000000  1.0000000  0.0000000 )
                  (  0.0000000  0.0000000  1.0000000 )


      isym =  2     120 deg rotation - cryst. axis [0,0,1]       

 cryst.   s( 2) = (     0          1          0      )
                  (    -1         -1          0      )
                  (     0          0          1      )

 cart.    s( 2) = ( -0.5000000 -0.8660254  0.0000000 )
                  (  0.8660254 -0.5000000  0.0000000 )
                  (  0.0000000  0.0000000  1.0000000 )


      isym =  3     120 deg rotation - cryst. axis [0,0,-1]      

 cryst.   s( 3) = (    -1         -1          0      )
                  (     1          0          0      )
                  (     0          0          1      )

 cart.    s( 3) = ( -0.5000000  0.8660254  0.0000000 )
                  ( -0.8660254 -0.5000000  0.0000000 )
                  (  0.0000000  0.0000000  1.0000000 )


      isym =  4     inv. 180 deg rotation - cart. axis [1,0,0]   

 cryst.   s( 4) = (    -1          0          0      )
                  (     1          1          0      )
                  (     0          0          1      )

 cart.    s( 4) = ( -1.0000000  0.0000000  0.0000000 )
                  (  0.0000000  1.0000000  0.0000000 )
                  (  0.0000000  0.0000000  1.0000000 )


      isym =  5     inv. 180 deg rotation - cryst. axis [0,1,0]  

 cryst.   s( 5) = (     1          1          0      )
                  (     0         -1          0      )
                  (     0          0          1      )

 cart.    s( 5) = (  0.5000000  0.8660254  0.0000000 )
                  (  0.8660254 -0.5000000  0.0000000 )
                  (  0.0000000  0.0000000  1.0000000 )


      isym =  6     inv. 180 deg rotation - cryst. axis [1,1,0]  

 cryst.   s( 6) = (     0         -1          0      )
                  (    -1          0          0      )
                  (     0          0          1      )

 cart.    s( 6) = (  0.5000000 -0.8660254  0.0000000 )
                  ( -0.8660254 -0.5000000  0.0000000 )
                  (  0.0000000  0.0000000  1.0000000 )


     point group C_3v (3m)  
     there are  3 classes
     the character table:

       E     2C3   3s_v 
A_1    1.00  1.00  1.00
A_2    1.00  1.00 -1.00
E      2.00 -1.00  0.00

     the symmetry operations in each class and the name of the first element:

     E        1
          identity                                               
     2C3      2    3
          120 deg rotation - cryst. axis [0,0,1]                 
     3s_v     4    5    6
          inv. 180 deg rotation - cart. axis [1,0,0]             

   Cartesian axes

     site n.     atom                  positions (alat units)
         1           B   tau(   1) = (   0.0000000   0.0000000   0.0000000  )
         2           N   tau(   2) = (   0.5000005   0.2886748   0.0000000  )
         3           N   tau(   3) = (   0.0000000   0.0000000   1.3119520  )
         4           B   tau(   4) = (   0.5000005   0.2886748   1.3119520  )

   Crystallographic axes

     site n.     atom                  positions (cryst. coord.)
         1           B   tau(   1) = (  0.0000000  0.0000000  0.0000000  )
         2           N   tau(   2) = (  0.6666670  0.3333330  0.0000000  )
         3           N   tau(   3) = (  0.0000000  0.0000000  0.1639940  )
         4           B   tau(   4) = (  0.6666670  0.3333330  0.1639940  )

     number of k points=    19  Marzari-Vanderbilt smearing, width (Ry)=  0.0050
                       cart. coord. in units 2pi/alat
        k(    1) = (   0.0000000   0.0000000   0.0000000), wk =   0.0138889
        k(    2) = (   0.0000000   0.0962250   0.0000000), wk =   0.0833333
        k(    3) = (   0.0000000   0.1924501   0.0000000), wk =   0.0833333
        k(    4) = (   0.0000000   0.2886751   0.0000000), wk =   0.0833333
        k(    5) = (   0.0000000   0.3849002   0.0000000), wk =   0.0833333
        k(    6) = (   0.0000000   0.4811252   0.0000000), wk =   0.0833333
        k(    7) = (   0.0000000  -0.5773503   0.0000000), wk =   0.0416667
        k(    8) = (   0.0833333   0.1443376   0.0000000), wk =   0.0833333
        k(    9) = (   0.0833333   0.2405626   0.0000000), wk =   0.1666667
        k(   10) = (   0.0833333   0.3367877   0.0000000), wk =   0.1666667
        k(   11) = (   0.0833333   0.4330127   0.0000000), wk =   0.1666667
        k(   12) = (   0.0833333   0.5292377   0.0000000), wk =   0.1666667
        k(   13) = (   0.1666667   0.2886751   0.0000000), wk =   0.0833333
        k(   14) = (   0.1666667   0.3849002   0.0000000), wk =   0.1666667
        k(   15) = (   0.1666667   0.4811252   0.0000000), wk =   0.1666667
        k(   16) = (   0.1666667   0.5773503   0.0000000), wk =   0.0833333
        k(   17) = (   0.2500000   0.4330127   0.0000000), wk =   0.0833333
        k(   18) = (   0.2500000   0.5292377   0.0000000), wk =   0.1666667
        k(   19) = (   0.3333333   0.5773503   0.0000000), wk =   0.0277778

                       cryst. coord.
        k(    1) = (   0.0000000   0.0000000   0.0000000), wk =   0.0138889
        k(    2) = (   0.0000000   0.0833333   0.0000000), wk =   0.0833333
        k(    3) = (   0.0000000   0.1666667   0.0000000), wk =   0.0833333
        k(    4) = (   0.0000000   0.2500000   0.0000000), wk =   0.0833333
        k(    5) = (   0.0000000   0.3333333   0.0000000), wk =   0.0833333
        k(    6) = (   0.0000000   0.4166667   0.0000000), wk =   0.0833333
        k(    7) = (   0.0000000  -0.5000000   0.0000000), wk =   0.0416667
        k(    8) = (   0.0833333   0.0833333   0.0000000), wk =   0.0833333
        k(    9) = (   0.0833333   0.1666667   0.0000000), wk =   0.1666667
        k(   10) = (   0.0833333   0.2500000   0.0000000), wk =   0.1666667
        k(   11) = (   0.0833333   0.3333333   0.0000000), wk =   0.1666667
        k(   12) = (   0.0833333   0.4166667   0.0000000), wk =   0.1666667
        k(   13) = (   0.1666667   0.1666667   0.0000000), wk =   0.0833333
        k(   14) = (   0.1666667   0.2500000   0.0000000), wk =   0.1666667
        k(   15) = (   0.1666667   0.3333333   0.0000000), wk =   0.1666667
        k(   16) = (   0.1666667   0.4166667   0.0000000), wk =   0.0833333
        k(   17) = (   0.2500000   0.2500000   0.0000000), wk =   0.0833333
        k(   18) = (   0.2500000   0.3333333   0.0000000), wk =   0.1666667
        k(   19) = (   0.3333333   0.3333333   0.0000000), wk =   0.0277778

     Dense  grid:   131881 G-vectors     FFT dimensions: (  36,  36, 270)

     Dynamical RAM for                 wfc:       0.38 MB

     Dynamical RAM for     wfc (w. buffer):       7.54 MB

     Dynamical RAM for           str. fact:       0.50 MB

     Dynamical RAM for           local pot:       0.00 MB

     Dynamical RAM for          nlocal pot:       1.00 MB

     Dynamical RAM for                qrad:       2.01 MB

     Dynamical RAM for          rho,v,vnew:       1.76 MB

     Dynamical RAM for               rhoin:       0.59 MB

     Dynamical RAM for            rho*nmix:       4.02 MB

     Dynamical RAM for           G-vectors:       1.07 MB

     Dynamical RAM for          h,s,v(r/c):       0.03 MB

     Dynamical RAM for          <psi|beta>:       0.01 MB

     Dynamical RAM for                 psi:       0.75 MB

     Dynamical RAM for                hpsi:       0.75 MB

     Dynamical RAM for      wfcinit/wfcrot:       1.01 MB

     Estimated static dynamical RAM per process >      16.91 MB

     Estimated max dynamical RAM per process >      22.47 MB

     Estimated total dynamical RAM >     179.78 MB

     Initial potential from superposition of free atoms

     starting charge      15.9995, renormalised to      16.0000

     negative rho (up, down):  4.029E-06 0.000E+00


     %%%%%%%%%%%%%%%%%%%%%%%%%%%%%%%%%%%%%%%%%%%%%%%%%%%%%%%%%%%%%%%%%%%%%%%%
     %                                                                      %
     % You are using vdW-DF, which was implemented by the Thonhauser group. %
     % Please cite the following two papers that made this development      %
     % possible and the two reviews that describe the various versions:     %
     %                                                                      %
     %   T. Thonhauser et al., PRL 115, 136402 (2015).                      %
     %   T. Thonhauser et al., PRB 76, 125112 (2007).                       %
     %   K. Berland et al., Rep. Prog. Phys. 78, 066501 (2015).             %
     %   D.C. Langreth et al., J. Phys.: Condens. Matter 21, 084203 (2009). %
     %                                                                      %
     % If you are calculating stress with vdW-DF, please also cite:         %
     %                                                                      %
     %   R. Sabatini et al., J. Phys.: Condens. Matter 24, 424209 (2012).   %
     %                                                                      %
     %%%%%%%%%%%%%%%%%%%%%%%%%%%%%%%%%%%%%%%%%%%%%%%%%%%%%%%%%%%%%%%%%%%%%%%%

     %%%%%%%%%%%%%%%%%%%%%%%%%%%%%%%%%%%%%%%%%%%%%%%%%%%%%%%%%%%%%%%%%%%%%%%%
     %                                                                      %
     %  vdW-DF NEWS:                                                        %
     %                                                                      %
     %  * vdW-DF3 is now available. DOI: 10.1021/acs.jctc.0c00471           %
     %    use with input_dft = 'vdW-DF3-opt1' or 'vdW-DF3-opt2'             %
     %                                                                      %
     %  * Unscreened and range-separated hybrid vdW-DF-cx functionals       %
     %    DOI: 10.1063/1.4986522 and 10.1088/1361-648X/ac2ad2               %
     %    use with input_dft = 'vdW-DF-cx0'    and 'vdW-DF-ahcx'            %
     %  * Unscreened and range-separated hybrid vdW-DF2-b86r functionals    %
     %    DOI: 10.1063/1.4986522 and DOI: 10.1103/PhysRevX.12.041003        %
     %    use with input_dft = 'vdW-DF2-br0' and 'vdW-DF2-ahbr'             %
     %                                                                      %
     %%%%%%%%%%%%%%%%%%%%%%%%%%%%%%%%%%%%%%%%%%%%%%%%%%%%%%%%%%%%%%%%%%%%%%%%


     Carrying out vdW-DF run using the following parameters:
     Nqs    =  20  Npoints =  1024  r_max =  100.000
     q_mesh =  0.00001000  0.04494208  0.09755937  0.15916263
               0.23128650  0.31572767  0.41458969  0.53033537
               0.66584808  0.82450364  1.01025438  1.22772762
               1.48234092  1.78043706  2.12944203  2.53805004
               3.01644009  3.57652955  4.23227104  5.00000000


     -----------------------------------------------
     Non-local corr. energy    =       0.17483211 Ry
     -----------------------------------------------

     Starting wfcs are   16 randomized atomic wfcs

     total cpu time spent up to now is       12.5 secs

     Self-consistent Calculation

     iteration #  1     ecut=   120.00 Ry     beta= 0.70
     Davidson diagonalization with overlap

---- Real-time Memory Report at c_bands before calling an iterative solver
             0 MiB given to the printing process from OS
             0 MiB allocation reported by mallinfo(arena+hblkhd)
             0 MiB available memory on the node where the printing process lives
------------------
     ethr =  1.00E-02,  avg # of iterations =  4.1


     -----------------------------------------------
     Non-local corr. energy    =       0.20501233 Ry
     -----------------------------------------------


     total cpu time spent up to now is       14.6 secs

     total energy              =     -53.44707204 Ry
     estimated scf accuracy    <       0.75852533 Ry

     iteration #  2     ecut=   120.00 Ry     beta= 0.70
     Davidson diagonalization with overlap

---- Real-time Memory Report at c_bands before calling an iterative solver
             0 MiB given to the printing process from OS
             0 MiB allocation reported by mallinfo(arena+hblkhd)
             0 MiB available memory on the node where the printing process lives
------------------
     ethr =  4.74E-03,  avg # of iterations =  3.4


     -----------------------------------------------
     Non-local corr. energy    =       0.19895876 Ry
     -----------------------------------------------


     total cpu time spent up to now is       16.7 secs

     total energy              =     -53.64632791 Ry
     estimated scf accuracy    <       0.32767455 Ry

     iteration #  3     ecut=   120.00 Ry     beta= 0.70
     Davidson diagonalization with overlap

---- Real-time Memory Report at c_bands before calling an iterative solver
             0 MiB given to the printing process from OS
             0 MiB allocation reported by mallinfo(arena+hblkhd)
             0 MiB available memory on the node where the printing process lives
------------------
     ethr =  2.05E-03,  avg # of iterations =  2.2


     -----------------------------------------------
     Non-local corr. energy    =       0.20083379 Ry
     -----------------------------------------------


     total cpu time spent up to now is       18.3 secs

     total energy              =     -53.69856851 Ry
     estimated scf accuracy    <       0.00588270 Ry

     iteration #  4     ecut=   120.00 Ry     beta= 0.70
     Davidson diagonalization with overlap

---- Real-time Memory Report at c_bands before calling an iterative solver
             0 MiB given to the printing process from OS
             0 MiB allocation reported by mallinfo(arena+hblkhd)
             0 MiB available memory on the node where the printing process lives
------------------
     ethr =  3.68E-05,  avg # of iterations = 10.0


     -----------------------------------------------
     Non-local corr. energy    =       0.20104546 Ry
     -----------------------------------------------


     total cpu time spent up to now is       21.7 secs

     total energy              =     -53.70347733 Ry
     estimated scf accuracy    <       0.00616130 Ry

     iteration #  5     ecut=   120.00 Ry     beta= 0.70
     Davidson diagonalization with overlap

---- Real-time Memory Report at c_bands before calling an iterative solver
             0 MiB given to the printing process from OS
             0 MiB allocation reported by mallinfo(arena+hblkhd)
             0 MiB available memory on the node where the printing process lives
------------------
     ethr =  3.68E-05,  avg # of iterations =  2.8


     -----------------------------------------------
     Non-local corr. energy    =       0.20103868 Ry
     -----------------------------------------------


     total cpu time spent up to now is       23.3 secs

     total energy              =     -53.70360139 Ry
     estimated scf accuracy    <       0.00121765 Ry

     iteration #  6     ecut=   120.00 Ry     beta= 0.70
     Davidson diagonalization with overlap

---- Real-time Memory Report at c_bands before calling an iterative solver
             0 MiB given to the printing process from OS
             0 MiB allocation reported by mallinfo(arena+hblkhd)
             0 MiB available memory on the node where the printing process lives
------------------
     ethr =  7.61E-06,  avg # of iterations =  3.8

     negative rho (up, down):  2.021E-07 0.000E+00


     -----------------------------------------------
     Non-local corr. energy    =       0.20105544 Ry
     -----------------------------------------------


     total cpu time spent up to now is       25.1 secs

     total energy              =     -53.70394191 Ry
     estimated scf accuracy    <       0.00001738 Ry

     iteration #  7     ecut=   120.00 Ry     beta= 0.70
     Davidson diagonalization with overlap

---- Real-time Memory Report at c_bands before calling an iterative solver
             0 MiB given to the printing process from OS
             0 MiB allocation reported by mallinfo(arena+hblkhd)
             0 MiB available memory on the node where the printing process lives
------------------
     c_bands:  1 eigenvalues not converged
     ethr =  1.09E-07,  avg # of iterations =  7.1


     -----------------------------------------------
     Non-local corr. energy    =       0.20106995 Ry
     -----------------------------------------------


     total cpu time spent up to now is       27.6 secs

     total energy              =     -53.70394445 Ry
     estimated scf accuracy    <       0.00002129 Ry

     iteration #  8     ecut=   120.00 Ry     beta= 0.70
     Davidson diagonalization with overlap

---- Real-time Memory Report at c_bands before calling an iterative solver
             0 MiB given to the printing process from OS
             0 MiB allocation reported by mallinfo(arena+hblkhd)
             0 MiB available memory on the node where the printing process lives
------------------
     ethr =  1.09E-07,  avg # of iterations =  2.3


     -----------------------------------------------
     Non-local corr. energy    =       0.20107051 Ry
     -----------------------------------------------


     total cpu time spent up to now is       29.0 secs

     total energy              =     -53.70394620 Ry
     estimated scf accuracy    <       0.00000111 Ry

     iteration #  9     ecut=   120.00 Ry     beta= 0.70
     Davidson diagonalization with overlap

---- Real-time Memory Report at c_bands before calling an iterative solver
             0 MiB given to the printing process from OS
             0 MiB allocation reported by mallinfo(arena+hblkhd)
             0 MiB available memory on the node where the printing process lives
------------------
     ethr =  6.93E-09,  avg # of iterations =  3.8


     -----------------------------------------------
     Non-local corr. energy    =       0.20107567 Ry
     -----------------------------------------------


     total cpu time spent up to now is       30.9 secs

     End of self-consistent calculation

          k = 0.0000 0.0000 0.0000 ( 16471 PWs)   bands (ev):

   -20.1488 -19.9880  -8.2558  -7.1389  -3.8843  -3.8842  -3.8638  -3.8637
     2.0315   2.5607   3.7099   4.7494

     occupation numbers 
     1.0000   1.0000   1.0000   1.0000   1.0000   1.0000   1.0000   1.0000
     0.0000   0.0000   0.0000   0.0000

          k = 0.0000 0.0962 0.0000 ( 16513 PWs)   bands (ev):

   -20.0153 -19.8570  -8.0736  -6.9663  -4.4333  -4.4155  -4.1397  -4.1168
     2.2625   2.7729   3.9321   4.9649

     occupation numbers 
     1.0000   1.0000   1.0000   1.0000   1.0000   1.0000   1.0000   1.0000
     0.0000   0.0000   0.0000   0.0000

          k = 0.0000 0.1925 0.0000 ( 16509 PWs)   bands (ev):

   -19.6221 -19.4714  -7.5356  -6.4640  -5.8187  -5.8018  -4.7623  -4.7350
     2.9193   3.3902   4.5878   5.5911

     occupation numbers 
     1.0000   1.0000   1.0000   1.0000   1.0000   1.0000   1.0000   1.0000
     0.0000   0.0000   0.0000   0.0000

          k = 0.0000 0.2887 0.0000 ( 16464 PWs)   bands (ev):

   -18.9960 -18.8589  -7.6023  -7.5730  -6.6518  -5.6363  -5.4851  -5.4539
     3.9559   4.3229   5.5809   5.9058

     occupation numbers 
     1.0000   1.0000   1.0000   1.0000   1.0000   1.0000   1.0000   1.0000
     0.0000   0.0000   0.0000   0.0000

          k = 0.0000 0.3849 0.0000 ( 16436 PWs)   bands (ev):

   -18.2048 -18.0896  -9.3631  -9.3190  -6.1068  -6.0729  -5.5262  -4.6083
     4.3006   4.7299   5.3364   6.3027

     occupation numbers 
     1.0000   1.0000   1.0000   1.0000   1.0000   1.0000   1.0000   1.0000
     0.0000   0.0000   0.0000   0.0000

          k = 0.0000 0.4811 0.0000 ( 16468 PWs)   bands (ev):

   -17.4211 -17.3427 -10.7681 -10.7233  -6.5149  -6.4795  -4.3318  -3.5974
     2.7200   3.3682   6.6769   7.3020

     occupation numbers 
     1.0000   1.0000   1.0000   1.0000   1.0000   1.0000   1.0000   1.0000
     0.0000   0.0000   0.0000   0.0000

          k = 0.0000-0.5774 0.0000 ( 16490 PWs)   bands (ev):

   -17.0422 -17.0029 -11.3441 -11.3084  -6.6562  -6.6203  -3.6917  -3.1422
     1.9573   2.6813   7.1368   7.3995

     occupation numbers 
     1.0000   1.0000   1.0000   1.0000   1.0000   1.0000   1.0000   1.0000
     0.0000   0.0000   0.0000   0.0000

          k = 0.0833 0.1443 0.0000 ( 16511 PWs)   bands (ev):

   -19.7518 -19.5985  -7.7131  -6.6271  -5.3326  -5.3225  -4.6431  -4.6199
     2.7071   3.1885   4.3720   5.4266

     occupation numbers 
     1.0000   1.0000   1.0000   1.0000   1.0000   1.0000   1.0000   1.0000
     0.0000   0.0000   0.0000   0.0000

          k = 0.0833 0.2406 0.0000 ( 16477 PWs)   bands (ev):

   -19.2408 -19.0981  -7.0344  -6.8174  -6.7604  -5.9512  -5.4259  -5.3972
     3.5609   3.9791   5.2318   5.9133

     occupation numbers 
     1.0000   1.0000   1.0000   1.0000   1.0000   1.0000   1.0000   1.0000
     0.0000   0.0000   0.0000   0.0000

          k = 0.0833 0.3368 0.0000 ( 16455 PWs)   bands (ev):

   -18.5260 -18.4006  -8.5169  -8.4824  -6.1712  -6.1389  -5.9861  -5.0252
     4.7268   4.7811   5.3184   6.1728

     occupation numbers 
     1.0000   1.0000   1.0000   1.0000   1.0000   1.0000   1.0000   1.0000
     0.0000   0.0000   0.0000   0.0000

          k = 0.0833 0.4330 0.0000 ( 16469 PWs)   bands (ev):

   -17.7155 -17.6183 -10.0903 -10.0459  -6.7178  -6.6812  -4.7978  -3.9717
     3.4881   3.9965   6.3013   7.1102

     occupation numbers 
     1.0000   1.0000   1.0000   1.0000   1.0000   1.0000   1.0000   1.0000
     0.0000   0.0000   0.0000   0.0000

          k = 0.0833 0.5292 0.0000 ( 16482 PWs)   bands (ev):

   -17.0796 -17.0270 -11.1176 -11.0775  -7.0054  -6.9673  -3.7682  -3.1728
     2.2056   2.8604   7.4957   7.9296

     occupation numbers 
     1.0000   1.0000   1.0000   1.0000   1.0000   1.0000   1.0000   1.0000
     0.0000   0.0000   0.0000   0.0000

          k = 0.1667 0.2887 0.0000 ( 16480 PWs)   bands (ev):

   -18.6371 -18.5084  -8.0065  -8.0005  -6.4381  -6.4035  -6.1441  -5.1688
     4.6078   4.7476   5.5614   6.2797

     occupation numbers 
     1.0000   1.0000   1.0000   1.0000   1.0000   1.0000   1.0000   1.0000
     0.0000   0.0000   0.0000   0.0000

          k = 0.1667 0.3849 0.0000 ( 16434 PWs)   bands (ev):

   -17.8819 -17.7755  -9.3517  -9.3261  -7.2937  -7.2588  -5.0545  -4.1852
     4.1219   4.4392   6.0636   6.8301

     occupation numbers 
     1.0000   1.0000   1.0000   1.0000   1.0000   1.0000   1.0000   1.0000
     0.0000   0.0000   0.0000   0.0000

          k = 0.1667 0.4811 0.0000 ( 16469 PWs)   bands (ev):

   -17.1476 -17.0772 -10.5320 -10.4911  -7.8132  -7.7732  -3.9056  -3.2382
     2.7589   3.2258   7.7375   8.4370

     occupation numbers 
     1.0000   1.0000   1.0000   1.0000   1.0000   1.0000   1.0000   1.0000
     0.0000   0.0000   0.0000   0.0000

          k = 0.1667 0.5774 0.0000 ( 16476 PWs)   bands (ev):

   -16.8002 -16.7664 -11.0316 -10.9887  -7.9844  -7.9425  -3.2881  -2.8314
     2.1140   2.6279   8.8254   9.3223

     occupation numbers 
     1.0000   1.0000   1.0000   1.0000   1.0000   1.0000   1.0000   1.0000
     0.0000   0.0000   0.0000   0.0000

          k = 0.2500 0.4330 0.0000 ( 16436 PWs)   bands (ev):

   -17.1793 -17.1023 -10.0663 -10.0476  -8.3647  -8.3362  -3.9683  -3.2717
     3.0851   3.4040   7.6738   8.3013

     occupation numbers 
     1.0000   1.0000   1.0000   1.0000   1.0000   1.0000   1.0000   1.0000
     0.0000   0.0000   0.0000   0.0000

          k = 0.2500 0.5292 0.0000 ( 16475 PWs)   bands (ev):

   -16.6597 -16.6236 -10.5882 -10.5375  -8.9708  -8.9379  -3.0449  -2.6462
     2.3009   2.5915   9.2559   9.4443

     occupation numbers 
     1.0000   1.0000   1.0000   1.0000   1.0000   1.0000   1.0000   1.0000
     0.0000   0.0000   0.0000   0.0000

          k = 0.3333 0.5774 0.0000 ( 16482 PWs)   bands (ev):

   -16.4519 -16.4515 -10.3896 -10.3016  -9.6327  -9.6323  -2.5372  -2.5368
     2.2380   2.2381   8.7741  10.7014

     occupation numbers 
     1.0000   1.0000   1.0000   1.0000   1.0000   1.0000   1.0000   1.0000
     0.0000   0.0000   0.0000   0.0000

     the Fermi energy is    -0.6973 ev

!    total energy              =     -53.70394680 Ry
     estimated scf accuracy    <       0.00000017 Ry
     smearing contrib. (-TS)   =       0.00000000 Ry
     internal energy E=F+TS    =     -53.70394680 Ry

     The total energy is F=E-TS. E is the sum of the following terms:
     one-electron contribution =    -535.32359458 Ry
     hartree contribution      =     271.81842797 Ry
     xc contribution           =     -17.37696222 Ry
     ewald contribution        =     227.17818202 Ry

     convergence has been achieved in   9 iterations


     -----------------------------------------------
     Non-local corr. energy    =       0.20107567 Ry
     -----------------------------------------------


     Forces acting on atoms (cartesian axes, Ry/au):

     atom    1 type  1   force =     0.00000000    0.00000000    0.00076916
     atom    2 type  2   force =     0.00000000    0.00000000   -0.00078914
     atom    3 type  2   force =     0.00000000    0.00000000    0.00078830
     atom    4 type  1   force =     0.00000000    0.00000000   -0.00076831
     The non-local contrib.  to forces
     atom    1 type  1   force =     0.00000000    0.00000000    0.00018072
     atom    2 type  2   force =     0.00000000    0.00000000   -0.00173512
     atom    3 type  2   force =     0.00000000    0.00000000    0.00174035
     atom    4 type  1   force =     0.00000000   -0.00000000   -0.00017339
     The ionic contribution  to forces
     atom    1 type  1   force =     0.00000770   -0.00000445  -10.38021550
     atom    2 type  2   force =    -0.00000771    0.00000445  -17.29610369
     atom    3 type  2   force =     0.00000771   -0.00000445   17.29610369
     atom    4 type  1   force =    -0.00000770    0.00000445   10.38021550
     The local contribution  to forces
     atom    1 type  1   force =    -0.00000000    0.00000000   10.38089602
     atom    2 type  2   force =    -0.00003357    0.00001938   17.29706036
     atom    3 type  2   force =    -0.00000000    0.00000000  -17.29705556
     atom    4 type  1   force =     0.00000417   -0.00000241  -10.38089694
     The core correction contribution to forces
     atom    1 type  1   force =     0.00000000   -0.00000000   -0.00005034
     atom    2 type  2   force =     0.00000139   -0.00000080    0.00007998
     atom    3 type  2   force =     0.00000000   -0.00000000   -0.00008033
     atom    4 type  1   force =     0.00000025   -0.00000015    0.00005019
     The Hubbard contrib.    to forces
     atom    1 type  1   force =     0.00000000    0.00000000    0.00000000
     atom    2 type  2   force =     0.00000000    0.00000000    0.00000000
     atom    3 type  2   force =     0.00000000    0.00000000    0.00000000
     atom    4 type  1   force =     0.00000000    0.00000000    0.00000000
     The SCF correction term to forces
     atom    1 type  1   force =    -0.00000000    0.00000000   -0.00003844
     atom    2 type  2   force =     0.00000000   -0.00000000   -0.00008736
     atom    3 type  2   force =    -0.00000000    0.00000000    0.00008346
     atom    4 type  1   force =    -0.00000000    0.00000000    0.00003964

     Total force =     0.001558     Total SCF correction =     0.000133


     Computing stress (Cartesian axis) and pressure



     -----------------------------------------------
     Non-local corr. energy    =       0.20107567 Ry
     -----------------------------------------------

          total   stress  (Ry/bohr**3)                   (kbar)     P=       -0.01
  -0.00000048   0.00000000   0.00000000           -0.07        0.00        0.00
   0.00000000  -0.00000048  -0.00000000            0.00       -0.07       -0.00
   0.00000000  -0.00000000   0.00000082            0.00       -0.00        0.12

     kinetic stress (kbar)   4794.13      0.00      0.00
                                0.00   4794.13      0.00
                                0.00      0.00   5219.40

     local   stress (kbar)-108994.13      0.00     -0.00
                                0.00-108994.13      0.00
                               -0.00      0.00 109656.04

     nonloc. stress (kbar)   -790.19      0.00      0.00
                                0.00   -790.19      0.00
                                0.00      0.00   -764.25

     hartree stress (kbar)  53056.81     -0.00     -0.00
                               -0.00  53056.81     -0.00
                               -0.00     -0.00 -52223.79

     exc-cor stress (kbar)   -481.89     -0.00     -0.00
                               -0.00   -481.89      0.00
                               -0.00      0.00   -528.74

     corecor stress (kbar)   -538.46      0.00      0.00
                                0.00   -538.46     -0.00
                                0.00     -0.00   -526.81

     ewald   stress (kbar)  52949.28     -0.01      0.00
                               -0.01  52949.27     -0.00
                                0.00     -0.00 -60858.93

     hubbard stress (kbar)      0.00      0.00      0.00
                                0.00      0.00      0.00
                                0.00      0.00      0.00

     DFT-D   stress (kbar)      0.00      0.00      0.00
                                0.00      0.00      0.00
                                0.00      0.00      0.00

     XDM     stress (kbar)      0.00      0.00      0.00
                                0.00      0.00      0.00
                                0.00      0.00      0.00

     dft-nl  stress (kbar)      4.38      0.00      0.00
                                0.00      4.38     -0.00
                                0.00     -0.00     27.21

     TS-vdW  stress (kbar)      0.00      0.00      0.00
                                0.00      0.00      0.00
                                0.00      0.00      0.00

     MDB     stress (kbar)      0.00      0.00      0.00
                                0.00      0.00      0.00
                                0.00      0.00      0.00

     3D-RISM stress (kbar)      0.00      0.00      0.00
                                0.00      0.00      0.00
                                0.00      0.00      0.00


     BFGS Geometry Optimization
     Energy error            =      0.0E+00 Ry
     Gradient error          =      7.9E-04 Ry/Bohr
     Cell gradient error     =      1.2E-01 kbar

     bfgs converged in   1 scf cycles and   0 bfgs steps
     (criteria: energy <  1.0E-04 Ry, force <  1.0E-03 Ry/Bohr, cell <  5.0E-01 kbar)

     End of BFGS Geometry Optimization

     Final enthalpy           =     -53.7039468042 Ry
Begin final coordinates
     new unit-cell volume =    741.99280 a.u.^3 (   109.95199 Ang^3 )
     density =      0.72525 g/cm^3

CELL_PARAMETERS (alat=  4.74890000)
   1.000000000   0.000000000   0.000000000
  -0.500000000   0.866025404   0.000000000
   0.000000000   0.000000000   8.000000000

ATOMIC_POSITIONS (crystal)
B             0.0000000000        0.0000000000        0.0000000000
N             0.6666670000        0.3333330000        0.0000000000
N             0.0000000000        0.0000000000        0.1639940000
B             0.6666670000        0.3333330000        0.1639940000
End final coordinates



     Writing config-only to output data dir ./tmp/BN2L_AA1_PBE_vdW.save/

     Final scf calculation at the relaxed structure.
     The G-vectors are recalculated for the final unit cell
     Results may differ from those at the preceding step.

     Parallelization info
     --------------------
     sticks:   dense  smooth     PW     G-vecs:    dense   smooth      PW
     Min          93      93     26                16477    16477    2580
     Max          94      94     27                16516    16516    2611
     Sum         745     745    211               131881   131881   20729

     Using Slab Decomposition



     bravais-lattice index     =            4
     lattice parameter (alat)  =       4.7489  a.u.
     unit-cell volume          =     741.9928 (a.u.)^3
     number of atoms/cell      =            4
     number of atomic types    =            2
     number of electrons       =        16.00
     number of Kohn-Sham states=           12
     kinetic-energy cutoff     =     120.0000  Ry
     charge density cutoff     =     480.0000  Ry
     scf convergence threshold =      1.0E-06
     mixing beta               =       0.7000
     number of iterations used =            8  plain     mixing
     press convergence thresh. =      5.0E-01
     Exchange-correlation= VDW-DF2-B86R
                           (   1   4  26   0   2   0   0)

     celldm(1)=   4.748900  celldm(2)=   0.000000  celldm(3)=   8.000000
     celldm(4)=   0.000000  celldm(5)=   0.000000  celldm(6)=   0.000000

     crystal axes: (cart. coord. in units of alat)
               a(1) = (   1.000000   0.000000   0.000000 )  
               a(2) = (  -0.500000   0.866025   0.000000 )  
               a(3) = (   0.000000   0.000000   8.000000 )  

     reciprocal axes: (cart. coord. in units 2 pi/alat)
               b(1) = (  1.000000  0.577350 -0.000000 )  
               b(2) = (  0.000000  1.154701  0.000000 )  
               b(3) = (  0.000000 -0.000000  0.125000 )  


     PseudoPot. # 1 for B  read from file:
     ../../../../Pseudo/PBE/B.upf
     MD5 check sum: 72f82fc31bc892420d0cab7e25c88ab8
     Pseudo is Norm-conserving + core correction, Zval =  3.0
     Generated using ONCVPSP code by D. R. Hamann
     Using radial grid of 1534 points,  4 beta functions with: 
                l(1) =   0
                l(2) =   0
                l(3) =   1
                l(4) =   1

     PseudoPot. # 2 for N  read from file:
     ../../../../Pseudo/PBE/N.upf
     MD5 check sum: d34365f73bb0e2ee98afc20ec3e87676
     Pseudo is Norm-conserving + core correction, Zval =  5.0
     Generated using ONCVPSP code by D. R. Hamann
     Using radial grid of 1058 points,  4 beta functions with: 
                l(1) =   0
                l(2) =   0
                l(3) =   1
                l(4) =   1

     atomic species   valence    mass     pseudopotential
        B              3.00    10.00000     B ( 1.00)
        N              5.00    14.01100     N ( 1.00)

      6 Sym. Ops. (no inversion) found


                                    s                        frac. trans.

      isym =  1     identity                                     

 cryst.   s( 1) = (     1          0          0      )
                  (     0          1          0      )
                  (     0          0          1      )

 cart.    s( 1) = (  1.0000000  0.0000000  0.0000000 )
                  (  0.0000000  1.0000000  0.0000000 )
                  (  0.0000000  0.0000000  1.0000000 )


      isym =  2     120 deg rotation - cryst. axis [0,0,1]       

 cryst.   s( 2) = (     0          1          0      )
                  (    -1         -1          0      )
                  (     0          0          1      )

 cart.    s( 2) = ( -0.5000000 -0.8660254  0.0000000 )
                  (  0.8660254 -0.5000000  0.0000000 )
                  (  0.0000000  0.0000000  1.0000000 )


      isym =  3     120 deg rotation - cryst. axis [0,0,-1]      

 cryst.   s( 3) = (    -1         -1          0      )
                  (     1          0          0      )
                  (     0          0          1      )

 cart.    s( 3) = ( -0.5000000  0.8660254  0.0000000 )
                  ( -0.8660254 -0.5000000  0.0000000 )
                  (  0.0000000  0.0000000  1.0000000 )


      isym =  4     inv. 180 deg rotation - cart. axis [1,0,0]   

 cryst.   s( 4) = (    -1          0          0      )
                  (     1          1          0      )
                  (     0          0          1      )

 cart.    s( 4) = ( -1.0000000  0.0000000  0.0000000 )
                  (  0.0000000  1.0000000  0.0000000 )
                  (  0.0000000  0.0000000  1.0000000 )


      isym =  5     inv. 180 deg rotation - cryst. axis [0,1,0]  

 cryst.   s( 5) = (     1          1          0      )
                  (     0         -1          0      )
                  (     0          0          1      )

 cart.    s( 5) = (  0.5000000  0.8660254  0.0000000 )
                  (  0.8660254 -0.5000000  0.0000000 )
                  (  0.0000000  0.0000000  1.0000000 )


      isym =  6     inv. 180 deg rotation - cryst. axis [1,1,0]  

 cryst.   s( 6) = (     0         -1          0      )
                  (    -1          0          0      )
                  (     0          0          1      )

 cart.    s( 6) = (  0.5000000 -0.8660254  0.0000000 )
                  ( -0.8660254 -0.5000000  0.0000000 )
                  (  0.0000000  0.0000000  1.0000000 )


     point group C_3v (3m)  
     there are  3 classes
     the character table:

       E     2C3   3s_v 
A_1    1.00  1.00  1.00
A_2    1.00  1.00 -1.00
E      2.00 -1.00  0.00

     the symmetry operations in each class and the name of the first element:

     E        1
          identity                                               
     2C3      2    3
          120 deg rotation - cryst. axis [0,0,1]                 
     3s_v     4    5    6
          inv. 180 deg rotation - cart. axis [1,0,0]             

   Cartesian axes

     site n.     atom                  positions (alat units)
         1           B   tau(   1) = (   0.0000000   0.0000000   0.0000000  )
         2           N   tau(   2) = (   0.5000005   0.2886748   0.0000000  )
         3           N   tau(   3) = (   0.0000000   0.0000000   1.3119520  )
         4           B   tau(   4) = (   0.5000005   0.2886748   1.3119520  )

   Crystallographic axes

     site n.     atom                  positions (cryst. coord.)
         1           B   tau(   1) = (  0.0000000  0.0000000  0.0000000  )
         2           N   tau(   2) = (  0.6666670  0.3333330  0.0000000  )
         3           N   tau(   3) = (  0.0000000  0.0000000  0.1639940  )
         4           B   tau(   4) = (  0.6666670  0.3333330  0.1639940  )

     number of k points=    19  Marzari-Vanderbilt smearing, width (Ry)=  0.0050
                       cart. coord. in units 2pi/alat
        k(    1) = (   0.0000000   0.0000000   0.0000000), wk =   0.0138889
        k(    2) = (   0.0000000   0.0962250   0.0000000), wk =   0.0833333
        k(    3) = (   0.0000000   0.1924501   0.0000000), wk =   0.0833333
        k(    4) = (   0.0000000   0.2886751   0.0000000), wk =   0.0833333
        k(    5) = (   0.0000000   0.3849002   0.0000000), wk =   0.0833333
        k(    6) = (   0.0000000   0.4811252   0.0000000), wk =   0.0833333
        k(    7) = (   0.0000000  -0.5773503   0.0000000), wk =   0.0416667
        k(    8) = (   0.0833333   0.1443376   0.0000000), wk =   0.0833333
        k(    9) = (   0.0833333   0.2405626   0.0000000), wk =   0.1666667
        k(   10) = (   0.0833333   0.3367877   0.0000000), wk =   0.1666667
        k(   11) = (   0.0833333   0.4330127   0.0000000), wk =   0.1666667
        k(   12) = (   0.0833333   0.5292377   0.0000000), wk =   0.1666667
        k(   13) = (   0.1666667   0.2886751   0.0000000), wk =   0.0833333
        k(   14) = (   0.1666667   0.3849002   0.0000000), wk =   0.1666667
        k(   15) = (   0.1666667   0.4811252   0.0000000), wk =   0.1666667
        k(   16) = (   0.1666667   0.5773503   0.0000000), wk =   0.0833333
        k(   17) = (   0.2500000   0.4330127   0.0000000), wk =   0.0833333
        k(   18) = (   0.2500000   0.5292377   0.0000000), wk =   0.1666667
        k(   19) = (   0.3333333   0.5773503   0.0000000), wk =   0.0277778

                       cryst. coord.
        k(    1) = (   0.0000000   0.0000000   0.0000000), wk =   0.0138889
        k(    2) = (   0.0000000   0.0833333   0.0000000), wk =   0.0833333
        k(    3) = (   0.0000000   0.1666667   0.0000000), wk =   0.0833333
        k(    4) = (   0.0000000   0.2500000   0.0000000), wk =   0.0833333
        k(    5) = (   0.0000000   0.3333333   0.0000000), wk =   0.0833333
        k(    6) = (   0.0000000   0.4166667   0.0000000), wk =   0.0833333
        k(    7) = (   0.0000000  -0.5000000   0.0000000), wk =   0.0416667
        k(    8) = (   0.0833333   0.0833333   0.0000000), wk =   0.0833333
        k(    9) = (   0.0833333   0.1666667   0.0000000), wk =   0.1666667
        k(   10) = (   0.0833333   0.2500000   0.0000000), wk =   0.1666667
        k(   11) = (   0.0833333   0.3333333   0.0000000), wk =   0.1666667
        k(   12) = (   0.0833333   0.4166667   0.0000000), wk =   0.1666667
        k(   13) = (   0.1666667   0.1666667   0.0000000), wk =   0.0833333
        k(   14) = (   0.1666667   0.2500000   0.0000000), wk =   0.1666667
        k(   15) = (   0.1666667   0.3333333   0.0000000), wk =   0.1666667
        k(   16) = (   0.1666667   0.4166667   0.0000000), wk =   0.0833333
        k(   17) = (   0.2500000   0.2500000   0.0000000), wk =   0.0833333
        k(   18) = (   0.2500000   0.3333333   0.0000000), wk =   0.1666667
        k(   19) = (   0.3333333   0.3333333   0.0000000), wk =   0.0277778

     Dense  grid:   131881 G-vectors     FFT dimensions: (  36,  36, 270)

     Dynamical RAM for                 wfc:       0.38 MB

     Dynamical RAM for     wfc (w. buffer):       7.54 MB

     Dynamical RAM for           str. fact:       0.50 MB

     Dynamical RAM for           local pot:       0.25 MB

     Dynamical RAM for          nlocal pot:       1.00 MB

     Dynamical RAM for                qrad:       2.01 MB

     Dynamical RAM for          rho,v,vnew:       1.76 MB

     Dynamical RAM for               rhoin:       0.59 MB

     Dynamical RAM for            rho*nmix:       4.02 MB

     Dynamical RAM for           G-vectors:       1.07 MB

     Dynamical RAM for          h,s,v(r/c):       0.03 MB

     Dynamical RAM for          <psi|beta>:       0.01 MB

     Dynamical RAM for                 psi:       0.75 MB

     Dynamical RAM for                hpsi:       0.75 MB

     Dynamical RAM for      wfcinit/wfcrot:       1.01 MB

     Estimated static dynamical RAM per process >      17.16 MB

     Estimated max dynamical RAM per process >      22.72 MB

     Estimated total dynamical RAM >     181.79 MB

     Initial potential from superposition of free atoms

     starting charge      15.9995, renormalised to      16.0000

     negative rho (up, down):  4.029E-06 0.000E+00


     -----------------------------------------------
     Non-local corr. energy    =       0.17483211 Ry
     -----------------------------------------------

     Starting wfcs are   16 randomized atomic wfcs

     total cpu time spent up to now is       37.9 secs

     Self-consistent Calculation

     iteration #  1     ecut=   120.00 Ry     beta= 0.70
     Davidson diagonalization with overlap

---- Real-time Memory Report at c_bands before calling an iterative solver
             0 MiB given to the printing process from OS
             0 MiB allocation reported by mallinfo(arena+hblkhd)
             0 MiB available memory on the node where the printing process lives
------------------
     c_bands:  1 eigenvalues not converged
     c_bands:  3 eigenvalues not converged
     c_bands:  3 eigenvalues not converged
     c_bands:  2 eigenvalues not converged
     c_bands:  2 eigenvalues not converged
     c_bands:  1 eigenvalues not converged
     c_bands:  1 eigenvalues not converged
     c_bands:  2 eigenvalues not converged
     c_bands:  1 eigenvalues not converged
     c_bands:  1 eigenvalues not converged
     c_bands:  2 eigenvalues not converged
     c_bands:  1 eigenvalues not converged
     ethr =  1.00E-06,  avg # of iterations = 18.4

     negative rho (up, down):  1.190E-06 0.000E+00


     -----------------------------------------------
     Non-local corr. energy    =       0.20577096 Ry
     -----------------------------------------------


     total cpu time spent up to now is       44.5 secs

     total energy              =     -53.44602900 Ry
     estimated scf accuracy    <       0.77378495 Ry

     iteration #  2     ecut=   120.00 Ry     beta= 0.70
     Davidson diagonalization with overlap

---- Real-time Memory Report at c_bands before calling an iterative solver
             0 MiB given to the printing process from OS
             0 MiB allocation reported by mallinfo(arena+hblkhd)
             0 MiB available memory on the node where the printing process lives
------------------
     ethr =  4.84E-03,  avg # of iterations =  3.0

     negative rho (up, down):  2.047E-07 0.000E+00


     -----------------------------------------------
     Non-local corr. energy    =       0.19915291 Ry
     -----------------------------------------------


     total cpu time spent up to now is       46.3 secs

     total energy              =     -53.64679590 Ry
     estimated scf accuracy    <       0.31580556 Ry

     iteration #  3     ecut=   120.00 Ry     beta= 0.70
     Davidson diagonalization with overlap

---- Real-time Memory Report at c_bands before calling an iterative solver
             0 MiB given to the printing process from OS
             0 MiB allocation reported by mallinfo(arena+hblkhd)
             0 MiB available memory on the node where the printing process lives
------------------
     ethr =  1.97E-03,  avg # of iterations =  1.8


     -----------------------------------------------
     Non-local corr. energy    =       0.20069860 Ry
     -----------------------------------------------


     total cpu time spent up to now is       48.0 secs

     total energy              =     -53.69914405 Ry
     estimated scf accuracy    <       0.00499448 Ry

     iteration #  4     ecut=   120.00 Ry     beta= 0.70
     Davidson diagonalization with overlap

---- Real-time Memory Report at c_bands before calling an iterative solver
             0 MiB given to the printing process from OS
             0 MiB allocation reported by mallinfo(arena+hblkhd)
             0 MiB available memory on the node where the printing process lives
------------------
     ethr =  3.12E-05,  avg # of iterations =  8.6


     -----------------------------------------------
     Non-local corr. energy    =       0.20097570 Ry
     -----------------------------------------------


     total cpu time spent up to now is       51.1 secs

     total energy              =     -53.70343716 Ry
     estimated scf accuracy    <       0.00577112 Ry

     iteration #  5     ecut=   120.00 Ry     beta= 0.70
     Davidson diagonalization with overlap

---- Real-time Memory Report at c_bands before calling an iterative solver
             0 MiB given to the printing process from OS
             0 MiB allocation reported by mallinfo(arena+hblkhd)
             0 MiB available memory on the node where the printing process lives
------------------
     ethr =  3.12E-05,  avg # of iterations =  2.2


     -----------------------------------------------
     Non-local corr. energy    =       0.20101918 Ry
     -----------------------------------------------


     total cpu time spent up to now is       52.9 secs

     total energy              =     -53.70363401 Ry
     estimated scf accuracy    <       0.00104145 Ry

     iteration #  6     ecut=   120.00 Ry     beta= 0.70
     Davidson diagonalization with overlap

---- Real-time Memory Report at c_bands before calling an iterative solver
             0 MiB given to the printing process from OS
             0 MiB allocation reported by mallinfo(arena+hblkhd)
             0 MiB available memory on the node where the printing process lives
------------------
     ethr =  6.51E-06,  avg # of iterations =  3.1


     -----------------------------------------------
     Non-local corr. energy    =       0.20105827 Ry
     -----------------------------------------------


     total cpu time spent up to now is       54.9 secs

     total energy              =     -53.70394464 Ry
     estimated scf accuracy    <       0.00004146 Ry

     iteration #  7     ecut=   120.00 Ry     beta= 0.70
     Davidson diagonalization with overlap

---- Real-time Memory Report at c_bands before calling an iterative solver
             0 MiB given to the printing process from OS
             0 MiB allocation reported by mallinfo(arena+hblkhd)
             0 MiB available memory on the node where the printing process lives
------------------
     ethr =  2.59E-07,  avg # of iterations =  4.6


     -----------------------------------------------
     Non-local corr. energy    =       0.20106722 Ry
     -----------------------------------------------


     total cpu time spent up to now is       56.9 secs

     total energy              =     -53.70394461 Ry
     estimated scf accuracy    <       0.00001440 Ry

     iteration #  8     ecut=   120.00 Ry     beta= 0.70
     Davidson diagonalization with overlap

---- Real-time Memory Report at c_bands before calling an iterative solver
             0 MiB given to the printing process from OS
             0 MiB allocation reported by mallinfo(arena+hblkhd)
             0 MiB available memory on the node where the printing process lives
------------------
     ethr =  9.00E-08,  avg # of iterations =  2.0


     -----------------------------------------------
     Non-local corr. energy    =       0.20106179 Ry
     -----------------------------------------------


     total cpu time spent up to now is       58.8 secs

     End of self-consistent calculation

          k = 0.0000 0.0000 0.0000 ( 16471 PWs)   bands (ev):

   -20.1491 -19.9882  -8.2563  -7.1392  -3.8843  -3.8842  -3.8638  -3.8637
     2.0314   2.5609   3.7192   4.7580

     occupation numbers 
     1.0000   1.0000   1.0000   1.0000   1.0000   1.0000   1.0000   1.0000
     0.0000   0.0000   0.0000   0.0000

          k = 0.0000 0.0962 0.0000 ( 16513 PWs)   bands (ev):

   -20.0156 -19.8572  -8.0741  -6.9666  -4.4334  -4.4155  -4.1397  -4.1169
     2.2625   2.7731   3.9415   4.9729

     occupation numbers 
     1.0000   1.0000   1.0000   1.0000   1.0000   1.0000   1.0000   1.0000
     0.0000   0.0000   0.0000   0.0000

          k = 0.0000 0.1925 0.0000 ( 16509 PWs)   bands (ev):

   -19.6223 -19.4716  -7.5360  -6.4643  -5.8189  -5.8020  -4.7624  -4.7351
     2.9192   3.3904   4.5967   5.5848

     occupation numbers 
     1.0000   1.0000   1.0000   1.0000   1.0000   1.0000   1.0000   1.0000
     0.0000   0.0000   0.0000   0.0000

          k = 0.0000 0.2887 0.0000 ( 16464 PWs)   bands (ev):

   -18.9962 -18.8591  -7.6026  -7.5733  -6.6522  -5.6366  -5.4853  -5.4541
     3.9559   4.3231   5.5854   5.9109

     occupation numbers 
     1.0000   1.0000   1.0000   1.0000   1.0000   1.0000   1.0000   1.0000
     0.0000   0.0000   0.0000   0.0000

          k = 0.0000 0.3849 0.0000 ( 16436 PWs)   bands (ev):

   -18.2049 -18.0897  -9.3635  -9.3195  -6.1070  -6.0731  -5.5265  -4.6084
     4.2999   4.7293   5.3363   6.3023

     occupation numbers 
     1.0000   1.0000   1.0000   1.0000   1.0000   1.0000   1.0000   1.0000
     0.0000   0.0000   0.0000   0.0000

          k = 0.0000 0.4811 0.0000 ( 16468 PWs)   bands (ev):

   -17.4212 -17.3427 -10.7687 -10.7238  -6.5152  -6.4798  -4.3319  -3.5973
     2.7187   3.3672   6.6766   7.3013

     occupation numbers 
     1.0000   1.0000   1.0000   1.0000   1.0000   1.0000   1.0000   1.0000
     0.0000   0.0000   0.0000   0.0000

          k = 0.0000-0.5774 0.0000 ( 16490 PWs)   bands (ev):

   -17.0421 -17.0029 -11.3447 -11.3090  -6.6565  -6.6206  -3.6917  -3.1419
     1.9559   2.6800   7.1360   7.3985

     occupation numbers 
     1.0000   1.0000   1.0000   1.0000   1.0000   1.0000   1.0000   1.0000
     0.0000   0.0000   0.0000   0.0000

          k = 0.0833 0.1443 0.0000 ( 16511 PWs)   bands (ev):

   -19.7520 -19.5987  -7.7136  -6.6274  -5.3328  -5.3227  -4.6432  -4.6200
     2.7071   3.1887   4.3811   5.4332

     occupation numbers 
     1.0000   1.0000   1.0000   1.0000   1.0000   1.0000   1.0000   1.0000
     0.0000   0.0000   0.0000   0.0000

          k = 0.0833 0.2406 0.0000 ( 16477 PWs)   bands (ev):

   -19.2410 -19.0983  -7.0348  -6.8176  -6.7606  -5.9515  -5.4261  -5.3974
     3.5608   3.9793   5.2402   5.9158

     occupation numbers 
     1.0000   1.0000   1.0000   1.0000   1.0000   1.0000   1.0000   1.0000
     0.0000   0.0000   0.0000   0.0000

          k = 0.0833 0.3368 0.0000 ( 16455 PWs)   bands (ev):

   -18.5261 -18.4007  -8.5173  -8.4828  -6.1715  -6.1392  -5.9864  -5.0253
     4.7267   4.7811   5.3179   6.1724

     occupation numbers 
     1.0000   1.0000   1.0000   1.0000   1.0000   1.0000   1.0000   1.0000
     0.0000   0.0000   0.0000   0.0000

          k = 0.0833 0.4330 0.0000 ( 16469 PWs)   bands (ev):

   -17.7155 -17.6184 -10.0908 -10.0463  -6.7182  -6.6815  -4.7980  -3.9717
     3.4870   3.9956   6.3012   7.1101

     occupation numbers 
     1.0000   1.0000   1.0000   1.0000   1.0000   1.0000   1.0000   1.0000
     0.0000   0.0000   0.0000   0.0000

          k = 0.0833 0.5292 0.0000 ( 16482 PWs)   bands (ev):

   -17.0795 -17.0270 -11.1183 -11.0781  -7.0057  -6.9676  -3.7682  -3.1726
     2.2042   2.8592   7.4950   7.9286

     occupation numbers 
     1.0000   1.0000   1.0000   1.0000   1.0000   1.0000   1.0000   1.0000
     0.0000   0.0000   0.0000   0.0000

          k = 0.1667 0.2887 0.0000 ( 16480 PWs)   bands (ev):

   -18.6373 -18.5085  -8.0068  -8.0008  -6.4384  -6.4039  -6.1445  -5.1690
     4.6078   4.7476   5.5609   6.2794

     occupation numbers 
     1.0000   1.0000   1.0000   1.0000   1.0000   1.0000   1.0000   1.0000
     0.0000   0.0000   0.0000   0.0000

          k = 0.1667 0.3849 0.0000 ( 16434 PWs)   bands (ev):

   -17.8820 -17.7756  -9.3522  -9.3265  -7.2941  -7.2592  -5.0547  -4.1853
     4.1210   4.4384   6.0635   6.8299

     occupation numbers 
     1.0000   1.0000   1.0000   1.0000   1.0000   1.0000   1.0000   1.0000
     0.0000   0.0000   0.0000   0.0000

          k = 0.1667 0.4811 0.0000 ( 16469 PWs)   bands (ev):

   -17.1475 -17.0772 -10.5326 -10.4917  -7.8136  -7.7736  -3.9056  -3.2380
     2.7575   3.2247   7.7372   8.4368

     occupation numbers 
     1.0000   1.0000   1.0000   1.0000   1.0000   1.0000   1.0000   1.0000
     0.0000   0.0000   0.0000   0.0000

          k = 0.1667 0.5774 0.0000 ( 16476 PWs)   bands (ev):

   -16.8001 -16.7663 -11.0322 -10.9893  -7.9849  -7.9429  -3.2879  -2.8311
     2.1125   2.6265   8.8249   9.3215

     occupation numbers 
     1.0000   1.0000   1.0000   1.0000   1.0000   1.0000   1.0000   1.0000
     0.0000   0.0000   0.0000   0.0000

          k = 0.2500 0.4330 0.0000 ( 16436 PWs)   bands (ev):

   -17.1793 -17.1022 -10.0668 -10.0481  -8.3652  -8.3368  -3.9684  -3.2715
     3.0837   3.4029   7.6738   8.3013

     occupation numbers 
     1.0000   1.0000   1.0000   1.0000   1.0000   1.0000   1.0000   1.0000
     0.0000   0.0000   0.0000   0.0000

          k = 0.2500 0.5292 0.0000 ( 16475 PWs)   bands (ev):

   -16.6596 -16.6235 -10.5888 -10.5380  -8.9714  -8.9384  -3.0446  -2.6458
     2.2992   2.5900   9.2557   9.4443

     occupation numbers 
     1.0000   1.0000   1.0000   1.0000   1.0000   1.0000   1.0000   1.0000
     0.0000   0.0000   0.0000   0.0000

          k = 0.3333 0.5774 0.0000 ( 16482 PWs)   bands (ev):

   -16.4516 -16.4514 -10.3901 -10.3021  -9.6332  -9.6331  -2.5366  -2.5364
     2.2363   2.2363   8.7734  10.7010

     occupation numbers 
     1.0000   1.0000   1.0000   1.0000   1.0000   1.0000   1.0000   1.0000
     0.0000   0.0000   0.0000   0.0000

     the Fermi energy is    -0.6977 ev

!    total energy              =     -53.70394647 Ry
     estimated scf accuracy    <       0.00000037 Ry
     smearing contrib. (-TS)   =       0.00000000 Ry
     internal energy E=F+TS    =     -53.70394647 Ry

     The total energy is F=E-TS. E is the sum of the following terms:
     one-electron contribution =    -535.32151672 Ry
     hartree contribution      =     271.81553984 Ry
     xc contribution           =     -17.37615161 Ry
     ewald contribution        =     227.17818202 Ry

     convergence has been achieved in   8 iterations


     -----------------------------------------------
     Non-local corr. energy    =       0.20106179 Ry
     -----------------------------------------------


     Forces acting on atoms (cartesian axes, Ry/au):

     atom    1 type  1   force =     0.00000000    0.00000000    0.00077224
     atom    2 type  2   force =     0.00000000    0.00000000   -0.00077497
     atom    3 type  2   force =     0.00000000    0.00000000    0.00077878
     atom    4 type  1   force =     0.00000000    0.00000000   -0.00077604
     The non-local contrib.  to forces
     atom    1 type  1   force =     0.00000000   -0.00000000    0.00017333
     atom    2 type  2   force =     0.00000000    0.00000000   -0.00168643
     atom    3 type  2   force =    -0.00000000   -0.00000000    0.00170623
     atom    4 type  1   force =     0.00000000    0.00000000   -0.00018117
     The ionic contribution  to forces
     atom    1 type  1   force =     0.00000770   -0.00000445  -10.38021550
     atom    2 type  2   force =    -0.00000771    0.00000445  -17.29610369
     atom    3 type  2   force =     0.00000771   -0.00000445   17.29610369
     atom    4 type  1   force =    -0.00000770    0.00000445   10.38021550
     The local contribution  to forces
     atom    1 type  1   force =    -0.00000000    0.00000000   10.38106352
     atom    2 type  2   force =    -0.00003356    0.00001938   17.29737876
     atom    3 type  2   force =     0.00000000    0.00000000  -17.29732157
     atom    4 type  1   force =     0.00000417   -0.00000241  -10.38102735
     The core correction contribution to forces
     atom    1 type  1   force =     0.00000000   -0.00000000   -0.00004935
     atom    2 type  2   force =     0.00000139   -0.00000080    0.00008141
     atom    3 type  2   force =     0.00000000   -0.00000000   -0.00008200
     atom    4 type  1   force =     0.00000025   -0.00000015    0.00004981
     The Hubbard contrib.    to forces
     atom    1 type  1   force =     0.00000000    0.00000000    0.00000000
     atom    2 type  2   force =     0.00000000    0.00000000    0.00000000
     atom    3 type  2   force =     0.00000000    0.00000000    0.00000000
     atom    4 type  1   force =     0.00000000    0.00000000    0.00000000
     The SCF correction term to forces
     atom    1 type  1   force =     0.00000000   -0.00000000   -0.00019846
     atom    2 type  2   force =    -0.00000000    0.00000000   -0.00044373
     atom    3 type  2   force =     0.00000000   -0.00000000    0.00037372
     atom    4 type  1   force =     0.00000000   -0.00000000    0.00016847

     Total force =     0.001551     Total SCF correction =     0.000636
     SCF correction compared to forces is large: reduce conv_thr to get better values


     Computing stress (Cartesian axis) and pressure



     -----------------------------------------------
     Non-local corr. energy    =       0.20106179 Ry
     -----------------------------------------------

          total   stress  (Ry/bohr**3)                   (kbar)     P=       -0.37
  -0.00000287   0.00000000   0.00000000           -0.42        0.00        0.00
   0.00000000  -0.00000287   0.00000000            0.00       -0.42        0.00
   0.00000000   0.00000000  -0.00000177            0.00        0.00       -0.26

     kinetic stress (kbar)   4793.51      0.00      0.00
                                0.00   4793.51      0.00
                                0.00      0.00   5218.86

     local   stress (kbar)-108994.05      0.00     -0.00
                                0.00-108994.04      0.00
                               -0.00      0.00 109656.09

     nonloc. stress (kbar)   -789.89      0.00     -0.00
                                0.00   -789.89      0.00
                               -0.00      0.00   -763.97

     hartree stress (kbar)  53056.64     -0.00      0.00
                               -0.00  53056.64     -0.00
                                0.00     -0.00 -52224.02

     exc-cor stress (kbar)   -481.84     -0.00     -0.00
                               -0.00   -481.84      0.00
                               -0.00      0.00   -528.69

     corecor stress (kbar)   -538.44      0.00      0.00
                                0.00   -538.44     -0.00
                                0.00     -0.00   -526.80

     ewald   stress (kbar)  52949.28     -0.01      0.00
                               -0.01  52949.27     -0.00
                                0.00     -0.00 -60858.93

     hubbard stress (kbar)      0.00      0.00      0.00
                                0.00      0.00      0.00
                                0.00      0.00      0.00

     DFT-D   stress (kbar)      0.00      0.00      0.00
                                0.00      0.00      0.00
                                0.00      0.00      0.00

     XDM     stress (kbar)      0.00      0.00      0.00
                                0.00      0.00      0.00
                                0.00      0.00      0.00

     dft-nl  stress (kbar)      4.38      0.00      0.00
                                0.00      4.38     -0.00
                                0.00     -0.00     27.21

     TS-vdW  stress (kbar)      0.00      0.00      0.00
                                0.00      0.00      0.00
                                0.00      0.00      0.00

     MDB     stress (kbar)      0.00      0.00      0.00
                                0.00      0.00      0.00
                                0.00      0.00      0.00

     3D-RISM stress (kbar)      0.00      0.00      0.00
                                0.00      0.00      0.00
                                0.00      0.00      0.00


     Writing all to output data dir ./tmp/BN2L_AA1_PBE_vdW.save/

     init_run     :     14.51s CPU     14.82s WALL (       2 calls)
     electrons    :     39.08s CPU     39.35s WALL (       2 calls)
     forces       :      2.45s CPU      2.57s WALL (       2 calls)
     stress       :      6.42s CPU      7.01s WALL (       2 calls)

     Called by init_run:
     wfcinit      :      1.16s CPU      1.19s WALL (       2 calls)
     wfcinit:atom :      0.03s CPU      0.03s WALL (      38 calls)
     wfcinit:wfcr :      1.04s CPU      1.06s WALL (      38 calls)
     potinit      :     10.97s CPU     11.19s WALL (       2 calls)
     hinit0       :      1.88s CPU      1.91s WALL (       2 calls)

     Called by electrons:
     c_bands      :     31.35s CPU     30.81s WALL (      17 calls)
     sum_band     :      3.63s CPU      3.79s WALL (      17 calls)
     v_of_rho     :     14.07s CPU     14.83s WALL (      19 calls)
     v_h          :      0.05s CPU      0.06s WALL (      19 calls)
     v_xc         :     14.90s CPU     15.78s WALL (      23 calls)
     mix_rho      :      0.14s CPU      0.21s WALL (      17 calls)
     vdW_kernel   :      9.72s CPU      9.88s WALL (       1 calls)

     Called by c_bands:
     init_us_2    :      0.66s CPU      0.68s WALL (     760 calls)
     init_us_2:cp :      0.66s CPU      0.68s WALL (     760 calls)
     cegterg      :     30.44s CPU     29.85s WALL (     323 calls)

     Called by sum_band:
     sum_band:wei :      0.00s CPU      0.00s WALL (      17 calls)
     sum_band:loo :      3.53s CPU      3.69s WALL (      17 calls)
     sum_band:buf :      0.10s CPU      0.10s WALL (     323 calls)
     sum_band:ini :      0.30s CPU      0.31s WALL (     323 calls)

     Called by *egterg:
     cdiaghg      :      0.43s CPU      0.45s WALL (    1905 calls)
     cegterg:over :      1.72s CPU      1.79s WALL (    1582 calls)
     cegterg:upda :      1.25s CPU      1.01s WALL (    1582 calls)
     cegterg:last :      1.93s CPU      1.35s WALL (    1005 calls)
     h_psi        :     25.21s CPU     25.27s WALL (    1943 calls)
     g_psi        :      0.14s CPU      0.17s WALL (    1582 calls)

     Called by h_psi:
     h_psi:calbec :      2.02s CPU      1.94s WALL (    1943 calls)
     vloc_psi     :     20.59s CPU     21.52s WALL (    1943 calls)
     add_vuspsi   :      2.36s CPU      1.55s WALL (    1943 calls)

     General routines
     calbec       :      2.32s CPU      2.24s WALL (    2133 calls)
     fft          :      2.55s CPU      2.68s WALL (    1476 calls)
     ffts         :      0.02s CPU      0.02s WALL (      17 calls)
     fftw         :     19.16s CPU     19.99s WALL (   32334 calls)

     Parallel routines

     PWSCF        :   1m 2.61s CPU   1m 3.97s WALL


   This run was terminated on:  15:33: 0  17Apr2024            

=------------------------------------------------------------------------------=
   JOB DONE.
=------------------------------------------------------------------------------=
