
     Program PWSCF v.7.2 starts on  8Apr2024 at 11:47:53 

     This program is part of the open-source Quantum ESPRESSO suite
     for quantum simulation of materials; please cite
         "P. Giannozzi et al., J. Phys.:Condens. Matter 21 395502 (2009);
         "P. Giannozzi et al., J. Phys.:Condens. Matter 29 465901 (2017);
         "P. Giannozzi et al., J. Chem. Phys. 152 154105 (2020);
          URL http://www.quantum-espresso.org", 
     in publications or presentations arising from this work. More details at
     http://www.quantum-espresso.org/quote

     Parallel version (MPI), running on    14 processors

     MPI processes distributed on     1 nodes
     250334 MiB available memory on the printing compute node when the environment starts
 
     Waiting for input...
     Reading input from standard input

     Current dimensions of program PWSCF are:
     Max number of different atomic species (ntypx) = 10
     Max number of k-points (npk) =  40000
     Max angular momentum in pseudopotentials (lmaxx) =  4
 
     K-points division:     npool     =       2
     R & G space division:  proc/nbgrp/npool/nimage =       7
     Subspace diagonalization in iterative solution of the eigenvalue problem:
     a serial algorithm will be used

 
     Parallelization info
     --------------------
     sticks:   dense  smooth     PW     G-vecs:    dense   smooth      PW
     Min          67      67     21                 7139     7139    1195
     Max          68      68     22                 7154     7154    1206
     Sum         475     475    151                50025    50025    8409
 
     Using Slab Decomposition
 


     bravais-lattice index     =            4
     lattice parameter (alat)  =       4.6350  a.u.
     unit-cell volume          =     517.4056 (a.u.)^3
     number of atoms/cell      =            4
     number of atomic types    =            2
     number of electrons       =        16.00
     number of Kohn-Sham states=            8
     kinetic-energy cutoff     =      80.0000  Ry
     charge density cutoff     =     320.0000  Ry
     scf convergence threshold =      1.0E-06
     mixing beta               =       0.7000
     number of iterations used =            8  plain     mixing
     energy convergence thresh.=      1.0E-04
     force convergence thresh. =      1.0E-03
     press convergence thresh. =      5.0E-01
     Exchange-correlation= PBE
                           (   1   4   3   4   0   0   0)
     nstep                     =           50


     celldm(1)=   4.635000  celldm(2)=   0.000000  celldm(3)=   6.000000
     celldm(4)=   0.000000  celldm(5)=   0.000000  celldm(6)=   0.000000

     crystal axes: (cart. coord. in units of alat)
               a(1) = (   1.000000   0.000000   0.000000 )  
               a(2) = (  -0.500000   0.866025   0.000000 )  
               a(3) = (   0.000000   0.000000   6.000000 )  

     reciprocal axes: (cart. coord. in units 2 pi/alat)
               b(1) = (  1.000000  0.577350  0.000000 )  
               b(2) = (  0.000000  1.154701  0.000000 )  
               b(3) = (  0.000000  0.000000  0.166667 )  


     PseudoPot. # 1 for N  read from file:
     ../../../../Pseudo/PBE/N.upf
     MD5 check sum: d34365f73bb0e2ee98afc20ec3e87676
     Pseudo is Norm-conserving + core correction, Zval =  5.0
     Generated using ONCVPSP code by D. R. Hamann
     Using radial grid of 1058 points,  4 beta functions with: 
                l(1) =   0
                l(2) =   0
                l(3) =   1
                l(4) =   1

     PseudoPot. # 2 for B  read from file:
     ../../../../Pseudo/PBE/B.upf
     MD5 check sum: 72f82fc31bc892420d0cab7e25c88ab8
     Pseudo is Norm-conserving + core correction, Zval =  3.0
     Generated using ONCVPSP code by D. R. Hamann
     Using radial grid of 1534 points,  4 beta functions with: 
                l(1) =   0
                l(2) =   0
                l(3) =   1
                l(4) =   1

     atomic species   valence    mass     pseudopotential
        N              5.00    14.00670     N ( 1.00)
        B              3.00    10.80100     B ( 1.00)

     12 Sym. Ops. (no inversion) found ( 6 have fractional translation)


                                    s                        frac. trans.

      isym =  1     identity                                     

 cryst.   s( 1) = (     1          0          0      )
                  (     0          1          0      )
                  (     0          0          1      )

 cart.    s( 1) = (  1.0000000  0.0000000  0.0000000 )
                  (  0.0000000  1.0000000  0.0000000 )
                  (  0.0000000  0.0000000  1.0000000 )


      isym =  2     180 deg rotation - cart. axis [0,1,0]        

 cryst.   s( 2) = (    -1          0          0      )    f =(  0.0000000 )
                  (     1          1          0      )       (  0.0000000 )
                  (     0          0         -1      )       ( -0.2500000 )

 cart.    s( 2) = ( -1.0000000  0.0000000  0.0000000 )    f =(  0.0000000 )
                  (  0.0000000  1.0000000  0.0000000 )       (  0.0000000 )
                  (  0.0000000  0.0000000 -1.0000000 )       ( -1.5000000 )


      isym =  3     120 deg rotation - cryst. axis [0,0,1]       

 cryst.   s( 3) = (     0          1          0      )
                  (    -1         -1          0      )
                  (     0          0          1      )

 cart.    s( 3) = ( -0.5000000 -0.8660254  0.0000000 )
                  (  0.8660254 -0.5000000  0.0000000 )
                  (  0.0000000  0.0000000  1.0000000 )


      isym =  4     120 deg rotation - cryst. axis [0,0,-1]      

 cryst.   s( 4) = (    -1         -1          0      )
                  (     1          0          0      )
                  (     0          0          1      )

 cart.    s( 4) = ( -0.5000000  0.8660254  0.0000000 )
                  ( -0.8660254 -0.5000000  0.0000000 )
                  (  0.0000000  0.0000000  1.0000000 )


      isym =  5     180 deg rotation - cryst. axis [1,-1,0]      

 cryst.   s( 5) = (     0         -1          0      )    f =(  0.0000000 )
                  (    -1          0          0      )       (  0.0000000 )
                  (     0          0         -1      )       ( -0.2500000 )

 cart.    s( 5) = (  0.5000000 -0.8660254  0.0000000 )    f =(  0.0000000 )
                  ( -0.8660254 -0.5000000  0.0000000 )       (  0.0000000 )
                  (  0.0000000  0.0000000 -1.0000000 )       ( -1.5000000 )


      isym =  6     180 deg rotation - cryst. axis [2,1,0]       

 cryst.   s( 6) = (     1          1          0      )    f =(  0.0000000 )
                  (     0         -1          0      )       (  0.0000000 )
                  (     0          0         -1      )       ( -0.2500000 )

 cart.    s( 6) = (  0.5000000  0.8660254  0.0000000 )    f =(  0.0000000 )
                  (  0.8660254 -0.5000000  0.0000000 )       (  0.0000000 )
                  (  0.0000000  0.0000000 -1.0000000 )       ( -1.5000000 )


      isym =  7     inv. 180 deg rotation - cart. axis [0,0,1]   

 cryst.   s( 7) = (     1          0          0      )    f =(  0.0000000 )
                  (     0          1          0      )       (  0.0000000 )
                  (     0          0         -1      )       ( -0.2500000 )

 cart.    s( 7) = (  1.0000000  0.0000000  0.0000000 )    f =(  0.0000000 )
                  (  0.0000000  1.0000000  0.0000000 )       (  0.0000000 )
                  (  0.0000000  0.0000000 -1.0000000 )       ( -1.5000000 )


      isym =  8     inv. 180 deg rotation - cart. axis [1,0,0]   

 cryst.   s( 8) = (    -1          0          0      )
                  (     1          1          0      )
                  (     0          0          1      )

 cart.    s( 8) = ( -1.0000000  0.0000000  0.0000000 )
                  (  0.0000000  1.0000000  0.0000000 )
                  (  0.0000000  0.0000000  1.0000000 )


      isym =  9     inv.  60 deg rotation - cryst. axis [0,0,1]  

 cryst.   s( 9) = (    -1         -1          0      )    f =(  0.0000000 )
                  (     1          0          0      )       (  0.0000000 )
                  (     0          0         -1      )       ( -0.2500000 )

 cart.    s( 9) = ( -0.5000000  0.8660254  0.0000000 )    f =(  0.0000000 )
                  ( -0.8660254 -0.5000000  0.0000000 )       (  0.0000000 )
                  (  0.0000000  0.0000000 -1.0000000 )       ( -1.5000000 )


      isym = 10     inv.  60 deg rotation - cryst. axis [0,0,-1] 

 cryst.   s(10) = (     0          1          0      )    f =(  0.0000000 )
                  (    -1         -1          0      )       (  0.0000000 )
                  (     0          0         -1      )       ( -0.2500000 )

 cart.    s(10) = ( -0.5000000 -0.8660254  0.0000000 )    f =(  0.0000000 )
                  (  0.8660254 -0.5000000  0.0000000 )       (  0.0000000 )
                  (  0.0000000  0.0000000 -1.0000000 )       ( -1.5000000 )


      isym = 11     inv. 180 deg rotation - cryst. axis [0,1,0]  

 cryst.   s(11) = (     1          1          0      )
                  (     0         -1          0      )
                  (     0          0          1      )

 cart.    s(11) = (  0.5000000  0.8660254  0.0000000 )
                  (  0.8660254 -0.5000000  0.0000000 )
                  (  0.0000000  0.0000000  1.0000000 )


      isym = 12     inv. 180 deg rotation - cryst. axis [1,1,0]  

 cryst.   s(12) = (     0         -1          0      )
                  (    -1          0          0      )
                  (     0          0          1      )

 cart.    s(12) = (  0.5000000 -0.8660254  0.0000000 )
                  ( -0.8660254 -0.5000000  0.0000000 )
                  (  0.0000000  0.0000000  1.0000000 )


     point group D_3h (-62m)
     there are  6 classes
     the character table:

       E     2C3   3C2   s_h   2S3   3s_v 
A'_1   1.00  1.00  1.00  1.00  1.00  1.00
A'_2   1.00  1.00 -1.00  1.00  1.00 -1.00
E'     2.00 -1.00  0.00  2.00 -1.00  0.00
A''1   1.00  1.00  1.00 -1.00 -1.00 -1.00
A''2   1.00  1.00 -1.00 -1.00 -1.00  1.00
E''    2.00 -1.00  0.00 -2.00  1.00  0.00

     the symmetry operations in each class and the name of the first element:

     E        1
          identity                                               
     2C3      3    4
          120 deg rotation - cryst. axis [0,0,1]                 
     3C2      2    6    5
          180 deg rotation - cart. axis [0,1,0]                  
     s_h      7
          inv. 180 deg rotation - cart. axis [0,0,1]             
     2S3      9   10
          inv.  60 deg rotation - cryst. axis [0,0,1]            
     3s_v     8   11   12
          inv. 180 deg rotation - cart. axis [1,0,0]             

   Cartesian axes

     site n.     atom                  positions (alat units)
         1           N   tau(   1) = (   0.0000000   0.0000000   0.0000000  )
         2           B   tau(   2) = (  -0.0000000   0.5773503   0.0000000  )
         3           N   tau(   3) = (   0.0000000   0.0000000   1.5000000  )
         4           B   tau(   4) = (  -0.0000000   0.5773503   1.5000000  )

   Crystallographic axes

     site n.     atom                  positions (cryst. coord.)
         1           N   tau(   1) = (  0.0000000  0.0000000  0.0000000  )
         2           B   tau(   2) = (  0.3333333  0.6666667  0.0000000  )
         3           N   tau(   3) = (  0.0000000  0.0000000  0.2500000  )
         4           B   tau(   4) = (  0.3333333  0.6666667  0.2500000  )

     number of k points=    19  Marzari-Vanderbilt smearing, width (Ry)=  0.0100
                       cart. coord. in units 2pi/alat
        k(    1) = (   0.0000000   0.0000000   0.0000000), wk =   0.0138889
        k(    2) = (   0.0000000   0.0962250   0.0000000), wk =   0.0833333
        k(    3) = (   0.0000000   0.1924501   0.0000000), wk =   0.0833333
        k(    4) = (   0.0000000   0.2886751   0.0000000), wk =   0.0833333
        k(    5) = (   0.0000000   0.3849002   0.0000000), wk =   0.0833333
        k(    6) = (   0.0000000   0.4811252   0.0000000), wk =   0.0833333
        k(    7) = (   0.0000000  -0.5773503   0.0000000), wk =   0.0416667
        k(    8) = (   0.0833333   0.1443376   0.0000000), wk =   0.0833333
        k(    9) = (   0.0833333   0.2405626   0.0000000), wk =   0.1666667
        k(   10) = (   0.0833333   0.3367877   0.0000000), wk =   0.1666667
        k(   11) = (   0.0833333   0.4330127   0.0000000), wk =   0.1666667
        k(   12) = (   0.0833333   0.5292377   0.0000000), wk =   0.1666667
        k(   13) = (   0.1666667   0.2886751   0.0000000), wk =   0.0833333
        k(   14) = (   0.1666667   0.3849002   0.0000000), wk =   0.1666667
        k(   15) = (   0.1666667   0.4811252   0.0000000), wk =   0.1666667
        k(   16) = (   0.1666667   0.5773503   0.0000000), wk =   0.0833333
        k(   17) = (   0.2500000   0.4330127   0.0000000), wk =   0.0833333
        k(   18) = (   0.2500000   0.5292377   0.0000000), wk =   0.1666667
        k(   19) = (   0.3333333   0.5773503   0.0000000), wk =   0.0277778

                       cryst. coord.
        k(    1) = (   0.0000000   0.0000000   0.0000000), wk =   0.0138889
        k(    2) = (   0.0000000   0.0833333   0.0000000), wk =   0.0833333
        k(    3) = (   0.0000000   0.1666667   0.0000000), wk =   0.0833333
        k(    4) = (   0.0000000   0.2500000   0.0000000), wk =   0.0833333
        k(    5) = (   0.0000000   0.3333333   0.0000000), wk =   0.0833333
        k(    6) = (   0.0000000   0.4166667   0.0000000), wk =   0.0833333
        k(    7) = (   0.0000000  -0.5000000   0.0000000), wk =   0.0416667
        k(    8) = (   0.0833333   0.0833333   0.0000000), wk =   0.0833333
        k(    9) = (   0.0833333   0.1666667   0.0000000), wk =   0.1666667
        k(   10) = (   0.0833333   0.2500000   0.0000000), wk =   0.1666667
        k(   11) = (   0.0833333   0.3333333   0.0000000), wk =   0.1666667
        k(   12) = (   0.0833333   0.4166667   0.0000000), wk =   0.1666667
        k(   13) = (   0.1666667   0.1666667   0.0000000), wk =   0.0833333
        k(   14) = (   0.1666667   0.2500000   0.0000000), wk =   0.1666667
        k(   15) = (   0.1666667   0.3333333   0.0000000), wk =   0.1666667
        k(   16) = (   0.1666667   0.4166667   0.0000000), wk =   0.0833333
        k(   17) = (   0.2500000   0.2500000   0.0000000), wk =   0.0833333
        k(   18) = (   0.2500000   0.3333333   0.0000000), wk =   0.1666667
        k(   19) = (   0.3333333   0.3333333   0.0000000), wk =   0.0277778

     Dense  grid:    50025 G-vectors     FFT dimensions: (  27,  27, 160)

     Dynamical RAM for                 wfc:       0.11 MB

     Dynamical RAM for     wfc (w. buffer):       1.20 MB

     Dynamical RAM for           str. fact:       0.22 MB

     Dynamical RAM for           local pot:       0.00 MB

     Dynamical RAM for          nlocal pot:       0.44 MB

     Dynamical RAM for                qrad:       1.64 MB

     Dynamical RAM for          rho,v,vnew:       0.71 MB

     Dynamical RAM for               rhoin:       0.24 MB

     Dynamical RAM for            rho*nmix:       1.75 MB

     Dynamical RAM for           G-vectors:       0.46 MB

     Dynamical RAM for          h,s,v(r/c):       0.01 MB

     Dynamical RAM for          <psi|beta>:       0.00 MB

     Dynamical RAM for                 psi:       0.22 MB

     Dynamical RAM for                hpsi:       0.22 MB

     Dynamical RAM for      wfcinit/wfcrot:       0.44 MB

     Estimated static dynamical RAM per process >       5.87 MB

     Estimated max dynamical RAM per process >       8.07 MB

     Estimated total dynamical RAM >     100.78 MB

     Initial potential from superposition of free atoms

     starting charge      15.9995, renormalised to      16.0000

     negative rho (up, down):  4.421E-06 0.000E+00
     Starting wfcs are   16 randomized atomic wfcs

     total cpu time spent up to now is        1.0 secs

     Self-consistent Calculation

     iteration #  1     ecut=    80.00 Ry     beta= 0.70
     Davidson diagonalization with overlap

---- Real-time Memory Report at c_bands before calling an iterative solver
           132 MiB given to the printing process from OS
             0 MiB allocation reported by mallinfo(arena+hblkhd)
        250085 MiB available memory on the node where the printing process lives
------------------
     ethr =  1.00E-02,  avg # of iterations =  2.0

     total cpu time spent up to now is        1.5 secs

     total energy              =     -53.33507426 Ry
     estimated scf accuracy    <       0.85404773 Ry

     iteration #  2     ecut=    80.00 Ry     beta= 0.70
     Davidson diagonalization with overlap

---- Real-time Memory Report at c_bands before calling an iterative solver
           135 MiB given to the printing process from OS
             0 MiB allocation reported by mallinfo(arena+hblkhd)
        250049 MiB available memory on the node where the printing process lives
------------------
     ethr =  5.34E-03,  avg # of iterations =  2.8

     total cpu time spent up to now is        1.8 secs

     total energy              =     -53.59643228 Ry
     estimated scf accuracy    <       0.23867886 Ry

     iteration #  3     ecut=    80.00 Ry     beta= 0.70
     Davidson diagonalization with overlap

---- Real-time Memory Report at c_bands before calling an iterative solver
           136 MiB given to the printing process from OS
             0 MiB allocation reported by mallinfo(arena+hblkhd)
        250047 MiB available memory on the node where the printing process lives
------------------
     ethr =  1.49E-03,  avg # of iterations =  2.0

     total cpu time spent up to now is        2.1 secs

     total energy              =     -53.60603049 Ry
     estimated scf accuracy    <       0.02015321 Ry

     iteration #  4     ecut=    80.00 Ry     beta= 0.70
     Davidson diagonalization with overlap

---- Real-time Memory Report at c_bands before calling an iterative solver
           136 MiB given to the printing process from OS
             0 MiB allocation reported by mallinfo(arena+hblkhd)
        250045 MiB available memory on the node where the printing process lives
------------------
     ethr =  1.26E-04,  avg # of iterations =  4.8

     total cpu time spent up to now is        2.5 secs

     total energy              =     -53.62327290 Ry
     estimated scf accuracy    <       0.04647033 Ry

     iteration #  5     ecut=    80.00 Ry     beta= 0.70
     Davidson diagonalization with overlap

---- Real-time Memory Report at c_bands before calling an iterative solver
           136 MiB given to the printing process from OS
             0 MiB allocation reported by mallinfo(arena+hblkhd)
        250040 MiB available memory on the node where the printing process lives
------------------
     ethr =  1.26E-04,  avg # of iterations =  1.9

     total cpu time spent up to now is        2.8 secs

     total energy              =     -53.62498569 Ry
     estimated scf accuracy    <       0.01387338 Ry

     iteration #  6     ecut=    80.00 Ry     beta= 0.70
     Davidson diagonalization with overlap

---- Real-time Memory Report at c_bands before calling an iterative solver
           136 MiB given to the printing process from OS
             0 MiB allocation reported by mallinfo(arena+hblkhd)
        250038 MiB available memory on the node where the printing process lives
------------------
     ethr =  8.67E-05,  avg # of iterations =  1.0

     negative rho (up, down):  9.785E-07 0.000E+00

     total cpu time spent up to now is        3.0 secs

     total energy              =     -53.62365493 Ry
     estimated scf accuracy    <       0.01197360 Ry

     iteration #  7     ecut=    80.00 Ry     beta= 0.70
     Davidson diagonalization with overlap

---- Real-time Memory Report at c_bands before calling an iterative solver
           137 MiB given to the printing process from OS
             0 MiB allocation reported by mallinfo(arena+hblkhd)
        250037 MiB available memory on the node where the printing process lives
------------------
     ethr =  7.48E-05,  avg # of iterations =  1.0

     negative rho (up, down):  8.522E-06 0.000E+00

     total cpu time spent up to now is        3.3 secs

     total energy              =     -53.62141927 Ry
     estimated scf accuracy    <       0.00698884 Ry

     iteration #  8     ecut=    80.00 Ry     beta= 0.70
     Davidson diagonalization with overlap

---- Real-time Memory Report at c_bands before calling an iterative solver
           137 MiB given to the printing process from OS
             0 MiB allocation reported by mallinfo(arena+hblkhd)
        250035 MiB available memory on the node where the printing process lives
------------------
     ethr =  4.37E-05,  avg # of iterations =  1.9

     negative rho (up, down):  6.236E-06 0.000E+00

     total cpu time spent up to now is        3.6 secs

     total energy              =     -53.62225661 Ry
     estimated scf accuracy    <       0.00099065 Ry

     iteration #  9     ecut=    80.00 Ry     beta= 0.70
     Davidson diagonalization with overlap

---- Real-time Memory Report at c_bands before calling an iterative solver
           137 MiB given to the printing process from OS
             0 MiB allocation reported by mallinfo(arena+hblkhd)
        250034 MiB available memory on the node where the printing process lives
------------------
     ethr =  6.19E-06,  avg # of iterations =  4.0

     negative rho (up, down):  4.625E-06 0.000E+00

     total cpu time spent up to now is        3.9 secs

     total energy              =     -53.62260910 Ry
     estimated scf accuracy    <       0.00021162 Ry

     iteration # 10     ecut=    80.00 Ry     beta= 0.70
     Davidson diagonalization with overlap

---- Real-time Memory Report at c_bands before calling an iterative solver
           137 MiB given to the printing process from OS
             0 MiB allocation reported by mallinfo(arena+hblkhd)
        250033 MiB available memory on the node where the printing process lives
------------------
     ethr =  1.32E-06,  avg # of iterations =  1.4

     negative rho (up, down):  4.998E-06 0.000E+00

     total cpu time spent up to now is        4.2 secs

     total energy              =     -53.62262090 Ry
     estimated scf accuracy    <       0.00028445 Ry

     iteration # 11     ecut=    80.00 Ry     beta= 0.70
     Davidson diagonalization with overlap

---- Real-time Memory Report at c_bands before calling an iterative solver
           137 MiB given to the printing process from OS
             0 MiB allocation reported by mallinfo(arena+hblkhd)
        250033 MiB available memory on the node where the printing process lives
------------------
     ethr =  1.32E-06,  avg # of iterations =  1.0

     negative rho (up, down):  2.860E-06 0.000E+00

     total cpu time spent up to now is        4.4 secs

     total energy              =     -53.62257645 Ry
     estimated scf accuracy    <       0.00028986 Ry

     iteration # 12     ecut=    80.00 Ry     beta= 0.70
     Davidson diagonalization with overlap

---- Real-time Memory Report at c_bands before calling an iterative solver
           137 MiB given to the printing process from OS
             0 MiB allocation reported by mallinfo(arena+hblkhd)
        250033 MiB available memory on the node where the printing process lives
------------------
     ethr =  1.32E-06,  avg # of iterations =  1.0

     negative rho (up, down):  1.359E-08 0.000E+00

     total cpu time spent up to now is        4.6 secs

     total energy              =     -53.62252350 Ry
     estimated scf accuracy    <       0.00016454 Ry

     iteration # 13     ecut=    80.00 Ry     beta= 0.70
     Davidson diagonalization with overlap

---- Real-time Memory Report at c_bands before calling an iterative solver
           137 MiB given to the printing process from OS
             0 MiB allocation reported by mallinfo(arena+hblkhd)
        250032 MiB available memory on the node where the printing process lives
------------------
     ethr =  1.03E-06,  avg # of iterations =  1.9

     negative rho (up, down):  1.398E-07 0.000E+00

     total cpu time spent up to now is        4.9 secs

     total energy              =     -53.62254617 Ry
     estimated scf accuracy    <       0.00001987 Ry

     iteration # 14     ecut=    80.00 Ry     beta= 0.70
     Davidson diagonalization with overlap

---- Real-time Memory Report at c_bands before calling an iterative solver
           137 MiB given to the printing process from OS
             0 MiB allocation reported by mallinfo(arena+hblkhd)
        250032 MiB available memory on the node where the printing process lives
------------------
     ethr =  1.24E-07,  avg # of iterations =  1.5

     total cpu time spent up to now is        5.1 secs

     total energy              =     -53.62253981 Ry
     estimated scf accuracy    <       0.00002884 Ry

     iteration # 15     ecut=    80.00 Ry     beta= 0.70
     Davidson diagonalization with overlap

---- Real-time Memory Report at c_bands before calling an iterative solver
           137 MiB given to the printing process from OS
             0 MiB allocation reported by mallinfo(arena+hblkhd)
        250032 MiB available memory on the node where the printing process lives
------------------
     ethr =  1.24E-07,  avg # of iterations =  1.7

     total cpu time spent up to now is        5.3 secs

     total energy              =     -53.62253848 Ry
     estimated scf accuracy    <       0.00001022 Ry

     iteration # 16     ecut=    80.00 Ry     beta= 0.70
     Davidson diagonalization with overlap

---- Real-time Memory Report at c_bands before calling an iterative solver
           137 MiB given to the printing process from OS
             0 MiB allocation reported by mallinfo(arena+hblkhd)
        250032 MiB available memory on the node where the printing process lives
------------------
     ethr =  6.39E-08,  avg # of iterations =  2.5

     total cpu time spent up to now is        5.6 secs

     total energy              =     -53.62253898 Ry
     estimated scf accuracy    <       0.00000221 Ry

     iteration # 17     ecut=    80.00 Ry     beta= 0.70
     Davidson diagonalization with overlap

---- Real-time Memory Report at c_bands before calling an iterative solver
           137 MiB given to the printing process from OS
             0 MiB allocation reported by mallinfo(arena+hblkhd)
        250033 MiB available memory on the node where the printing process lives
------------------
     ethr =  1.38E-08,  avg # of iterations =  4.1

     total cpu time spent up to now is        5.9 secs

     End of self-consistent calculation

          k = 0.0000 0.0000 0.0000 (  6307 PWs)   bands (ev):

   -18.8905 -18.8277  -6.7094  -6.1046  -2.1113  -2.1113  -2.1054  -2.1054

     occupation numbers 
     1.0000   1.0000   1.0000   1.0000   1.0000   1.0000   1.0000   1.0000

          k = 0.0000 0.0962 0.0000 (  6319 PWs)   bands (ev):

   -18.7501 -18.6884  -6.5173  -5.9184  -2.6873  -2.6741  -2.3881  -2.3816

     occupation numbers 
     1.0000   1.0000   1.0000   1.0000   1.0000   1.0000   1.0000   1.0000

          k = 0.0000 0.1925 0.0000 (  6291 PWs)   bands (ev):

   -18.3363 -18.2778  -5.9493  -5.3692  -4.1449  -4.1200  -3.0603  -3.0526

     occupation numbers 
     1.0000   1.0000   1.0000   1.0000   1.0000   1.0000   1.0000   1.0000

          k = 0.0000 0.2887 0.0000 (  6279 PWs)   bands (ev):

   -17.6756 -17.6223  -6.0049  -5.9703  -5.0306  -4.4855  -3.8374  -3.8285

     occupation numbers 
     1.0000   1.0000   1.0000   1.0000   1.0000   1.0000   1.0000   1.0000

          k = 0.0000 0.3849 0.0000 (  6254 PWs)   bands (ev):

   -16.8358 -16.7899  -7.8666  -7.8238  -4.5035  -4.4937  -3.8448  -3.3564

     occupation numbers 
     1.0000   1.0000   1.0000   1.0000   1.0000   1.0000   1.0000   1.0000

          k = 0.0000 0.4811 0.0000 (  6236 PWs)   bands (ev):

   -15.9982 -15.9612  -9.3749  -9.3226  -4.9399  -4.9297  -2.6061  -2.2054

     occupation numbers 
     1.0000   1.0000   1.0000   1.0000   1.0000   1.0000   1.0000   1.0000

          k = 0.0000-0.5774 0.0000 (  6230 PWs)   bands (ev):

   -15.5960 -15.5645 -10.0091  -9.9513  -5.0908  -5.0804  -1.9680  -1.6340

     occupation numbers 
     1.0000   1.0000   1.0000   1.0000   1.0000   1.0000   1.0000   1.0000

          k = 0.0833 0.1443 0.0000 (  6309 PWs)   bands (ev):

   -18.4729 -18.4133  -6.1370  -5.5504  -3.6330  -3.6118  -2.9337  -2.9250

     occupation numbers 
     1.0000   1.0000   1.0000   1.0000   1.0000   1.0000   1.0000   1.0000

          k = 0.0833 0.2406 0.0000 (  6260 PWs)   bands (ev):

   -17.9343 -17.8789  -5.4007  -5.1687  -5.1524  -4.8276  -3.7731  -3.7612

     occupation numbers 
     1.0000   1.0000   1.0000   1.0000   1.0000   1.0000   1.0000   1.0000

          k = 0.0833 0.3368 0.0000 (  6252 PWs)   bands (ev):

   -17.1774 -17.1282  -6.9726  -6.9353  -4.5640  -4.5495  -4.3320  -3.8179

     occupation numbers 
     1.0000   1.0000   1.0000   1.0000   1.0000   1.0000   1.0000   1.0000

          k = 0.0833 0.4330 0.0000 (  6232 PWs)   bands (ev):

   -16.3129 -16.2721  -8.6487  -8.6025  -5.1455  -5.1304  -3.0856  -2.6437

     occupation numbers 
     1.0000   1.0000   1.0000   1.0000   1.0000   1.0000   1.0000   1.0000

          k = 0.0833 0.5292 0.0000 (  6221 PWs)   bands (ev):

   -15.6321 -15.5995  -9.7668  -9.7121  -5.4504  -5.4349  -2.0380  -1.6893

     occupation numbers 
     1.0000   1.0000   1.0000   1.0000   1.0000   1.0000   1.0000   1.0000

          k = 0.1667 0.2887 0.0000 (  6261 PWs)   bands (ev):

   -17.2952 -17.2450  -6.4434  -6.4104  -4.8444  -4.8243  -4.4989  -3.9765

     occupation numbers 
     1.0000   1.0000   1.0000   1.0000   1.0000   1.0000   1.0000   1.0000

          k = 0.1667 0.3849 0.0000 (  6247 PWs)   bands (ev):

   -16.4905 -16.4475  -7.8747  -7.8362  -5.7455  -5.7208  -3.3523  -2.8892

     occupation numbers 
     1.0000   1.0000   1.0000   1.0000   1.0000   1.0000   1.0000   1.0000

          k = 0.1667 0.4811 0.0000 (  6231 PWs)   bands (ev):

   -15.7010 -15.6665  -9.1499  -9.1033  -6.2850  -6.2580  -2.1681  -1.7938

     occupation numbers 
     1.0000   1.0000   1.0000   1.0000   1.0000   1.0000   1.0000   1.0000

          k = 0.1667 0.5774 0.0000 (  6230 PWs)   bands (ev):

   -15.3298 -15.3001  -9.7014  -9.6500  -6.4625  -6.4348  -1.5668  -1.2573

     occupation numbers 
     1.0000   1.0000   1.0000   1.0000   1.0000   1.0000   1.0000   1.0000

          k = 0.2500 0.4330 0.0000 (  6237 PWs)   bands (ev):

   -15.7340 -15.6985  -8.6765  -8.6374  -6.8599  -6.8240  -2.2289  -1.8433

     occupation numbers 
     1.0000   1.0000   1.0000   1.0000   1.0000   1.0000   1.0000   1.0000

          k = 0.2500 0.5292 0.0000 (  6245 PWs)   bands (ev):

   -15.1718 -15.1430  -9.2671  -9.2257  -7.4721  -7.4298  -1.3274  -1.0302

     occupation numbers 
     1.0000   1.0000   1.0000   1.0000   1.0000   1.0000   1.0000   1.0000

          k = 0.3333 0.5774 0.0000 (  6234 PWs)   bands (ev):

   -14.9549 -14.9286  -9.1341  -9.1030  -8.1050  -8.0484  -0.9599  -0.7030

     occupation numbers 
     1.0000   1.0000   1.0000   1.0000   1.0000   1.0000   1.0000   1.0000

     the Fermi energy is     0.0042 ev

!    total energy              =     -53.62253989 Ry
     estimated scf accuracy    <       0.00000005 Ry
     smearing contrib. (-TS)   =       0.00000000 Ry
     internal energy E=F+TS    =     -53.62253989 Ry

     The total energy is F=E-TS. E is the sum of the following terms:
     one-electron contribution =    -269.59947828 Ry
     hartree contribution      =     139.94240909 Ry
     xc contribution           =     -17.50171169 Ry
     ewald contribution        =      93.53624099 Ry

     convergence has been achieved in  17 iterations

     Forces acting on atoms (cartesian axes, Ry/au):

     atom    1 type  1   force =     0.00000000   -0.00000000   -0.00107938
     atom    2 type  2   force =     0.00000000   -0.00000000   -0.00106695
     atom    3 type  1   force =     0.00000000    0.00000000    0.00107938
     atom    4 type  2   force =     0.00000000   -0.00000000    0.00106695
     The non-local contrib.  to forces
     atom    1 type  1   force =     0.00000000   -0.00000000   -0.00204096
     atom    2 type  2   force =     0.00000000    0.00000000   -0.00074064
     atom    3 type  1   force =     0.00000000    0.00000000    0.00204096
     atom    4 type  2   force =     0.00000000   -0.00000000    0.00074064
     The ionic contribution  to forces
     atom    1 type  1   force =    -0.00000001    0.00000000  -13.50991447
     atom    2 type  2   force =     0.00000001   -0.00000000   -8.10526376
     atom    3 type  1   force =    -0.00000001    0.00000000   13.50991447
     atom    4 type  2   force =     0.00000001   -0.00000000    8.10526376
     The local contribution  to forces
     atom    1 type  1   force =     0.00000000   -0.00000000   13.51079182
     atom    2 type  2   force =    -0.00000000    0.00000000    8.10491456
     atom    3 type  1   force =     0.00000000   -0.00000000  -13.51079182
     atom    4 type  2   force =    -0.00000000    0.00000000   -8.10491456
     The core correction contribution to forces
     atom    1 type  1   force =    -0.00000000    0.00000000    0.00009044
     atom    2 type  2   force =    -0.00000000    0.00000000    0.00003179
     atom    3 type  1   force =    -0.00000000    0.00000000   -0.00009044
     atom    4 type  2   force =    -0.00000000    0.00000000   -0.00003179
     The Hubbard contrib.    to forces
     atom    1 type  1   force =     0.00000000    0.00000000    0.00000000
     atom    2 type  2   force =     0.00000000    0.00000000    0.00000000
     atom    3 type  1   force =     0.00000000    0.00000000    0.00000000
     atom    4 type  2   force =     0.00000000    0.00000000    0.00000000
     The SCF correction term to forces
     atom    1 type  1   force =    -0.00000000    0.00000000   -0.00000621
     atom    2 type  2   force =    -0.00000000    0.00000000   -0.00000891
     atom    3 type  1   force =    -0.00000000    0.00000000    0.00000621
     atom    4 type  2   force =    -0.00000000    0.00000000    0.00000891

     Total force =     0.002146     Total SCF correction =     0.000015


     Computing stress (Cartesian axis) and pressure

          total   stress  (Ry/bohr**3)                   (kbar)     P=       83.97
   0.00084248   0.00000000   0.00000000          123.93        0.00        0.00
   0.00000000   0.00084248   0.00000000            0.00      123.93        0.00
   0.00000000   0.00000000   0.00002755            0.00        0.00        4.05

     kinetic stress (kbar)   7030.93      0.00      0.00
                                0.00   7030.93      0.00
                                0.00      0.00   7596.67

     local   stress (kbar) -81124.08      0.00     -0.00
                                0.00 -81124.08     -0.00
                               -0.00     -0.00  82377.57

     nonloc. stress (kbar)  -1176.07     -0.00      0.00
                               -0.00  -1176.07     -0.00
                                0.00      0.00  -1122.20

     hartree stress (kbar)  38644.67      0.00     -0.00
                                0.00  38644.67     -0.00
                               -0.00     -0.00 -37501.90

     exc-cor stress (kbar)   -697.86     -0.00      0.00
                               -0.00   -697.86      0.00
                                0.00      0.00   -749.75

     corecor stress (kbar)   -771.06      0.00     -0.00
                                0.00   -771.06     -0.00
                               -0.00     -0.00   -755.07

     ewald   stress (kbar)  38217.42     -0.00      0.00
                               -0.00  38217.42     -0.00
                                0.00     -0.00 -49841.27

     hubbard stress (kbar)      0.00      0.00      0.00
                                0.00      0.00      0.00
                                0.00      0.00      0.00

     DFT-D   stress (kbar)      0.00      0.00      0.00
                                0.00      0.00      0.00
                                0.00      0.00      0.00

     XDM     stress (kbar)      0.00      0.00      0.00
                                0.00      0.00      0.00
                                0.00      0.00      0.00

     dft-nl  stress (kbar)      0.00      0.00      0.00
                                0.00      0.00      0.00
                                0.00      0.00      0.00

     TS-vdW  stress (kbar)      0.00      0.00      0.00
                                0.00      0.00      0.00
                                0.00      0.00      0.00

     MDB     stress (kbar)      0.00      0.00      0.00
                                0.00      0.00      0.00
                                0.00      0.00      0.00

     3D-RISM stress (kbar)      0.00      0.00      0.00
                                0.00      0.00      0.00
                                0.00      0.00      0.00


     BFGS Geometry Optimization
     Energy error            =      0.0E+00 Ry
     Gradient error          =      1.1E-03 Ry/Bohr
     Cell gradient error     =      1.2E+02 kbar

     number of scf cycles    =   1
     number of bfgs steps    =   0

     enthalpy           new  =     -53.6225398864 Ry

     new trust radius        =       0.0958179830 bohr
     new conv_thr            =       0.0000010000 Ry

     new unit-cell volume =    539.80188 a.u.^3 (    79.99039 Ang^3 )
     density =      1.02998 g/cm^3

CELL_PARAMETERS (alat=  4.63500000)
   1.021062091   0.000000000   0.000000000
  -0.510531045   0.884265709   0.000000000
   0.000000000   0.000000000   6.004132111

ATOMIC_POSITIONS (crystal)
N            -0.0000000000       -0.0000000000       -0.0000388127
B             0.3333333330        0.6666666670       -0.0000383659
N             0.0000000000        0.0000000000        0.2500388127
B             0.3333333330        0.6666666670        0.2500383659



     Writing config-only to output data dir ./graphene.save/
     NEW-OLD atomic charge density approx. for the potential

     negative rho (up, down):  2.549E-06 0.000E+00
     extrapolated charge   16.66382, renormalised to   16.00000

     total cpu time spent up to now is        7.7 secs

     Self-consistent Calculation

     iteration #  1     ecut=    80.00 Ry     beta= 0.70
     Davidson diagonalization with overlap

---- Real-time Memory Report at c_bands before calling an iterative solver
           216 MiB given to the printing process from OS
             0 MiB allocation reported by mallinfo(arena+hblkhd)
        250043 MiB available memory on the node where the printing process lives
------------------
     c_bands:  4 eigenvalues not converged
     c_bands:  1 eigenvalues not converged
     c_bands:  5 eigenvalues not converged
     c_bands:  3 eigenvalues not converged
     c_bands:  1 eigenvalues not converged
     c_bands:  1 eigenvalues not converged
     c_bands:  3 eigenvalues not converged
     c_bands:  5 eigenvalues not converged
     c_bands:  5 eigenvalues not converged
     ethr =  1.00E-06,  avg # of iterations = 25.8

     total cpu time spent up to now is        9.3 secs

     total energy              =      -8.32261023 Ry
     estimated scf accuracy    <      47.21588058 Ry

     iteration #  2     ecut=    80.00 Ry     beta= 0.70
     Davidson diagonalization with overlap

---- Real-time Memory Report at c_bands before calling an iterative solver
           216 MiB given to the printing process from OS
             0 MiB allocation reported by mallinfo(arena+hblkhd)
        250038 MiB available memory on the node where the printing process lives
------------------
     c_bands:  1 eigenvalues not converged
     c_bands:  2 eigenvalues not converged
     ethr =  1.00E-02,  avg # of iterations = 13.0

     total cpu time spent up to now is       10.0 secs

     total energy              =     -57.63009121 Ry
     estimated scf accuracy    <      45.04737857 Ry

     iteration #  3     ecut=    80.00 Ry     beta= 0.70
     Davidson diagonalization with overlap

---- Real-time Memory Report at c_bands before calling an iterative solver
           216 MiB given to the printing process from OS
             0 MiB allocation reported by mallinfo(arena+hblkhd)
        250034 MiB available memory on the node where the printing process lives
------------------
     ethr =  1.00E-02,  avg # of iterations =  5.6

     total cpu time spent up to now is       10.3 secs

     total energy              =     -57.63747722 Ry
     estimated scf accuracy    <      10.97679851 Ry

     iteration #  4     ecut=    80.00 Ry     beta= 0.70
     Davidson diagonalization with overlap

---- Real-time Memory Report at c_bands before calling an iterative solver
           216 MiB given to the printing process from OS
             0 MiB allocation reported by mallinfo(arena+hblkhd)
        250033 MiB available memory on the node where the printing process lives
------------------
     ethr =  1.00E-02,  avg # of iterations =  2.2

     total cpu time spent up to now is       10.6 secs

     total energy              =     -54.47790966 Ry
     estimated scf accuracy    <       6.22466714 Ry

     iteration #  5     ecut=    80.00 Ry     beta= 0.70
     Davidson diagonalization with overlap

---- Real-time Memory Report at c_bands before calling an iterative solver
           216 MiB given to the printing process from OS
             0 MiB allocation reported by mallinfo(arena+hblkhd)
        250033 MiB available memory on the node where the printing process lives
------------------
     ethr =  1.00E-02,  avg # of iterations =  2.0

     total cpu time spent up to now is       10.8 secs

     total energy              =     -54.29228893 Ry
     estimated scf accuracy    <       2.36386145 Ry

     iteration #  6     ecut=    80.00 Ry     beta= 0.70
     Davidson diagonalization with overlap

---- Real-time Memory Report at c_bands before calling an iterative solver
           216 MiB given to the printing process from OS
             0 MiB allocation reported by mallinfo(arena+hblkhd)
        250032 MiB available memory on the node where the printing process lives
------------------
     ethr =  1.00E-02,  avg # of iterations =  1.3

     total cpu time spent up to now is       11.0 secs

     total energy              =     -53.83489733 Ry
     estimated scf accuracy    <       1.87612279 Ry

     iteration #  7     ecut=    80.00 Ry     beta= 0.70
     Davidson diagonalization with overlap

---- Real-time Memory Report at c_bands before calling an iterative solver
           216 MiB given to the printing process from OS
             0 MiB allocation reported by mallinfo(arena+hblkhd)
        250044 MiB available memory on the node where the printing process lives
------------------
     ethr =  1.00E-02,  avg # of iterations =  1.0

     total cpu time spent up to now is       11.2 secs

     total energy              =     -53.58265831 Ry
     estimated scf accuracy    <       1.13365734 Ry

     iteration #  8     ecut=    80.00 Ry     beta= 0.70
     Davidson diagonalization with overlap

---- Real-time Memory Report at c_bands before calling an iterative solver
           216 MiB given to the printing process from OS
             0 MiB allocation reported by mallinfo(arena+hblkhd)
        249614 MiB available memory on the node where the printing process lives
------------------
     ethr =  7.09E-03,  avg # of iterations =  1.6

     total cpu time spent up to now is       11.5 secs

     total energy              =     -53.94849003 Ry
     estimated scf accuracy    <       0.77169245 Ry

     iteration #  9     ecut=    80.00 Ry     beta= 0.70
     Davidson diagonalization with overlap

---- Real-time Memory Report at c_bands before calling an iterative solver
           216 MiB given to the printing process from OS
             0 MiB allocation reported by mallinfo(arena+hblkhd)
        250032 MiB available memory on the node where the printing process lives
------------------
     ethr =  4.82E-03,  avg # of iterations =  1.0

     total cpu time spent up to now is       11.7 secs

     total energy              =     -53.52822919 Ry
     estimated scf accuracy    <       1.12197194 Ry

     iteration # 10     ecut=    80.00 Ry     beta= 0.70
     Davidson diagonalization with overlap

---- Real-time Memory Report at c_bands before calling an iterative solver
           216 MiB given to the printing process from OS
             0 MiB allocation reported by mallinfo(arena+hblkhd)
        250031 MiB available memory on the node where the printing process lives
------------------
     ethr =  4.82E-03,  avg # of iterations =  1.0

     total cpu time spent up to now is       11.8 secs

     total energy              =     -53.02956490 Ry
     estimated scf accuracy    <       0.62779275 Ry

     iteration # 11     ecut=    80.00 Ry     beta= 0.70
     Davidson diagonalization with overlap

---- Real-time Memory Report at c_bands before calling an iterative solver
           216 MiB given to the printing process from OS
             0 MiB allocation reported by mallinfo(arena+hblkhd)
        250031 MiB available memory on the node where the printing process lives
------------------
     ethr =  3.92E-03,  avg # of iterations =  4.7

     negative rho (up, down):  5.462E-03 0.000E+00

     total cpu time spent up to now is       12.1 secs

     total energy              =     -53.52129864 Ry
     estimated scf accuracy    <       0.33454659 Ry

     iteration # 12     ecut=    80.00 Ry     beta= 0.70
     Davidson diagonalization with overlap

---- Real-time Memory Report at c_bands before calling an iterative solver
           216 MiB given to the printing process from OS
             0 MiB allocation reported by mallinfo(arena+hblkhd)
        250031 MiB available memory on the node where the printing process lives
------------------
     ethr =  2.09E-03,  avg # of iterations =  1.5

     negative rho (up, down):  1.363E-02 0.000E+00

     total cpu time spent up to now is       12.3 secs

     total energy              =     -53.59888669 Ry
     estimated scf accuracy    <       0.16113560 Ry

     iteration # 13     ecut=    80.00 Ry     beta= 0.70
     Davidson diagonalization with overlap

---- Real-time Memory Report at c_bands before calling an iterative solver
           216 MiB given to the printing process from OS
             0 MiB allocation reported by mallinfo(arena+hblkhd)
        250031 MiB available memory on the node where the printing process lives
------------------
     ethr =  1.01E-03,  avg # of iterations =  1.5

     negative rho (up, down):  1.846E-02 0.000E+00

     total cpu time spent up to now is       12.5 secs

     total energy              =     -53.61616255 Ry
     estimated scf accuracy    <       0.15075787 Ry

     iteration # 14     ecut=    80.00 Ry     beta= 0.70
     Davidson diagonalization with overlap

---- Real-time Memory Report at c_bands before calling an iterative solver
           216 MiB given to the printing process from OS
             0 MiB allocation reported by mallinfo(arena+hblkhd)
        250031 MiB available memory on the node where the printing process lives
------------------
     ethr =  9.42E-04,  avg # of iterations =  1.1

     negative rho (up, down):  6.519E-02 0.000E+00

     total cpu time spent up to now is       12.7 secs

     total energy              =     -53.63986785 Ry
     estimated scf accuracy    <       0.10583399 Ry

     iteration # 15     ecut=    80.00 Ry     beta= 0.70
     Davidson diagonalization with overlap

---- Real-time Memory Report at c_bands before calling an iterative solver
           216 MiB given to the printing process from OS
             0 MiB allocation reported by mallinfo(arena+hblkhd)
        250031 MiB available memory on the node where the printing process lives
------------------
     ethr =  6.61E-04,  avg # of iterations =  1.3

     negative rho (up, down):  5.435E-02 0.000E+00

     total cpu time spent up to now is       12.8 secs

     total energy              =     -53.61595067 Ry
     estimated scf accuracy    <       0.11916290 Ry

     iteration # 16     ecut=    80.00 Ry     beta= 0.70
     Davidson diagonalization with overlap

---- Real-time Memory Report at c_bands before calling an iterative solver
           216 MiB given to the printing process from OS
             0 MiB allocation reported by mallinfo(arena+hblkhd)
        250031 MiB available memory on the node where the printing process lives
------------------
     ethr =  6.61E-04,  avg # of iterations =  1.1

     total cpu time spent up to now is       13.0 secs

     total energy              =     -53.57485415 Ry
     estimated scf accuracy    <       0.06942844 Ry

     iteration # 17     ecut=    80.00 Ry     beta= 0.70
     Davidson diagonalization with overlap

---- Real-time Memory Report at c_bands before calling an iterative solver
           216 MiB given to the printing process from OS
             0 MiB allocation reported by mallinfo(arena+hblkhd)
        250031 MiB available memory on the node where the printing process lives
------------------
     ethr =  4.34E-04,  avg # of iterations =  3.2

     total cpu time spent up to now is       13.3 secs

     total energy              =     -53.64588370 Ry
     estimated scf accuracy    <       0.03448098 Ry

     iteration # 18     ecut=    80.00 Ry     beta= 0.70
     Davidson diagonalization with overlap

---- Real-time Memory Report at c_bands before calling an iterative solver
           216 MiB given to the printing process from OS
             0 MiB allocation reported by mallinfo(arena+hblkhd)
        250031 MiB available memory on the node where the printing process lives
------------------
     ethr =  2.16E-04,  avg # of iterations =  2.0

     negative rho (up, down):  1.628E-02 0.000E+00

     total cpu time spent up to now is       13.5 secs

     total energy              =     -53.62959941 Ry
     estimated scf accuracy    <       0.05086978 Ry

     iteration # 19     ecut=    80.00 Ry     beta= 0.70
     Davidson diagonalization with overlap

---- Real-time Memory Report at c_bands before calling an iterative solver
           216 MiB given to the printing process from OS
             0 MiB allocation reported by mallinfo(arena+hblkhd)
        250031 MiB available memory on the node where the printing process lives
------------------
     ethr =  2.16E-04,  avg # of iterations =  2.0

     negative rho (up, down):  1.139E-01 0.000E+00

     total cpu time spent up to now is       13.7 secs

     total energy              =     -53.65722417 Ry
     estimated scf accuracy    <       0.00745941 Ry

     iteration # 20     ecut=    80.00 Ry     beta= 0.70
     Davidson diagonalization with overlap

---- Real-time Memory Report at c_bands before calling an iterative solver
           216 MiB given to the printing process from OS
             0 MiB allocation reported by mallinfo(arena+hblkhd)
        250031 MiB available memory on the node where the printing process lives
------------------
     ethr =  4.66E-05,  avg # of iterations =  3.1

     negative rho (up, down):  5.040E-02 0.000E+00

     total cpu time spent up to now is       13.9 secs

     total energy              =     -53.63910498 Ry
     estimated scf accuracy    <       0.03597995 Ry

     iteration # 21     ecut=    80.00 Ry     beta= 0.70
     Davidson diagonalization with overlap

---- Real-time Memory Report at c_bands before calling an iterative solver
           216 MiB given to the printing process from OS
             0 MiB allocation reported by mallinfo(arena+hblkhd)
        250031 MiB available memory on the node where the printing process lives
------------------
     ethr =  4.66E-05,  avg # of iterations =  2.0

     negative rho (up, down):  6.612E-03 0.000E+00

     total cpu time spent up to now is       14.1 secs

     total energy              =     -53.63011381 Ry
     estimated scf accuracy    <       0.01003005 Ry

     iteration # 22     ecut=    80.00 Ry     beta= 0.70
     Davidson diagonalization with overlap

---- Real-time Memory Report at c_bands before calling an iterative solver
           216 MiB given to the printing process from OS
             0 MiB allocation reported by mallinfo(arena+hblkhd)
        250029 MiB available memory on the node where the printing process lives
------------------
     ethr =  4.66E-05,  avg # of iterations =  2.0

     negative rho (up, down):  2.441E-03 0.000E+00

     total cpu time spent up to now is       14.4 secs

     total energy              =     -53.63220627 Ry
     estimated scf accuracy    <       0.00042327 Ry

     iteration # 23     ecut=    80.00 Ry     beta= 0.70
     Davidson diagonalization with overlap

---- Real-time Memory Report at c_bands before calling an iterative solver
           216 MiB given to the printing process from OS
             0 MiB allocation reported by mallinfo(arena+hblkhd)
        250028 MiB available memory on the node where the printing process lives
------------------
     ethr =  2.65E-06,  avg # of iterations =  3.7

     negative rho (up, down):  3.957E-04 0.000E+00

     total cpu time spent up to now is       14.6 secs

     total energy              =     -53.63222217 Ry
     estimated scf accuracy    <       0.00061172 Ry

     iteration # 24     ecut=    80.00 Ry     beta= 0.70
     Davidson diagonalization with overlap

---- Real-time Memory Report at c_bands before calling an iterative solver
           216 MiB given to the printing process from OS
             0 MiB allocation reported by mallinfo(arena+hblkhd)
        250027 MiB available memory on the node where the printing process lives
------------------
     ethr =  2.65E-06,  avg # of iterations =  2.3

     total cpu time spent up to now is       14.9 secs

     total energy              =     -53.63238979 Ry
     estimated scf accuracy    <       0.00006280 Ry

     iteration # 25     ecut=    80.00 Ry     beta= 0.70
     Davidson diagonalization with overlap

---- Real-time Memory Report at c_bands before calling an iterative solver
           216 MiB given to the printing process from OS
             0 MiB allocation reported by mallinfo(arena+hblkhd)
        250026 MiB available memory on the node where the printing process lives
------------------
     ethr =  3.92E-07,  avg # of iterations =  3.3

     negative rho (up, down):  7.924E-05 0.000E+00

     total cpu time spent up to now is       15.1 secs

     total energy              =     -53.63243662 Ry
     estimated scf accuracy    <       0.00011610 Ry

     iteration # 26     ecut=    80.00 Ry     beta= 0.70
     Davidson diagonalization with overlap

---- Real-time Memory Report at c_bands before calling an iterative solver
           216 MiB given to the printing process from OS
             0 MiB allocation reported by mallinfo(arena+hblkhd)
        250026 MiB available memory on the node where the printing process lives
------------------
     ethr =  3.92E-07,  avg # of iterations =  1.5

     negative rho (up, down):  1.082E-04 0.000E+00

     total cpu time spent up to now is       15.3 secs

     total energy              =     -53.63235935 Ry
     estimated scf accuracy    <       0.00016993 Ry

     iteration # 27     ecut=    80.00 Ry     beta= 0.70
     Davidson diagonalization with overlap

---- Real-time Memory Report at c_bands before calling an iterative solver
           216 MiB given to the printing process from OS
             0 MiB allocation reported by mallinfo(arena+hblkhd)
        250026 MiB available memory on the node where the printing process lives
------------------
     ethr =  3.92E-07,  avg # of iterations =  2.4

     negative rho (up, down):  1.083E-04 0.000E+00

     total cpu time spent up to now is       15.6 secs

     total energy              =     -53.63236641 Ry
     estimated scf accuracy    <       0.00003656 Ry

     iteration # 28     ecut=    80.00 Ry     beta= 0.70
     Davidson diagonalization with overlap

---- Real-time Memory Report at c_bands before calling an iterative solver
           216 MiB given to the printing process from OS
             0 MiB allocation reported by mallinfo(arena+hblkhd)
        250026 MiB available memory on the node where the printing process lives
------------------
     ethr =  2.28E-07,  avg # of iterations =  3.7

     negative rho (up, down):  3.584E-05 0.000E+00

     total cpu time spent up to now is       15.8 secs

     total energy              =     -53.63237764 Ry
     estimated scf accuracy    <       0.00003556 Ry

     iteration # 29     ecut=    80.00 Ry     beta= 0.70
     Davidson diagonalization with overlap

---- Real-time Memory Report at c_bands before calling an iterative solver
           216 MiB given to the printing process from OS
             0 MiB allocation reported by mallinfo(arena+hblkhd)
        249920 MiB available memory on the node where the printing process lives
------------------
     ethr =  2.22E-07,  avg # of iterations =  2.0

     total cpu time spent up to now is       16.0 secs

     total energy              =     -53.63237922 Ry
     estimated scf accuracy    <       0.00000334 Ry

     iteration # 30     ecut=    80.00 Ry     beta= 0.70
     Davidson diagonalization with overlap

---- Real-time Memory Report at c_bands before calling an iterative solver
           216 MiB given to the printing process from OS
             0 MiB allocation reported by mallinfo(arena+hblkhd)
        249783 MiB available memory on the node where the printing process lives
------------------
     ethr =  2.09E-08,  avg # of iterations =  4.4

     total cpu time spent up to now is       16.4 secs

     total energy              =     -53.63238165 Ry
     estimated scf accuracy    <       0.00000150 Ry

     iteration # 31     ecut=    80.00 Ry     beta= 0.70
     Davidson diagonalization with overlap

---- Real-time Memory Report at c_bands before calling an iterative solver
           216 MiB given to the printing process from OS
             0 MiB allocation reported by mallinfo(arena+hblkhd)
        250030 MiB available memory on the node where the printing process lives
------------------
     ethr =  9.36E-09,  avg # of iterations =  1.1

     total cpu time spent up to now is       16.5 secs

     End of self-consistent calculation

          k = 0.0000 0.0000 0.0000 (  6307 PWs)   bands (ev):

   -18.7356 -18.6717  -6.6048  -5.9862  -2.4071  -2.4071  -2.4005  -2.4005

     occupation numbers 
     1.0000   1.0000   1.0000   1.0000   1.0000   1.0000   1.0000   1.0000

          k =-0.0000 0.0942 0.0000 (  6319 PWs)   bands (ev):

   -18.6015 -18.5386  -6.4223  -5.8099  -2.9685  -2.9539  -2.6662  -2.6590

     occupation numbers 
     1.0000   1.0000   1.0000   1.0000   1.0000   1.0000   1.0000   1.0000

          k =-0.0000 0.1885 0.0000 (  6291 PWs)   bands (ev):

   -18.2065 -18.1468  -5.8831  -5.2905  -4.3813  -4.3538  -3.2974  -3.2888

     occupation numbers 
     1.0000   1.0000   1.0000   1.0000   1.0000   1.0000   1.0000   1.0000

          k =-0.0000 0.2827 0.0000 (  6279 PWs)   bands (ev):

   -17.5777 -17.5232  -6.1735  -6.1361  -5.0116  -4.4548  -4.0296  -4.0197

     occupation numbers 
     1.0000   1.0000   1.0000   1.0000   1.0000   1.0000   1.0000   1.0000

          k =-0.0000 0.3770 0.0000 (  6254 PWs)   bands (ev):

   -16.7835 -16.7365  -7.9557  -7.9096  -4.6588  -4.6479  -3.8900  -3.3916

     occupation numbers 
     1.0000   1.0000   1.0000   1.0000   1.0000   1.0000   1.0000   1.0000

          k =-0.0000 0.4712 0.0000 (  6236 PWs)   bands (ev):

   -16.0009 -15.9628  -9.3854  -9.3296  -5.0716  -5.0602  -2.7250  -2.3153

     occupation numbers 
     1.0000   1.0000   1.0000   1.0000   1.0000   1.0000   1.0000   1.0000

          k = 0.0000-0.5654 0.0000 (  6230 PWs)   bands (ev):

   -15.6312 -15.5984  -9.9789  -9.9177  -5.2145  -5.2029  -2.1301  -1.7863

     occupation numbers 
     1.0000   1.0000   1.0000   1.0000   1.0000   1.0000   1.0000   1.0000

          k = 0.0816 0.1414 0.0000 (  6309 PWs)   bands (ev):

   -18.3368 -18.2760  -6.0613  -5.4617  -3.8876  -3.8642  -3.1794  -3.1700

     occupation numbers 
     1.0000   1.0000   1.0000   1.0000   1.0000   1.0000   1.0000   1.0000

          k = 0.0816 0.2356 0.0000 (  6260 PWs)   bands (ev):

   -17.8236 -17.7670  -5.4127  -5.3493  -5.3204  -4.7793  -3.9736  -3.9608

     occupation numbers 
     1.0000   1.0000   1.0000   1.0000   1.0000   1.0000   1.0000   1.0000

          k = 0.0816 0.3298 0.0000 (  6252 PWs)   bands (ev):

   -17.1056 -17.0554  -7.1003  -7.0597  -4.7248  -4.7095  -4.3504  -3.8253

     occupation numbers 
     1.0000   1.0000   1.0000   1.0000   1.0000   1.0000   1.0000   1.0000

          k = 0.0816 0.4241 0.0000 (  6232 PWs)   bands (ev):

   -16.2932 -16.2513  -8.6950  -8.6452  -5.2787  -5.2624  -3.1743  -2.7233

     occupation numbers 
     1.0000   1.0000   1.0000   1.0000   1.0000   1.0000   1.0000   1.0000

          k = 0.0816 0.5183 0.0000 (  6221 PWs)   bands (ev):

   -15.6635 -15.6297  -9.7457  -9.6874  -5.5692  -5.5523  -2.1937  -1.8358

     occupation numbers 
     1.0000   1.0000   1.0000   1.0000   1.0000   1.0000   1.0000   1.0000

          k = 0.1632 0.2827 0.0000 (  6261 PWs)   bands (ev):

   -17.2171 -17.1658  -6.5942  -6.5576  -4.9977  -4.9771  -4.5082  -3.9746

     occupation numbers 
     1.0000   1.0000   1.0000   1.0000   1.0000   1.0000   1.0000   1.0000

          k = 0.1632 0.3770 0.0000 (  6247 PWs)   bands (ev):

   -16.4589 -16.4149  -7.9520  -7.9095  -5.8678  -5.8420  -3.4247  -2.9522

     occupation numbers 
     1.0000   1.0000   1.0000   1.0000   1.0000   1.0000   1.0000   1.0000

          k = 0.1632 0.4712 0.0000 (  6231 PWs)   bands (ev):

   -15.7255 -15.6899  -9.1484  -9.0978  -6.3909  -6.3625  -2.3123  -1.9296

     occupation numbers 
     1.0000   1.0000   1.0000   1.0000   1.0000   1.0000   1.0000   1.0000

          k = 0.1632 0.5654 0.0000 (  6230 PWs)   bands (ev):

   -15.3865 -15.3557  -9.6593  -9.6039  -6.5630  -6.5339  -1.7522  -1.4336

     occupation numbers 
     1.0000   1.0000   1.0000   1.0000   1.0000   1.0000   1.0000   1.0000

          k = 0.2448 0.4241 0.0000 (  6237 PWs)   bands (ev):

   -15.7552 -15.7188  -8.6845  -8.6407  -6.9591  -6.9222  -2.3679  -1.9742

     occupation numbers 
     1.0000   1.0000   1.0000   1.0000   1.0000   1.0000   1.0000   1.0000

          k = 0.2448 0.5183 0.0000 (  6245 PWs)   bands (ev):

   -15.2418 -15.2119  -9.2058  -9.1597  -7.5699  -7.5266  -1.5262  -1.2206

     occupation numbers 
     1.0000   1.0000   1.0000   1.0000   1.0000   1.0000   1.0000   1.0000

          k = 0.3265 0.5654 0.0000 (  6234 PWs)   bands (ev):

   -15.0460 -15.0185  -8.9922  -8.9587  -8.2541  -8.1942  -1.1840  -0.9183

     occupation numbers 
     1.0000   1.0000   1.0000   1.0000   1.0000   1.0000   1.0000   1.0000

     the Fermi energy is    -0.1996 ev

!    total energy              =     -53.63238130 Ry
     estimated scf accuracy    <       0.00000054 Ry
     smearing contrib. (-TS)   =       0.00000000 Ry
     internal energy E=F+TS    =     -53.63238130 Ry

     The total energy is F=E-TS. E is the sum of the following terms:
     one-electron contribution =    -258.85862348 Ry
     hartree contribution      =     134.42242781 Ry
     xc contribution           =     -17.33271011 Ry
     ewald contribution        =      88.13652448 Ry

     convergence has been achieved in  31 iterations

     Forces acting on atoms (cartesian axes, Ry/au):

     atom    1 type  1   force =     0.00000000    0.00000000   -0.00121634
     atom    2 type  2   force =     0.00000000    0.00000000   -0.00117197
     atom    3 type  1   force =    -0.00000000   -0.00000000    0.00121634
     atom    4 type  2   force =    -0.00000000    0.00000000    0.00117197
     The non-local contrib.  to forces
     atom    1 type  1   force =     0.00000000    0.00000000   -0.00237389
     atom    2 type  2   force =     0.00000000   -0.00000000   -0.00079066
     atom    3 type  1   force =     0.00000000    0.00000000    0.00237389
     atom    4 type  2   force =     0.00000000   -0.00000000    0.00079066
     The ionic contribution  to forces
     atom    1 type  1   force =    -0.00000001    0.00000000  -12.95467121
     atom    2 type  2   force =     0.00000001   -0.00000000   -7.77188657
     atom    3 type  1   force =    -0.00000001    0.00000000   12.95467121
     atom    4 type  2   force =     0.00000001   -0.00000000    7.77188657
     The local contribution  to forces
     atom    1 type  1   force =     0.00000000   -0.00000000   12.95555423
     atom    2 type  2   force =    -0.00000000    0.00000000    7.77138057
     atom    3 type  1   force =     0.00000000   -0.00000000  -12.95555423
     atom    4 type  2   force =    -0.00000000    0.00000000   -7.77138057
     The core correction contribution to forces
     atom    1 type  1   force =    -0.00000000    0.00000000    0.00010375
     atom    2 type  2   force =    -0.00000000    0.00000000    0.00003285
     atom    3 type  1   force =    -0.00000000    0.00000000   -0.00010375
     atom    4 type  2   force =    -0.00000000    0.00000000   -0.00003285
     The Hubbard contrib.    to forces
     atom    1 type  1   force =     0.00000000    0.00000000    0.00000000
     atom    2 type  2   force =     0.00000000    0.00000000    0.00000000
     atom    3 type  1   force =     0.00000000    0.00000000    0.00000000
     atom    4 type  2   force =     0.00000000    0.00000000    0.00000000
     The SCF correction term to forces
     atom    1 type  1   force =    -0.00000000    0.00000000    0.00017078
     atom    2 type  2   force =    -0.00000000    0.00000000    0.00009184
     atom    3 type  1   force =    -0.00000000    0.00000000   -0.00017078
     atom    4 type  2   force =    -0.00000000    0.00000000   -0.00009184

     Total force =     0.002389     Total SCF correction =     0.000274
     SCF correction compared to forces is large: reduce conv_thr to get better values


     Computing stress (Cartesian axis) and pressure

          total   stress  (Ry/bohr**3)                   (kbar)     P=        8.55
   0.00007529  -0.00000000  -0.00000000           11.08       -0.00       -0.00
  -0.00000000   0.00007529  -0.00000000           -0.00       11.08       -0.00
  -0.00000000   0.00000000   0.00002382           -0.00        0.00        3.50

     kinetic stress (kbar)   6598.77     -0.00     -0.00
                               -0.00   6598.77     -0.00
                               -0.00     -0.00   7205.05

     local   stress (kbar) -74535.01      0.00      0.00
                                0.00 -74535.01      0.00
                                0.00      0.00  75484.40

     nonloc. stress (kbar)  -1087.84      0.00      0.00
                               -0.00  -1087.84      0.00
                                0.00      0.00  -1055.28

     hartree stress (kbar)  35497.18      0.00     -0.00
                                0.00  35497.18      0.00
                               -0.00      0.00 -34361.99

     exc-cor stress (kbar)   -656.60     -0.00     -0.00
                               -0.00   -656.60      0.00
                               -0.00      0.00   -705.12

     corecor stress (kbar)   -735.55      0.00     -0.00
                                0.00   -735.55      0.00
                               -0.00      0.00   -721.99

     ewald   stress (kbar)  34930.13     -0.00      0.00
                               -0.00  34930.13      0.00
                                0.00      0.00 -45841.57

     hubbard stress (kbar)      0.00      0.00      0.00
                                0.00      0.00      0.00
                                0.00      0.00      0.00

     DFT-D   stress (kbar)      0.00      0.00      0.00
                                0.00      0.00      0.00
                                0.00      0.00      0.00

     XDM     stress (kbar)      0.00      0.00      0.00
                                0.00      0.00      0.00
                                0.00      0.00      0.00

     dft-nl  stress (kbar)      0.00      0.00      0.00
                                0.00      0.00      0.00
                                0.00      0.00      0.00

     TS-vdW  stress (kbar)      0.00      0.00      0.00
                                0.00      0.00      0.00
                                0.00      0.00      0.00

     MDB     stress (kbar)      0.00      0.00      0.00
                                0.00      0.00      0.00
                                0.00      0.00      0.00

     3D-RISM stress (kbar)      0.00      0.00      0.00
                                0.00      0.00      0.00
                                0.00      0.00      0.00

     Energy error            =      9.8E-03 Ry
     Gradient error          =      1.2E-03 Ry/Bohr
     Cell gradient error     =      1.1E+01 kbar

     number of scf cycles    =   2
     number of bfgs steps    =   1

     enthalpy           old  =     -53.6225398864 Ry
     enthalpy           new  =     -53.6323812952 Ry

     CASE: enthalpy          _new < enthalpy          _old

     new trust radius        =       0.0097106034 bohr
     new conv_thr            =       0.0000000122 Ry

     new unit-cell volume =    542.43103 a.u.^3 (    80.37999 Ang^3 )
     density =      1.02499 g/cm^3

CELL_PARAMETERS (alat=  4.63500000)
   1.023195878   0.000000000   0.000000000
  -0.511597939   0.886113624   0.000000000
  -0.000000000  -0.000000000   6.008237843

ATOMIC_POSITIONS (crystal)
N            -0.0000000000       -0.0000000000       -0.0000870439
B             0.3333333330        0.6666666670       -0.0000848385
N             0.0000000000        0.0000000000        0.2500870439
B             0.3333333330        0.6666666670        0.2500848385



     Writing config-only to output data dir ./graphene.save/
     NEW-OLD atomic charge density approx. for the potential

     negative rho (up, down):  1.845E-07 0.000E+00
     extrapolated charge   16.07755, renormalised to   16.00000

     total cpu time spent up to now is       18.1 secs

     Self-consistent Calculation

     iteration #  1     ecut=    80.00 Ry     beta= 0.70
     Davidson diagonalization with overlap

---- Real-time Memory Report at c_bands before calling an iterative solver
           219 MiB given to the printing process from OS
             0 MiB allocation reported by mallinfo(arena+hblkhd)
        250031 MiB available memory on the node where the printing process lives
------------------
     ethr =  1.00E-06,  avg # of iterations =  5.8

     total cpu time spent up to now is       18.6 secs

     total energy              =     -53.62673259 Ry
     estimated scf accuracy    <       0.00432428 Ry

     iteration #  2     ecut=    80.00 Ry     beta= 0.70
     Davidson diagonalization with overlap

---- Real-time Memory Report at c_bands before calling an iterative solver
           219 MiB given to the printing process from OS
             0 MiB allocation reported by mallinfo(arena+hblkhd)
        250032 MiB available memory on the node where the printing process lives
------------------
     ethr =  2.70E-05,  avg # of iterations =  3.1

     total cpu time spent up to now is       18.9 secs

     total energy              =     -53.63194088 Ry
     estimated scf accuracy    <       0.01480720 Ry

     iteration #  3     ecut=    80.00 Ry     beta= 0.70
     Davidson diagonalization with overlap

---- Real-time Memory Report at c_bands before calling an iterative solver
           219 MiB given to the printing process from OS
             0 MiB allocation reported by mallinfo(arena+hblkhd)
        250031 MiB available memory on the node where the printing process lives
------------------
     ethr =  2.70E-05,  avg # of iterations =  2.0

     total cpu time spent up to now is       19.2 secs

     total energy              =     -53.63269947 Ry
     estimated scf accuracy    <       0.00253146 Ry

     iteration #  4     ecut=    80.00 Ry     beta= 0.70
     Davidson diagonalization with overlap

---- Real-time Memory Report at c_bands before calling an iterative solver
           219 MiB given to the printing process from OS
             0 MiB allocation reported by mallinfo(arena+hblkhd)
        250030 MiB available memory on the node where the printing process lives
------------------
     ethr =  1.58E-05,  avg # of iterations =  1.0

     total cpu time spent up to now is       19.4 secs

     total energy              =     -53.63241646 Ry
     estimated scf accuracy    <       0.00124665 Ry

     iteration #  5     ecut=    80.00 Ry     beta= 0.70
     Davidson diagonalization with overlap

---- Real-time Memory Report at c_bands before calling an iterative solver
           219 MiB given to the printing process from OS
             0 MiB allocation reported by mallinfo(arena+hblkhd)
        250029 MiB available memory on the node where the printing process lives
------------------
     ethr =  7.79E-06,  avg # of iterations =  1.9

     total cpu time spent up to now is       19.6 secs

     total energy              =     -53.63240911 Ry
     estimated scf accuracy    <       0.00031387 Ry

     iteration #  6     ecut=    80.00 Ry     beta= 0.70
     Davidson diagonalization with overlap

---- Real-time Memory Report at c_bands before calling an iterative solver
           219 MiB given to the printing process from OS
             0 MiB allocation reported by mallinfo(arena+hblkhd)
        250027 MiB available memory on the node where the printing process lives
------------------
     ethr =  1.96E-06,  avg # of iterations =  2.5

     total cpu time spent up to now is       19.8 secs

     total energy              =     -53.63249736 Ry
     estimated scf accuracy    <       0.00001599 Ry

     iteration #  7     ecut=    80.00 Ry     beta= 0.70
     Davidson diagonalization with overlap

---- Real-time Memory Report at c_bands before calling an iterative solver
           219 MiB given to the printing process from OS
             0 MiB allocation reported by mallinfo(arena+hblkhd)
        250026 MiB available memory on the node where the printing process lives
------------------
     ethr =  9.99E-08,  avg # of iterations =  4.2

     total cpu time spent up to now is       20.2 secs

     total energy              =     -53.63249328 Ry
     estimated scf accuracy    <       0.00003745 Ry

     iteration #  8     ecut=    80.00 Ry     beta= 0.70
     Davidson diagonalization with overlap

---- Real-time Memory Report at c_bands before calling an iterative solver
           219 MiB given to the printing process from OS
             0 MiB allocation reported by mallinfo(arena+hblkhd)
        250024 MiB available memory on the node where the printing process lives
------------------
     ethr =  9.99E-08,  avg # of iterations =  2.4

     total cpu time spent up to now is       20.4 secs

     total energy              =     -53.63249433 Ry
     estimated scf accuracy    <       0.00001084 Ry

     iteration #  9     ecut=    80.00 Ry     beta= 0.70
     Davidson diagonalization with overlap

---- Real-time Memory Report at c_bands before calling an iterative solver
           219 MiB given to the printing process from OS
             0 MiB allocation reported by mallinfo(arena+hblkhd)
        250036 MiB available memory on the node where the printing process lives
------------------
     ethr =  6.78E-08,  avg # of iterations =  1.9

     total cpu time spent up to now is       20.7 secs

     total energy              =     -53.63249313 Ry
     estimated scf accuracy    <       0.00000379 Ry

     iteration # 10     ecut=    80.00 Ry     beta= 0.70
     Davidson diagonalization with overlap

---- Real-time Memory Report at c_bands before calling an iterative solver
           219 MiB given to the printing process from OS
             0 MiB allocation reported by mallinfo(arena+hblkhd)
        249284 MiB available memory on the node where the printing process lives
------------------
     ethr =  2.37E-08,  avg # of iterations =  2.0

     total cpu time spent up to now is       20.9 secs

     total energy              =     -53.63249373 Ry
     estimated scf accuracy    <       0.00000013 Ry

     iteration # 11     ecut=    80.00 Ry     beta= 0.70
     Davidson diagonalization with overlap

---- Real-time Memory Report at c_bands before calling an iterative solver
           219 MiB given to the printing process from OS
             0 MiB allocation reported by mallinfo(arena+hblkhd)
        250025 MiB available memory on the node where the printing process lives
------------------
     ethr =  8.20E-10,  avg # of iterations =  3.8

     total cpu time spent up to now is       21.2 secs

     total energy              =     -53.63249383 Ry
     estimated scf accuracy    <       0.00000010 Ry

     iteration # 12     ecut=    80.00 Ry     beta= 0.70
     Davidson diagonalization with overlap

---- Real-time Memory Report at c_bands before calling an iterative solver
           219 MiB given to the printing process from OS
             0 MiB allocation reported by mallinfo(arena+hblkhd)
        250025 MiB available memory on the node where the printing process lives
------------------
     ethr =  6.08E-10,  avg # of iterations =  1.1

     total cpu time spent up to now is       21.4 secs

     total energy              =     -53.63249465 Ry
     estimated scf accuracy    <       0.00000016 Ry

     iteration # 13     ecut=    80.00 Ry     beta= 0.70
     Davidson diagonalization with overlap

---- Real-time Memory Report at c_bands before calling an iterative solver
           219 MiB given to the printing process from OS
             0 MiB allocation reported by mallinfo(arena+hblkhd)
        250025 MiB available memory on the node where the printing process lives
------------------
     ethr =  6.08E-10,  avg # of iterations =  6.1

     total cpu time spent up to now is       21.8 secs

     total energy              =     -53.63249328 Ry
     estimated scf accuracy    <       0.00000546 Ry

     iteration # 14     ecut=    80.00 Ry     beta= 0.70
     Davidson diagonalization with overlap

---- Real-time Memory Report at c_bands before calling an iterative solver
           219 MiB given to the printing process from OS
             0 MiB allocation reported by mallinfo(arena+hblkhd)
        250026 MiB available memory on the node where the printing process lives
------------------
     ethr =  6.08E-10,  avg # of iterations =  6.1

     total cpu time spent up to now is       22.2 secs

     total energy              =     -53.63249387 Ry
     estimated scf accuracy    <       0.00000073 Ry

     iteration # 15     ecut=    80.00 Ry     beta= 0.70
     Davidson diagonalization with overlap

---- Real-time Memory Report at c_bands before calling an iterative solver
           219 MiB given to the printing process from OS
             0 MiB allocation reported by mallinfo(arena+hblkhd)
        250026 MiB available memory on the node where the printing process lives
------------------
     ethr =  6.08E-10,  avg # of iterations =  2.2

     total cpu time spent up to now is       22.4 secs

     total energy              =     -53.63249381 Ry
     estimated scf accuracy    <       0.00000033 Ry

     iteration # 16     ecut=    80.00 Ry     beta= 0.70
[...]
             0 MiB allocation reported by mallinfo(arena+hblkhd)
        251540 MiB available memory on the node where the printing process lives
------------------
     ethr =  3.12E-06,  avg # of iterations =  2.0

     total cpu time spent up to now is      186.9 secs

     total energy              =     -53.63360051 Ry
     estimated scf accuracy    <       0.00003641 Ry

     iteration # 10     ecut=    80.00 Ry     beta= 0.70
     Davidson diagonalization with overlap

---- Real-time Memory Report at c_bands before calling an iterative solver
           222 MiB given to the printing process from OS
             0 MiB allocation reported by mallinfo(arena+hblkhd)
        251539 MiB available memory on the node where the printing process lives
------------------
     ethr =  2.28E-07,  avg # of iterations =  4.3

     total cpu time spent up to now is      187.1 secs

     total energy              =     -53.63362402 Ry
     estimated scf accuracy    <       0.00000360 Ry

     iteration # 11     ecut=    80.00 Ry     beta= 0.70
     Davidson diagonalization with overlap

---- Real-time Memory Report at c_bands before calling an iterative solver
           222 MiB given to the printing process from OS
             0 MiB allocation reported by mallinfo(arena+hblkhd)
        251539 MiB available memory on the node where the printing process lives
------------------
     ethr =  2.25E-08,  avg # of iterations =  2.7

     total cpu time spent up to now is      187.3 secs

     total energy              =     -53.63362424 Ry
     estimated scf accuracy    <       0.00000657 Ry

     iteration # 12     ecut=    80.00 Ry     beta= 0.70
     Davidson diagonalization with overlap

---- Real-time Memory Report at c_bands before calling an iterative solver
           222 MiB given to the printing process from OS
             0 MiB allocation reported by mallinfo(arena+hblkhd)
        251539 MiB available memory on the node where the printing process lives
------------------
     ethr =  2.25E-08,  avg # of iterations =  1.0

     total cpu time spent up to now is      187.5 secs

     total energy              =     -53.63362150 Ry
     estimated scf accuracy    <       0.00000600 Ry

     iteration # 13     ecut=    80.00 Ry     beta= 0.70
     Davidson diagonalization with overlap

---- Real-time Memory Report at c_bands before calling an iterative solver
           222 MiB given to the printing process from OS
             0 MiB allocation reported by mallinfo(arena+hblkhd)
        251539 MiB available memory on the node where the printing process lives
------------------
     ethr =  2.25E-08,  avg # of iterations =  2.0

     total cpu time spent up to now is      187.7 secs

     total energy              =     -53.63362240 Ry
     estimated scf accuracy    <       0.00000026 Ry

     iteration # 14     ecut=    80.00 Ry     beta= 0.70
     Davidson diagonalization with overlap

---- Real-time Memory Report at c_bands before calling an iterative solver
           222 MiB given to the printing process from OS
             0 MiB allocation reported by mallinfo(arena+hblkhd)
        251539 MiB available memory on the node where the printing process lives
------------------
     ethr =  1.61E-09,  avg # of iterations =  1.8

     total cpu time spent up to now is      187.9 secs

     total energy              =     -53.63362226 Ry
     estimated scf accuracy    <       0.00000029 Ry

     iteration # 15     ecut=    80.00 Ry     beta= 0.70
     Davidson diagonalization with overlap

---- Real-time Memory Report at c_bands before calling an iterative solver
           222 MiB given to the printing process from OS
             0 MiB allocation reported by mallinfo(arena+hblkhd)
        251539 MiB available memory on the node where the printing process lives
------------------
     ethr =  1.61E-09,  avg # of iterations =  3.3

     total cpu time spent up to now is      188.1 secs

     total energy              =     -53.63362239 Ry
     estimated scf accuracy    <       0.00000002 Ry

     iteration # 16     ecut=    80.00 Ry     beta= 0.70
     Davidson diagonalization with overlap

---- Real-time Memory Report at c_bands before calling an iterative solver
           222 MiB given to the printing process from OS
             0 MiB allocation reported by mallinfo(arena+hblkhd)
        251539 MiB available memory on the node where the printing process lives
------------------
     ethr =  1.36E-10,  avg # of iterations =  3.8

     total cpu time spent up to now is      188.4 secs

     total energy              =     -53.63362238 Ry
     estimated scf accuracy    <       0.00000008 Ry

     iteration # 17     ecut=    80.00 Ry     beta= 0.70
     Davidson diagonalization with overlap

---- Real-time Memory Report at c_bands before calling an iterative solver
           222 MiB given to the printing process from OS
             0 MiB allocation reported by mallinfo(arena+hblkhd)
        251539 MiB available memory on the node where the printing process lives
------------------
     ethr =  1.36E-10,  avg # of iterations =  1.3

     total cpu time spent up to now is      188.5 secs

     total energy              =     -53.63362238 Ry
     estimated scf accuracy    <       0.00000004 Ry

     iteration # 18     ecut=    80.00 Ry     beta= 0.70
     Davidson diagonalization with overlap

---- Real-time Memory Report at c_bands before calling an iterative solver
           222 MiB given to the printing process from OS
             0 MiB allocation reported by mallinfo(arena+hblkhd)
        251539 MiB available memory on the node where the printing process lives
------------------
     ethr =  1.36E-10,  avg # of iterations =  1.0

     total cpu time spent up to now is      188.7 secs

     total energy              =     -53.63362236 Ry
     estimated scf accuracy    <       0.00000004 Ry

     iteration # 19     ecut=    80.00 Ry     beta= 0.70
     Davidson diagonalization with overlap

---- Real-time Memory Report at c_bands before calling an iterative solver
           222 MiB given to the printing process from OS
             0 MiB allocation reported by mallinfo(arena+hblkhd)
        251539 MiB available memory on the node where the printing process lives
------------------
     ethr =  1.36E-10,  avg # of iterations =  2.5

     total cpu time spent up to now is      188.9 secs

     End of self-consistent calculation

          k = 0.0000 0.0000 0.0000 (  5551 PWs)   bands (ev):

   -17.8200 -17.8094  -5.5123  -5.3143  -1.5705  -1.5705  -1.5699  -1.5699

     occupation numbers 
     1.0000   1.0000   1.0000   1.0000   1.0000   1.0000   1.0000   1.0000

          k =-0.0000 0.0940-0.0000 (  5553 PWs)   bands (ev):

   -17.6871 -17.6767  -5.3325  -5.1370  -2.1276  -2.1243  -1.8272  -1.8265

     occupation numbers 
     1.0000   1.0000   1.0000   1.0000   1.0000   1.0000   1.0000   1.0000

          k =-0.0000 0.1880-0.0000 (  5542 PWs)   bands (ev):

   -17.2958 -17.2860  -4.8011  -4.6137  -3.5307  -3.5246  -2.4528  -2.4519

     occupation numbers 
     1.0000   1.0000   1.0000   1.0000   1.0000   1.0000   1.0000   1.0000

          k =-0.0000 0.2820-0.0000 (  5522 PWs)   bands (ev):

   -16.6731 -16.6644  -5.3073  -5.3000  -3.9476  -3.7749  -3.1790  -3.1779

     occupation numbers 
     1.0000   1.0000   1.0000   1.0000   1.0000   1.0000   1.0000   1.0000

          k =-0.0000 0.3760-0.0000 (  5548 PWs)   bands (ev):

   -15.8877 -15.8805  -7.0764  -7.0681  -3.8033  -3.8021  -2.8492  -2.7003

     occupation numbers 
     1.0000   1.0000   1.0000   1.0000   1.0000   1.0000   1.0000   1.0000

          k =-0.0000 0.4700-0.0000 (  5550 PWs)   bands (ev):

   -15.1158 -15.1103  -8.4922  -8.4825  -4.2130  -4.2118  -1.7192  -1.6054

     occupation numbers 
     1.0000   1.0000   1.0000   1.0000   1.0000   1.0000   1.0000   1.0000

          k = 0.0000-0.5640 0.0000 (  5542 PWs)   bands (ev):

   -14.7523 -14.7478  -9.0783  -9.0677  -4.3548  -4.3535  -1.1499  -1.0616

     occupation numbers 
     1.0000   1.0000   1.0000   1.0000   1.0000   1.0000   1.0000   1.0000

          k = 0.0814 0.1410-0.0000 (  5533 PWs)   bands (ev):

   -17.4249 -17.4149  -4.9767  -4.7866  -3.0405  -3.0351  -2.3355  -2.3344

     occupation numbers 
     1.0000   1.0000   1.0000   1.0000   1.0000   1.0000   1.0000   1.0000

          k = 0.0814 0.2350-0.0000 (  5543 PWs)   bands (ev):

   -16.9165 -16.9074  -4.5208  -4.5137  -4.2821  -4.1036  -3.1228  -3.1211

     occupation numbers 
     1.0000   1.0000   1.0000   1.0000   1.0000   1.0000   1.0000   1.0000

          k = 0.0814 0.3290-0.0000 (  5528 PWs)   bands (ev):

   -16.2061 -16.1983  -6.2282  -6.2206  -3.8676  -3.8656  -3.2994  -3.1396

     occupation numbers 
     1.0000   1.0000   1.0000   1.0000   1.0000   1.0000   1.0000   1.0000

          k = 0.0814 0.4230-0.0000 (  5552 PWs)   bands (ev):

   -15.4037 -15.3974  -7.8089  -7.8002  -4.4179  -4.4157  -2.1527  -2.0225

     occupation numbers 
     1.0000   1.0000   1.0000   1.0000   1.0000   1.0000   1.0000   1.0000

          k = 0.0814 0.5170-0.0000 (  5556 PWs)   bands (ev):

   -14.7838 -14.7791  -8.8476  -8.8376  -4.7064  -4.7041  -1.2085  -1.1144

     occupation numbers 
     1.0000   1.0000   1.0000   1.0000   1.0000   1.0000   1.0000   1.0000

          k = 0.1628 0.2820-0.0000 (  5557 PWs)   bands (ev):

   -16.3163 -16.3083  -5.7268  -5.7198  -4.1369  -4.1339  -3.4542  -3.2908

     occupation numbers 
     1.0000   1.0000   1.0000   1.0000   1.0000   1.0000   1.0000   1.0000

          k = 0.1628 0.3760-0.0000 (  5522 PWs)   bands (ev):

   -15.5670 -15.5604  -7.0732  -7.0656  -5.0010  -4.9972  -2.3950  -2.2562

     occupation numbers 
     1.0000   1.0000   1.0000   1.0000   1.0000   1.0000   1.0000   1.0000

          k = 0.1628 0.4700-0.0000 (  5541 PWs)   bands (ev):

   -14.8441 -14.8390  -8.2564  -8.2477  -5.5210  -5.5166  -1.3184  -1.2142

     occupation numbers 
     1.0000   1.0000   1.0000   1.0000   1.0000   1.0000   1.0000   1.0000

          k = 0.1628 0.5640-0.0000 (  5558 PWs)   bands (ev):

   -14.5111 -14.5069  -8.7602  -8.7508  -5.6921  -5.6877  -0.7837  -0.7037

     occupation numbers 
     1.0000   1.0000   1.0000   1.0000   1.0000   1.0000   1.0000   1.0000

          k = 0.2442 0.4230-0.0000 (  5541 PWs)   bands (ev):

   -14.8730 -14.8678  -7.7971  -7.7896  -6.0840  -6.0783  -1.3702  -1.2615

     occupation numbers 
     1.0000   1.0000   1.0000   1.0000   1.0000   1.0000   1.0000   1.0000

          k = 0.2442 0.5170-0.0000 (  5554 PWs)   bands (ev):

   -14.3683 -14.3643  -8.3092  -8.3015  -6.6916  -6.6847  -0.5642  -0.4879

     occupation numbers 
     1.0000   1.0000   1.0000   1.0000   1.0000   1.0000   1.0000   1.0000

          k = 0.3256 0.5640-0.0000 (  5553 PWs)   bands (ev):

   -14.1760 -14.1725  -8.0913  -8.0859  -7.3748  -7.3648  -0.2389  -0.1765

     occupation numbers 
     1.0000   1.0000   1.0000   1.0000   1.0000   1.0000   1.0000   1.0000

     the Fermi energy is     0.5477 ev

!    total energy              =     -53.63362237 Ry
     estimated scf accuracy    <          1.2E-10 Ry
     smearing contrib. (-TS)   =       0.00000000 Ry
     internal energy E=F+TS    =     -53.63362237 Ry

     The total energy is F=E-TS. E is the sum of the following terms:
     one-electron contribution =    -125.22511256 Ry
     hartree contribution      =      68.10015159 Ry
     xc contribution           =     -17.31013857 Ry
     ewald contribution        =      20.80147716 Ry

     convergence has been achieved in  19 iterations

     Forces acting on atoms (cartesian axes, Ry/au):

     atom    1 type  1   force =     0.00000000   -0.00000000   -0.00001538
     atom    2 type  2   force =     0.00000000   -0.00000000   -0.00001588
     atom    3 type  1   force =    -0.00000000   -0.00000000    0.00001538
     atom    4 type  2   force =    -0.00000000    0.00000000    0.00001588
     The non-local contrib.  to forces
     atom    1 type  1   force =    -0.00000000   -0.00000000   -0.00022772
     atom    2 type  2   force =    -0.00000000   -0.00000000   -0.00003775
     atom    3 type  1   force =     0.00000000   -0.00000000    0.00022772
     atom    4 type  2   force =     0.00000000   -0.00000000    0.00003775
     The ionic contribution  to forces
     atom    1 type  1   force =    -0.00000001    0.00000000   -7.36175257
     atom    2 type  2   force =     0.00000001   -0.00000000   -4.41695460
     atom    3 type  1   force =    -0.00000001    0.00000000    7.36175257
     atom    4 type  2   force =     0.00000001   -0.00000000    4.41695460
     The local contribution  to forces
     atom    1 type  1   force =    -0.00000000    0.00000000    7.36196298
     atom    2 type  2   force =    -0.00000000    0.00000000    4.41697798
     atom    3 type  1   force =    -0.00000000    0.00000000   -7.36196298
     atom    4 type  2   force =    -0.00000000    0.00000000   -4.41697798
     The core correction contribution to forces
     atom    1 type  1   force =    -0.00000000    0.00000000    0.00000675
     atom    2 type  2   force =    -0.00000000    0.00000000    0.00000106
     atom    3 type  1   force =    -0.00000000    0.00000000   -0.00000675
     atom    4 type  2   force =    -0.00000000    0.00000000   -0.00000106
     The Hubbard contrib.    to forces
     atom    1 type  1   force =     0.00000000    0.00000000    0.00000000
     atom    2 type  2   force =     0.00000000    0.00000000    0.00000000
     atom    3 type  1   force =     0.00000000    0.00000000    0.00000000
     atom    4 type  2   force =     0.00000000    0.00000000    0.00000000
     The SCF correction term to forces
     atom    1 type  1   force =     0.00000000    0.00000000   -0.00000483
     atom    2 type  2   force =    -0.00000000    0.00000000   -0.00000258
     atom    3 type  1   force =     0.00000000    0.00000000    0.00000483
     atom    4 type  2   force =    -0.00000000    0.00000000    0.00000258

     Total force =     0.000031     Total SCF correction =     0.000008
     SCF correction compared to forces is large: reduce conv_thr to get better values


     Computing stress (Cartesian axis) and pressure

          total   stress  (Ry/bohr**3)                   (kbar)     P=        0.07
   0.00000139   0.00000000   0.00000000            0.20        0.00        0.00
   0.00000000   0.00000139  -0.00000000            0.00        0.20       -0.00
  -0.00000000  -0.00000000  -0.00000133           -0.00       -0.00       -0.20

     kinetic stress (kbar)   7745.09      0.00     -0.00
                                0.00   7745.09      0.00
                               -0.00      0.00   8462.46

     local   stress (kbar) -44806.21      0.00      0.00
                                0.00 -44806.21     -0.00
                                0.00     -0.00  45891.31

     nonloc. stress (kbar)  -1274.49     -0.00     -0.00
                               -0.00  -1274.49      0.00
                               -0.00      0.00  -1238.45

     hartree stress (kbar)  20494.61     -0.00      0.00
                               -0.00  20494.61     -0.00
                                0.00     -0.00 -19154.66

     exc-cor stress (kbar)   -770.32     -0.00     -0.00
                               -0.00   -770.32      0.00
                               -0.00      0.00   -828.20

     corecor stress (kbar)   -864.93      0.00     -0.00
                                0.00   -864.93     -0.00
                               -0.00     -0.00   -849.19

     ewald   stress (kbar)  19476.46     -0.00     -0.00
                               -0.00  19476.46      0.00
                               -0.00      0.00 -32283.47

     hubbard stress (kbar)      0.00      0.00      0.00
                                0.00      0.00      0.00
                                0.00      0.00      0.00

     DFT-D   stress (kbar)      0.00      0.00      0.00
                                0.00      0.00      0.00
                                0.00      0.00      0.00

     XDM     stress (kbar)      0.00      0.00      0.00
                                0.00      0.00      0.00
                                0.00      0.00      0.00

     dft-nl  stress (kbar)      0.00      0.00      0.00
                                0.00      0.00      0.00
                                0.00      0.00      0.00

     TS-vdW  stress (kbar)      0.00      0.00      0.00
                                0.00      0.00      0.00
                                0.00      0.00      0.00

     MDB     stress (kbar)      0.00      0.00      0.00
                                0.00      0.00      0.00
                                0.00      0.00      0.00

     3D-RISM stress (kbar)      0.00      0.00      0.00
                                0.00      0.00      0.00
                                0.00      0.00      0.00


     Writing all to output data dir ./graphene.save/
 
     init_run     :      1.07s CPU      1.31s WALL (       2 calls)
     electrons    :    135.35s CPU    142.97s WALL (      32 calls)
     update_pot   :     14.24s CPU     15.03s WALL (      30 calls)
     forces       :      8.79s CPU     10.00s WALL (      32 calls)
     stress       :     17.70s CPU     19.58s WALL (      32 calls)

     Called by init_run:
     wfcinit      :      0.21s CPU      0.22s WALL (       2 calls)
     wfcinit:atom :      0.00s CPU      0.00s WALL (      20 calls)
     wfcinit:wfcr :      0.20s CPU      0.20s WALL (      20 calls)
     potinit      :      0.28s CPU      0.38s WALL (       2 calls)
     hinit0       :      0.47s CPU      0.54s WALL (       2 calls)

     Called by electrons:
     c_bands      :    110.25s CPU    112.84s WALL (     566 calls)
     sum_band     :     15.65s CPU     16.16s WALL (     566 calls)
     v_of_rho     :      7.85s CPU     12.30s WALL (     597 calls)
     v_h          :      0.65s CPU      1.02s WALL (     597 calls)
     v_xc         :      7.89s CPU     12.53s WALL (     661 calls)
     mix_rho      :      1.25s CPU      1.35s WALL (     566 calls)

     Called by c_bands:
     init_us_2    :      3.03s CPU      3.10s WALL (   11980 calls)
     init_us_2:cp :      2.98s CPU      3.08s WALL (   11980 calls)
     cegterg      :     99.02s CPU    100.51s WALL (    5664 calls)

     Called by sum_band:
     sum_band:wei :      0.04s CPU      0.04s WALL (     566 calls)
     sum_band:loo :     14.38s CPU     14.59s WALL (     566 calls)
     sum_band:buf :      0.23s CPU      0.24s WALL (    5660 calls)
     sum_band:ini :      1.55s CPU      1.58s WALL (    5660 calls)

     Called by *egterg:
     cdiaghg      :      2.08s CPU      2.11s WALL (   20480 calls)
     cegterg:over :      5.44s CPU      5.52s WALL (   15130 calls)
     cegterg:upda :      1.24s CPU      1.26s WALL (   15130 calls)
     cegterg:last :      2.23s CPU      2.27s WALL (   13382 calls)
     h_psi        :     85.41s CPU     86.74s WALL (   20814 calls)
     g_psi        :      0.46s CPU      0.46s WALL (   15130 calls)

     Called by h_psi:
     h_psi:calbec :      6.22s CPU      6.30s WALL (   20814 calls)
     vloc_psi     :     72.19s CPU     73.36s WALL (   20814 calls)
     add_vuspsi   :      6.43s CPU      6.52s WALL (   20814 calls)

     General routines
     calbec       :      6.40s CPU      6.51s WALL (   22414 calls)
     fft          :      6.91s CPU     12.86s WALL (    6769 calls)
     ffts         :      0.26s CPU      0.31s WALL (     566 calls)
     fftw         :     75.83s CPU     76.99s WALL (  319084 calls)
 
     Parallel routines
 
     PWSCF        :   2m57.77s CPU   3m 9.94s WALL

 
   This run was terminated on:  11:51: 2   8Apr2024            

=------------------------------------------------------------------------------=
   JOB DONE.
=------------------------------------------------------------------------------=
