MPI startup(): Warning: I_MPI_PMI_LIBRARY will be ignored since the hydra process manager was found

     Program PROJWFC v.6.8 starts on 15Apr2024 at 13:53:57 

     This program is part of the open-source Quantum ESPRESSO suite
     for quantum simulation of materials; please cite
         "P. Giannozzi et al., J. Phys.:Condens. Matter 21 395502 (2009);
         "P. Giannozzi et al., J. Phys.:Condens. Matter 29 465901 (2017);
         "P. Giannozzi et al., J. Chem. Phys. 152 154105 (2020);
          URL http://www.quantum-espresso.org", 
     in publications or presentations arising from this work. More details at
     http://www.quantum-espresso.org/quote

     Parallel version (MPI), running on     1 processors

     MPI processes distributed on     1 nodes
     177658 MiB available memory on the printing compute node when the environment starts
 

     Reading xml data from directory:

     ./tmp/1L-MoS2.save/

     IMPORTANT: XC functional enforced from input :
     Exchange-correlation= VDW-DF2-B86R
                           (   1   4  26   0   2   0   0)
     Any further DFT definition will be discarded
     Please, verify this is what you really want

 
     G-vector sticks info
     --------------------
     sticks:   dense  smooth     PW     G-vecs:    dense   smooth      PW
     Sum         673     673    199                83307    83307   13341
 
     Using Slab Decomposition
 


     %%%%%%%%%%%%%%%%%%%%%%%%%%%%%%%%%%%%%%%%%%%%%%%%%%%%%%%%%%%%%%%%%%%%%%%%
     %                                                                      %
     % You are using vdW-DF, which was implemented by the Thonhauser group. %
     % Please cite the following two papers that made this development      %
     % possible and the two reviews that describe the various versions:     %
     %                                                                      %
     %   T. Thonhauser et al., PRL 115, 136402 (2015).                      %
     %   T. Thonhauser et al., PRB 76, 125112 (2007).                       %
     %   K. Berland et al., Rep. Prog. Phys. 78, 066501 (2015).             %
     %   D.C. Langreth et al., J. Phys.: Condens. Matter 21, 084203 (2009). %
     %                                                                      %
     %                                                                      %
     % If you are calculating the stress with vdW-DF, please also cite:     %
     %                                                                      %
     %   R. Sabatini et al., J. Phys.: Condens. Matter 24, 424209 (2012).   %
     %                                                                      %
     %%%%%%%%%%%%%%%%%%%%%%%%%%%%%%%%%%%%%%%%%%%%%%%%%%%%%%%%%%%%%%%%%%%%%%%%



     Gaussian broadening (default values): ngauss,degauss=   0    0.000735


     Calling projwave .... 

     Subspace diagonalization in iterative solution of the eigenvalue problem:
     a serial algorithm will be used

 
  Problem Sizes 
  natomwfc =           18
  nbnd     =           20
  nkstot   =           41
  npwx     =        10512
  nkb      =           54
 

     Atomic states used for projection
     (read from pseudopotential files):

     state #   1: atom   1 (Mo ), wfc  1 (l=0 m= 1)
     state #   2: atom   1 (Mo ), wfc  2 (l=1 m= 1)
     state #   3: atom   1 (Mo ), wfc  2 (l=1 m= 2)
     state #   4: atom   1 (Mo ), wfc  2 (l=1 m= 3)
     state #   5: atom   1 (Mo ), wfc  3 (l=2 m= 1)
     state #   6: atom   1 (Mo ), wfc  3 (l=2 m= 2)
     state #   7: atom   1 (Mo ), wfc  3 (l=2 m= 3)
     state #   8: atom   1 (Mo ), wfc  3 (l=2 m= 4)
     state #   9: atom   1 (Mo ), wfc  3 (l=2 m= 5)
     state #  10: atom   1 (Mo ), wfc  4 (l=0 m= 1)
     state #  11: atom   2 (S  ), wfc  1 (l=0 m= 1)
     state #  12: atom   2 (S  ), wfc  2 (l=1 m= 1)
     state #  13: atom   2 (S  ), wfc  2 (l=1 m= 2)
     state #  14: atom   2 (S  ), wfc  2 (l=1 m= 3)
     state #  15: atom   3 (S  ), wfc  1 (l=0 m= 1)
     state #  16: atom   3 (S  ), wfc  2 (l=1 m= 1)
     state #  17: atom   3 (S  ), wfc  2 (l=1 m= 2)
     state #  18: atom   3 (S  ), wfc  2 (l=1 m= 3)

 k =   0.0000000000  0.0000000000  0.0000000000
==== e(   1) =   -61.31195 eV ==== 
     psi = 0.954*[#   1]+0.020*[#  10]+0.010*[#  12]+0.010*[#  16]+0.004*[#   5]
          +0.001*[#  11]+0.001*[#  15]
    |psi|^2 = 1.000
==== e(   2) =   -35.48889 eV ==== 
     psi = 0.978*[#   2]+0.007*[#  11]+0.007*[#  15]+0.004*[#  12]+0.004*[#  16]
          
    |psi|^2 = 1.000
==== e(   3) =   -35.23939 eV ==== 
     psi = 0.749*[#   4]+0.248*[#   3]
    |psi|^2 = 1.000
==== e(   4) =   -35.23689 eV ==== 
     psi = 0.749*[#   3]+0.249*[#   4]
    |psi|^2 = 1.000
==== e(   5) =   -14.65416 eV ==== 
     psi = 0.426*[#  10]+0.269*[#  15]+0.269*[#  11]+0.021*[#   1]+0.006*[#  12]
          +0.006*[#  16]+0.002*[#   5]
    |psi|^2 = 0.999
==== e(   6) =   -13.36096 eV ==== 
     psi = 0.491*[#  11]+0.490*[#  15]+0.014*[#   2]
    |psi|^2 = 0.996
==== e(   7) =    -6.17356 eV ==== 
     psi = 0.340*[#   5]+0.263*[#  12]+0.263*[#  16]+0.034*[#  11]+0.034*[#  15]
          +0.029*[#  10]+0.023*[#   1]
    |psi|^2 = 0.986
==== e(   8) =    -3.07452 eV ==== 
     psi = 0.510*[#   9]+0.170*[#   8]+0.116*[#  17]+0.116*[#  13]+0.039*[#  14]
          +0.039*[#  18]
    |psi|^2 = 0.991
==== e(   9) =    -3.05610 eV ==== 
     psi = 0.510*[#   8]+0.170*[#   9]+0.116*[#  18]+0.116*[#  14]+0.039*[#  13]
          +0.039*[#  17]
    |psi|^2 = 0.991
==== e(  10) =    -2.39490 eV ==== 
     psi = 0.492*[#  12]+0.492*[#  16]+0.008*[#   2]
    |psi|^2 = 0.994
==== e(  11) =    -1.97486 eV ==== 
     psi = 0.431*[#   7]+0.155*[#  14]+0.155*[#  18]+0.144*[#   6]+0.052*[#  13]
          +0.052*[#  17]
    |psi|^2 = 0.987
==== e(  12) =    -1.89468 eV ==== 
     psi = 0.431*[#   6]+0.155*[#  13]+0.155*[#  17]+0.144*[#   7]+0.052*[#  14]
          +0.052*[#  18]
    |psi|^2 = 0.987
==== e(  13) =    -0.64545 eV ==== 
     psi = 0.589*[#   5]+0.183*[#  12]+0.183*[#  16]+0.005*[#  11]+0.005*[#  15]
          +0.002*[#  10]
    |psi|^2 = 0.969
==== e(  14) =     2.30245 eV ==== 
     psi = 0.300*[#   6]+0.214*[#  17]+0.214*[#  13]+0.100*[#   7]+0.071*[#  14]
          +0.071*[#  18]
    |psi|^2 = 0.971
==== e(  15) =     2.39457 eV ==== 
     psi = 0.300*[#   7]+0.214*[#  18]+0.214*[#  14]+0.100*[#   6]+0.071*[#  13]
          +0.071*[#  17]
    |psi|^2 = 0.971
==== e(  16) =     2.54786 eV ==== 
     psi = 0.255*[#  14]+0.255*[#  18]+0.229*[#   8]+0.085*[#  13]+0.085*[#  17]
          +0.076*[#   9]+0.001*[#   4]
    |psi|^2 = 0.988
==== e(  17) =     2.58509 eV ==== 
     psi = 0.255*[#  13]+0.255*[#  17]+0.230*[#   9]+0.085*[#  14]+0.085*[#  18]
          +0.077*[#   8]
    |psi|^2 = 0.988
==== e(  18) =     4.70216 eV ==== 
     psi = 0.110*[#  10]+0.043*[#  11]+0.043*[#  15]+0.031*[#   5]+0.006*[#  12]
          +0.006*[#  16]
    |psi|^2 = 0.239
==== e(  19) =     4.91430 eV ==== 
 
    |psi|^2 = 0.000
==== e(  20) =     5.88661 eV ==== 
     psi = 0.288*[#  10]+0.101*[#  11]+0.101*[#  15]+0.018*[#  12]+0.018*[#  16]
          +0.004*[#   5]
    |psi|^2 = 0.530

 k =   0.0000000000  0.1283000598  0.0000000000
==== e(   1) =   -61.30693 eV ==== 
     psi = 0.959*[#   1]+0.014*[#  10]+0.009*[#  12]+0.009*[#  16]+0.003*[#   5]
          +0.001*[#  11]+0.001*[#  15]+0.001*[#  14]+0.001*[#  18]
    |psi|^2 = 1.000
==== e(   2) =   -35.47909 eV ==== 
     psi = 0.978*[#   2]+0.006*[#  11]+0.006*[#  15]+0.003*[#  12]+0.003*[#  16]
          +0.001*[#  14]+0.001*[#  18]
    |psi|^2 = 1.000
==== e(   3) =   -35.28833 eV ==== 
     psi = 0.991*[#   4]+0.003*[#  10]+0.001*[#  14]+0.001*[#  18]
    |psi|^2 = 1.000
==== e(   4) =   -35.24869 eV ==== 
     psi = 0.996*[#   3]+0.001*[#  13]+0.001*[#  17]
    |psi|^2 = 1.000
==== e(   5) =   -14.46626 eV ==== 
     psi = 0.394*[#  10]+0.280*[#  15]+0.280*[#  11]+0.018*[#   1]+0.007*[#  12]
          +0.007*[#  16]+0.004*[#  14]+0.004*[#  18]+0.003*[#   8]+0.003*[#   4]
          +0.002*[#   5]
    |psi|^2 = 0.999
==== e(   6) =   -13.28285 eV ==== 
     psi = 0.468*[#  11]+0.468*[#  15]+0.032*[#   7]+0.014*[#   2]+0.008*[#  14]
          +0.008*[#  18]
    |psi|^2 = 0.997
==== e(   7) =    -5.96069 eV ==== 
     psi = 0.319*[#   5]+0.267*[#  12]+0.267*[#  16]+0.031*[#  11]+0.031*[#  15]
          +0.028*[#  10]+0.018*[#   1]+0.014*[#   8]+0.004*[#  14]+0.004*[#  18]
          +0.003*[#   4]
    |psi|^2 = 0.986
==== e(   8) =    -3.45638 eV ==== 
     psi = 0.602*[#   8]+0.166*[#  18]+0.166*[#  14]+0.021*[#  10]+0.011*[#  11]
          +0.011*[#  15]+0.003*[#  12]+0.003*[#  16]+0.002*[#   1]+0.002*[#   5]
          
    |psi|^2 = 0.988
==== e(   9) =    -3.04409 eV ==== 
     psi = 0.298*[#   7]+0.242*[#  12]+0.242*[#  16]+0.103*[#  14]+0.103*[#  18]
          +0.002*[#   2]
    |psi|^2 = 0.992
==== e(  10) =    -2.87252 eV ==== 
     psi = 0.645*[#   9]+0.172*[#  17]+0.172*[#  13]+0.001*[#   3]
    |psi|^2 = 0.990
==== e(  11) =    -2.20402 eV ==== 
     psi = 0.559*[#   6]+0.214*[#  13]+0.213*[#  17]
    |psi|^2 = 0.988
==== e(  12) =    -1.60126 eV ==== 
     psi = 0.239*[#  12]+0.239*[#  16]+0.170*[#  14]+0.170*[#  18]+0.155*[#   7]
          +0.006*[#   2]
    |psi|^2 = 0.983
==== e(  13) =    -0.72335 eV ==== 
     psi = 0.584*[#   5]+0.158*[#  12]+0.158*[#  16]+0.027*[#   8]+0.013*[#  14]
          +0.013*[#  18]+0.010*[#  11]+0.010*[#  15]+0.001*[#   1]+0.001*[#  10]
          
    |psi|^2 = 0.973
==== e(  14) =     2.06775 eV ==== 
     psi = 0.327*[#   8]+0.273*[#  14]+0.273*[#  18]+0.022*[#   5]+0.018*[#  12]
          +0.018*[#  16]+0.013*[#  11]+0.013*[#  15]+0.008*[#  10]
    |psi|^2 = 0.967
==== e(  15) =     2.15769 eV ==== 
     psi = 0.481*[#   7]+0.207*[#  14]+0.207*[#  18]+0.022*[#  11]+0.022*[#  15]
          +0.010*[#  12]+0.010*[#  16]+0.003*[#   6]+0.002*[#  13]+0.002*[#  17]
          
    |psi|^2 = 0.967
==== e(  16) =     2.37303 eV ==== 
     psi = 0.339*[#   9]+0.320*[#  13]+0.320*[#  17]+0.001*[#   3]
    |psi|^2 = 0.983
==== e(  17) =     2.63703 eV ==== 
     psi = 0.414*[#   6]+0.278*[#  13]+0.278*[#  17]+0.003*[#   7]+0.001*[#  14]
          +0.001*[#  18]
    |psi|^2 = 0.976
==== e(  18) =     5.00698 eV ==== 
     psi = 0.077*[#  10]+0.031*[#   5]+0.023*[#  11]+0.023*[#  15]+0.010*[#  14]
          +0.010*[#  18]+0.003*[#   8]+0.003*[#  12]+0.003*[#  16]
    |psi|^2 = 0.183
==== e(  19) =     5.15989 eV ==== 
     psi = 0.001*[#   7]
    |psi|^2 = 0.002
==== e(  20) =     6.34793 eV ==== 
     psi = 0.104*[#  10]+0.030*[#  11]+0.030*[#  15]+0.010*[#   5]+0.006*[#  14]
          +0.006*[#  18]+0.006*[#  12]+0.006*[#  16]
    |psi|^2 = 0.199

 k =   0.0000000000  0.2566001196  0.0000000000
==== e(   1) =   -61.29421 eV ==== 
     psi = 0.969*[#   1]+0.008*[#  12]+0.008*[#  16]+0.004*[#  14]+0.004*[#  18]
          +0.003*[#  10]+0.002*[#  11]+0.002*[#  15]+0.001*[#   8]
    |psi|^2 = 1.000
==== e(   2) =   -35.45431 eV ==== 
     psi = 0.979*[#   2]+0.004*[#  11]+0.004*[#  14]+0.004*[#  15]+0.004*[#  18]
          +0.002*[#  12]+0.002*[#  16]+0.001*[#   7]
    |psi|^2 = 1.000
==== e(   3) =   -35.41232 eV ==== 
     psi = 0.980*[#   4]+0.009*[#  10]+0.003*[#  12]+0.003*[#  16]+0.001*[#   5]
          
    |psi|^2 = 1.000
==== e(   4) =   -35.27712 eV ==== 
     psi = 0.995*[#   3]+0.002*[#  13]+0.002*[#  17]
    |psi|^2 = 1.000
==== e(   5) =   -13.95462 eV ==== 
     psi = 0.313*[#  15]+0.312*[#  11]+0.300*[#  10]+0.016*[#   8]+0.011*[#  14]
          +0.011*[#  18]+0.010*[#   1]+0.008*[#   4]+0.007*[#  12]+0.007*[#  16]
          +0.003*[#   5]
    |psi|^2 = 0.999
==== e(   6) =   -13.07132 eV ==== 
     psi = 0.428*[#  11]+0.427*[#  15]+0.100*[#   7]+0.016*[#  14]+0.016*[#  18]
          +0.012*[#   2]
    |psi|^2 = 0.999
==== e(   7) =    -5.55019 eV ==== 
     psi = 0.235*[#  12]+0.235*[#  16]+0.228*[#   5]+0.151*[#   8]+0.043*[#  14]
          +0.043*[#  18]+0.015*[#  11]+0.015*[#  15]+0.010*[#  10]+0.007*[#   1]
          +0.006*[#   4]
    |psi|^2 = 0.987
==== e(   8) =    -4.17402 eV ==== 
     psi = 0.308*[#   8]+0.179*[#  18]+0.179*[#  14]+0.072*[#  10]+0.056*[#  12]
          +0.056*[#  16]+0.043*[#   5]+0.039*[#  11]+0.039*[#  15]+0.009*[#   1]
          +0.004*[#   4]
    |psi|^2 = 0.984
==== e(   9) =    -3.91615 eV ==== 
     psi = 0.307*[#   7]+0.206*[#  14]+0.206*[#  18]+0.127*[#  12]+0.127*[#  16]
          +0.008*[#  11]+0.008*[#  15]
    |psi|^2 = 0.989
==== e(  10) =    -2.78819 eV ==== 
     psi = 0.539*[#   6]+0.226*[#  17]+0.225*[#  13]
    |psi|^2 = 0.990
==== e(  11) =    -2.35844 eV ==== 
     psi = 0.523*[#   9]+0.231*[#  13]+0.230*[#  17]+0.003*[#   3]
    |psi|^2 = 0.987
==== e(  12) =    -1.74882 eV ==== 
     psi = 0.302*[#  12]+0.302*[#  16]+0.173*[#  14]+0.173*[#  18]+0.010*[#  11]
          +0.010*[#  15]+0.009*[#   2]+0.007*[#   7]
    |psi|^2 = 0.987
==== e(  13) =    -1.14985 eV ==== 
     psi = 0.490*[#   5]+0.184*[#   8]+0.090*[#  12]+0.090*[#  16]+0.042*[#  14]
          +0.042*[#  18]+0.017*[#  11]+0.017*[#  15]+0.006*[#  10]+0.001*[#   1]
          
    |psi|^2 = 0.982
==== e(  14) =     1.60970 eV ==== 
     psi = 0.295*[#   8]+0.172*[#   5]+0.167*[#  14]+0.167*[#  18]+0.058*[#  12]
          +0.058*[#  16]+0.009*[#  11]+0.009*[#  15]+0.009*[#  10]
    |psi|^2 = 0.946
==== e(  15) =     1.98563 eV ==== 
     psi = 0.458*[#   9]+0.260*[#  13]+0.260*[#  17]+0.001*[#   3]
    |psi|^2 = 0.981
==== e(  16) =     2.30921 eV ==== 
     psi = 0.543*[#   7]+0.093*[#  14]+0.093*[#  18]+0.062*[#  12]+0.062*[#  16]
          +0.047*[#  11]+0.047*[#  15]
    |psi|^2 = 0.949
==== e(  17) =     3.21773 eV ==== 
     psi = 0.440*[#   6]+0.271*[#  13]+0.271*[#  17]
    |psi|^2 = 0.983
==== e(  18) =     5.68041 eV ==== 
     psi = 0.081*[#  10]+0.028*[#   5]+0.014*[#  11]+0.014*[#  15]+0.010*[#  14]
          +0.010*[#  18]+0.003*[#   8]+0.002*[#  12]+0.002*[#  16]
    |psi|^2 = 0.164
==== e(  19) =     5.84567 eV ==== 
     psi = 0.004*[#   7]
    |psi|^2 = 0.006
==== e(  20) =     7.06644 eV ==== 
     psi = 0.059*[#  10]+0.011*[#  11]+0.011*[#  15]+0.008*[#   5]+0.004*[#  14]
          +0.004*[#  18]+0.003*[#  12]+0.003*[#  16]
    |psi|^2 = 0.104

 k =   0.0000000000  0.3849001795  0.0000000000
==== e(   1) =   -61.27970 eV ==== 
     psi = 0.968*[#   1]+0.007*[#  14]+0.007*[#  18]+0.005*[#  12]+0.005*[#  16]
          +0.004*[#   8]+0.002*[#  10]+0.001*[#  11]+0.001*[#  15]
    |psi|^2 = 1.000
==== e(   2) =   -35.55037 eV ==== 
     psi = 0.972*[#   4]+0.008*[#  10]+0.005*[#  12]+0.005*[#  16]+0.002*[#  11]
          +0.002*[#  15]+0.001*[#   5]+0.001*[#  14]+0.001*[#  18]
    |psi|^2 = 1.000
==== e(   3) =   -35.42599 eV ==== 
     psi = 0.981*[#   2]+0.006*[#  14]+0.006*[#  18]+0.002*[#  11]+0.002*[#  15]
          +0.001*[#  12]+0.001*[#  16]
    |psi|^2 = 1.000
==== e(   4) =   -35.30923 eV ==== 
     psi = 0.994*[#   3]+0.003*[#  13]+0.003*[#  17]
    |psi|^2 = 1.000
==== e(   5) =   -13.28407 eV ==== 
     psi = 0.364*[#  15]+0.364*[#  11]+0.166*[#  10]+0.043*[#   8]+0.013*[#  14]
          +0.013*[#  18]+0.011*[#   4]+0.009*[#  12]+0.009*[#  16]+0.004*[#   1]
          +0.003*[#   5]
    |psi|^2 = 0.999
==== e(   6) =   -12.80087 eV ==== 
     psi = 0.402*[#  11]+0.401*[#  15]+0.165*[#   7]+0.012*[#  14]+0.012*[#  18]
          +0.007*[#   2]
    |psi|^2 = 0.999
==== e(   7) =    -5.77436 eV ==== 
     psi = 0.322*[#   8]+0.206*[#  18]+0.206*[#  14]+0.065*[#   5]+0.064*[#  12]
          +0.064*[#  16]+0.025*[#  10]+0.013*[#  11]+0.012*[#  15]+0.006*[#   1]
          +0.002*[#   4]
    |psi|^2 = 0.986
==== e(   8) =    -4.74255 eV ==== 
     psi = 0.309*[#  14]+0.309*[#  18]+0.224*[#   7]+0.053*[#  12]+0.053*[#  16]
          +0.018*[#  11]+0.018*[#  15]+0.004*[#   2]
    |psi|^2 = 0.989
==== e(   9) =    -4.38166 eV ==== 
     psi = 0.218*[#  12]+0.218*[#  16]+0.151*[#   5]+0.102*[#  14]+0.102*[#  18]
          +0.054*[#  10]+0.049*[#  11]+0.049*[#  15]+0.023*[#   8]+0.010*[#   4]
          +0.006*[#   1]
    |psi|^2 = 0.983
==== e(  10) =    -3.30901 eV ==== 
     psi = 0.527*[#   6]+0.233*[#  17]+0.232*[#  13]
    |psi|^2 = 0.992
==== e(  11) =    -2.17905 eV ==== 
     psi = 0.321*[#  12]+0.321*[#  16]+0.117*[#  14]+0.117*[#  18]+0.064*[#   7]
          +0.022*[#  11]+0.022*[#  15]+0.007*[#   2]
    |psi|^2 = 0.992
==== e(  12) =    -1.77206 eV ==== 
     psi = 0.334*[#  13]+0.334*[#  17]+0.299*[#   9]+0.005*[#   3]+0.004*[#   5]
          +0.003*[#   8]+0.001*[#  12]+0.001*[#  16]
    |psi|^2 = 0.983
==== e(  13) =    -1.52988 eV ==== 
     psi = 0.371*[#   5]+0.304*[#   8]+0.096*[#  12]+0.096*[#  16]+0.040*[#  10]
          +0.019*[#  14]+0.019*[#  18]+0.009*[#  11]+0.009*[#  15]+0.004*[#   9]
          +0.004*[#  13]+0.004*[#  17]+0.003*[#   4]
    |psi|^2 = 0.980
==== e(  14) =     1.76645 eV ==== 
     psi = 0.644*[#   9]+0.143*[#  13]+0.143*[#  17]+0.020*[#   5]+0.014*[#   8]
          +0.006*[#  14]+0.006*[#  18]+0.003*[#  12]+0.003*[#  16]
    |psi|^2 = 0.984
==== e(  15) =     1.80882 eV ==== 
     psi = 0.339*[#   5]+0.228*[#   8]+0.101*[#  14]+0.101*[#  18]+0.050*[#  12]
          +0.050*[#  16]+0.038*[#   9]+0.016*[#  10]+0.009*[#  13]+0.009*[#  17]
          +0.005*[#  11]+0.005*[#  15]
    |psi|^2 = 0.950
==== e(  16) =     2.93165 eV ==== 
     psi = 0.491*[#   7]+0.111*[#  12]+0.111*[#  16]+0.052*[#  14]+0.052*[#  18]
          +0.051*[#  11]+0.051*[#  15]
    |psi|^2 = 0.921
==== e(  17) =     3.64863 eV ==== 
     psi = 0.450*[#   6]+0.265*[#  13]+0.265*[#  17]+0.001*[#   7]
    |psi|^2 = 0.982
==== e(  18) =     6.53330 eV ==== 
     psi = 0.075*[#  10]+0.017*[#   5]+0.007*[#  11]+0.007*[#  15]+0.004*[#   8]
          +0.003*[#  14]+0.003*[#  18]+0.002*[#  12]+0.002*[#  16]+0.001*[#   1]
          
    |psi|^2 = 0.119
==== e(  19) =     6.75367 eV ==== 
     psi = 0.004*[#   7]
    |psi|^2 = 0.007
==== e(  20) =     7.36968 eV ==== 
     psi = 0.274*[#  10]+0.030*[#  12]+0.030*[#  16]+0.026*[#   8]+0.023*[#  11]
          +0.023*[#  15]+0.022*[#  14]+0.022*[#  18]+0.007*[#   1]+0.005*[#   5]
          
    |psi|^2 = 0.460

 k =   0.0000000000  0.5132002393  0.0000000000
==== e(   1) =   -61.27020 eV ==== 
     psi = 0.956*[#   1]+0.018*[#  10]+0.008*[#  14]+0.008*[#  18]+0.007*[#   8]
          +0.002*[#  12]+0.002*[#  16]
    |psi|^2 = 1.000
==== e(   2) =   -35.63906 eV ==== 
     psi = 0.972*[#   4]+0.008*[#  12]+0.008*[#  16]+0.004*[#  11]+0.004*[#  15]
          +0.002*[#  14]+0.002*[#  18]+0.001*[#  10]
    |psi|^2 = 1.000
==== e(   3) =   -35.40742 eV ==== 
     psi = 0.984*[#   2]+0.007*[#  14]+0.007*[#  18]
    |psi|^2 = 1.000
==== e(   4) =   -35.33007 eV ==== 
     psi = 0.993*[#   3]+0.003*[#  13]+0.003*[#  17]
    |psi|^2 = 1.000
==== e(   5) =   -12.76475 eV ==== 
     psi = 0.417*[#  15]+0.414*[#  11]+0.073*[#   8]+0.049*[#  10]+0.011*[#  12]
          +0.011*[#  16]+0.011*[#   4]+0.003*[#  14]+0.003*[#  18]+0.003*[#   5]
          +0.001*[#   1]
    |psi|^2 = 0.997
==== e(   6) =   -12.60154 eV ==== 
     psi = 0.394*[#  11]+0.391*[#  15]+0.205*[#   7]+0.002*[#   2]+0.002*[#  14]
          +0.002*[#  18]+0.001*[#  12]+0.001*[#  16]
    |psi|^2 = 0.999
==== e(   7) =    -6.26040 eV ==== 
     psi = 0.316*[#  18]+0.315*[#  14]+0.181*[#   8]+0.069*[#  10]+0.033*[#   5]
          +0.018*[#  11]+0.018*[#  15]+0.011*[#  12]+0.011*[#  16]+0.010*[#   1]
          +0.003*[#   4]
    |psi|^2 = 0.986
==== e(   8) =    -5.28122 eV ==== 
     psi = 0.365*[#  14]+0.364*[#  18]+0.159*[#   7]+0.025*[#  11]+0.025*[#  15]
          +0.021*[#  12]+0.021*[#  16]+0.010*[#   2]
    |psi|^2 = 0.991
==== e(   9) =    -4.54233 eV ==== 
     psi = 0.215*[#   8]+0.215*[#  12]+0.215*[#  16]+0.166*[#   5]+0.049*[#  14]
          +0.049*[#  18]+0.033*[#  11]+0.033*[#  15]+0.007*[#   4]+0.007*[#  10]
          +0.001*[#   1]
    |psi|^2 = 0.988
==== e(  10) =    -3.59878 eV ==== 
     psi = 0.522*[#   6]+0.236*[#  17]+0.236*[#  13]
    |psi|^2 = 0.993
==== e(  11) =    -2.42167 eV ==== 
     psi = 0.326*[#  12]+0.326*[#  16]+0.122*[#   7]+0.082*[#  14]+0.082*[#  18]
          +0.026*[#  11]+0.026*[#  15]+0.004*[#   2]
    |psi|^2 = 0.994
==== e(  12) =    -1.42136 eV ==== 
     psi = 0.426*[#  13]+0.425*[#  17]+0.097*[#   9]+0.008*[#   5]+0.006*[#  12]
          +0.006*[#  16]+0.006*[#   3]+0.005*[#   8]
    |psi|^2 = 0.980
==== e(  13) =    -1.23811 eV ==== 
     psi = 0.295*[#   5]+0.210*[#   8]+0.193*[#  12]+0.193*[#  16]+0.019*[#  10]
          +0.012*[#  13]+0.012*[#  17]+0.007*[#   4]+0.003*[#   9]+0.001*[#  11]
          +0.001*[#  15]
    |psi|^2 = 0.948
==== e(  14) =     1.80758 eV ==== 
     psi = 0.892*[#   9]+0.051*[#  13]+0.051*[#  17]
    |psi|^2 = 0.994
==== e(  15) =     2.22693 eV ==== 
     psi = 0.467*[#   5]+0.250*[#   8]+0.083*[#  14]+0.083*[#  18]+0.021*[#  12]
          +0.021*[#  16]+0.017*[#  10]+0.008*[#  11]+0.008*[#  15]
    |psi|^2 = 0.959
==== e(  16) =     3.35076 eV ==== 
     psi = 0.439*[#   7]+0.128*[#  12]+0.128*[#  16]+0.047*[#  11]+0.047*[#  15]
          +0.041*[#  14]+0.041*[#  18]+0.003*[#   6]+0.002*[#  13]+0.002*[#  17]
          
    |psi|^2 = 0.879
==== e(  17) =     3.83705 eV ==== 
     psi = 0.450*[#   6]+0.261*[#  13]+0.261*[#  17]+0.003*[#   7]+0.001*[#  12]
          +0.001*[#  16]
    |psi|^2 = 0.978
==== e(  18) =     5.88163 eV ==== 
     psi = 0.293*[#  10]+0.031*[#   8]+0.017*[#  14]+0.017*[#  18]+0.013*[#   1]
          +0.011*[#   5]+0.007*[#  12]+0.007*[#  16]+0.003*[#  11]+0.003*[#  15]
          
    |psi|^2 = 0.403
==== e(  19) =     7.27256 eV ==== 
     psi = 0.003*[#  12]+0.003*[#  16]+0.002*[#   7]+0.001*[#  14]+0.001*[#  18]
          
    |psi|^2 = 0.011
==== e(  20) =     7.48949 eV ==== 
     psi = 0.173*[#  10]+0.016*[#  12]+0.016*[#  16]+0.008*[#   8]+0.008*[#  11]
          +0.008*[#  15]+0.006*[#  14]+0.006*[#  18]+0.006*[#   1]+0.001*[#   5]
          
    |psi|^2 = 0.248

 k =   0.1111111111  0.1924500897  0.0000000000
==== e(   1) =   -61.29806 eV ==== 
     psi = 0.967*[#   1]+0.008*[#  12]+0.008*[#  16]+0.005*[#  10]+0.002*[#  14]
          +0.002*[#  18]+0.001*[#   5]+0.002*[#  11]+0.002*[#  15]
    |psi|^2 = 1.000
==== e(   2) =   -35.46179 eV ==== 
     psi = 0.978*[#   2]+0.004*[#  11]+0.004*[#  15]+0.003*[#  12]+0.003*[#  16]
          +0.002*[#  14]+0.002*[#  18]
    |psi|^2 = 1.000
==== e(   3) =   -35.37153 eV ==== 
     psi = 0.737*[#   4]+0.246*[#   3]+0.007*[#  10]+0.002*[#  12]+0.002*[#  16]
          +0.001*[#   5]
    |psi|^2 = 1.000
==== e(   4) =   -35.27228 eV ==== 
     psi = 0.746*[#   3]+0.249*[#   4]
    |psi|^2 = 1.000
==== e(   5) =   -14.11523 eV ==== 
     psi = 0.330*[#  10]+0.302*[#  15]+0.301*[#  11]+0.012*[#   1]+0.007*[#   8]
          +0.007*[#  12]+0.007*[#  16]+0.007*[#  14]+0.007*[#  18]+0.005*[#   4]
          +0.004*[#   9]+0.002*[#   5]+0.002*[#  13]+0.002*[#  17]+0.002*[#   3]
          
    |psi|^2 = 0.999
==== e(   6) =   -13.13834 eV ==== 
     psi = 0.437*[#  11]+0.437*[#  15]+0.060*[#   7]+0.021*[#   6]+0.013*[#   2]
          +0.011*[#  14]+0.011*[#  18]+0.004*[#  13]+0.004*[#  17]
    |psi|^2 = 0.998
==== e(   7) =    -5.62441 eV ==== 
     psi = 0.270*[#   5]+0.261*[#  12]+0.261*[#  16]+0.052*[#   8]+0.022*[#   9]
          +0.020*[#  11]+0.020*[#  15]+0.018*[#  10]+0.017*[#  14]+0.017*[#  18]
          +0.010*[#   1]+0.006*[#  13]+0.006*[#  17]+0.004*[#   4]+0.002*[#   3]
          
    |psi|^2 = 0.987
==== e(   8) =    -3.98758 eV ==== 
     psi = 0.337*[#   8]+0.132*[#  18]+0.131*[#  14]+0.117*[#   9]+0.058*[#  10]
          +0.044*[#  13]+0.044*[#  17]+0.030*[#  11]+0.030*[#  15]+0.023*[#  12]
          +0.023*[#  16]+0.009*[#   5]+0.007*[#   1]+0.001*[#   3]
    |psi|^2 = 0.986
==== e(   9) =    -3.58487 eV ==== 
     psi = 0.210*[#   7]+0.171*[#  12]+0.171*[#  16]+0.122*[#  14]+0.122*[#  18]
          +0.099*[#   6]+0.046*[#  13]+0.046*[#  17]+0.002*[#  11]+0.002*[#  15]
          
    |psi|^2 = 0.991
==== e(  10) =    -2.89109 eV ==== 
     psi = 0.340*[#   6]+0.162*[#   7]+0.134*[#  17]+0.134*[#  13]+0.084*[#  14]
          +0.084*[#  18]+0.017*[#  12]+0.017*[#  16]+0.008*[#  11]+0.008*[#  15]
          
    |psi|^2 = 0.988
==== e(  11) =    -2.55907 eV ==== 
     psi = 0.394*[#   9]+0.165*[#  13]+0.165*[#  17]+0.134*[#   8]+0.055*[#  14]
          +0.055*[#  18]+0.012*[#   5]+0.002*[#   4]+0.001*[#   3]
    |psi|^2 = 0.987
==== e(  12) =    -1.42546 eV ==== 
     psi = 0.265*[#  12]+0.265*[#  16]+0.113*[#  14]+0.113*[#  18]+0.087*[#  13]
          +0.087*[#  17]+0.031*[#   7]+0.013*[#   6]+0.008*[#   2]
    |psi|^2 = 0.984
==== e(  13) =    -0.98949 eV ==== 
     psi = 0.524*[#   5]+0.107*[#  12]+0.107*[#  16]+0.088*[#   8]+0.049*[#   9]
          +0.026*[#  14]+0.026*[#  18]+0.016*[#  11]+0.016*[#  15]+0.009*[#  13]
          +0.009*[#  17]+0.001*[#   1]
    |psi|^2 = 0.981
==== e(  14) =     1.63840 eV ==== 
     psi = 0.247*[#   8]+0.152*[#  14]+0.152*[#  18]+0.088*[#   9]+0.079*[#   5]
          +0.059*[#  13]+0.058*[#  17]+0.046*[#  12]+0.046*[#  16]+0.012*[#  11]
          +0.012*[#  15]+0.003*[#  10]
    |psi|^2 = 0.957
==== e(  15) =     2.03374 eV ==== 
     psi = 0.295*[#   6]+0.280*[#   7]+0.098*[#  14]+0.098*[#  18]+0.038*[#  11]
          +0.038*[#  15]+0.036*[#  13]+0.036*[#  17]+0.024*[#  12]+0.024*[#  16]
          
    |psi|^2 = 0.965
==== e(  16) =     2.06443 eV ==== 
     psi = 0.301*[#   9]+0.191*[#  13]+0.191*[#  17]+0.101*[#   8]+0.066*[#  14]
          +0.066*[#  18]+0.034*[#   5]+0.008*[#  10]+0.004*[#  12]+0.004*[#  16]
          
    |psi|^2 = 0.970
==== e(  17) =     3.15388 eV ==== 
     psi = 0.226*[#   7]+0.204*[#   6]+0.187*[#  13]+0.187*[#  17]+0.063*[#  14]
          +0.063*[#  18]+0.015*[#  12]+0.015*[#  16]+0.007*[#  11]+0.007*[#  15]
          
    |psi|^2 = 0.974
==== e(  18) =     5.49089 eV ==== 
     psi = 0.070*[#  10]+0.029*[#   5]+0.014*[#  11]+0.014*[#  15]+0.008*[#  14]
          +0.008*[#  18]+0.003*[#  13]+0.003*[#  17]+0.003*[#   8]+0.002*[#  12]
          +0.002*[#  16]+0.001*[#   9]
    |psi|^2 = 0.156
==== e(  19) =     5.63251 eV ==== 
     psi = 0.003*[#   7]+0.001*[#   6]
    |psi|^2 = 0.007
==== e(  20) =     6.86519 eV ==== 
     psi = 0.050*[#  10]+0.010*[#  11]+0.010*[#  15]+0.010*[#   5]+0.004*[#  14]
          +0.004*[#  18]+0.002*[#  12]+0.002*[#  16]+0.001*[#  13]+0.001*[#  17]
          
    |psi|^2 = 0.095

 k =   0.1111111111  0.3207501495  0.0000000000
==== e(   1) =   -61.28443 eV ==== 
     psi = 0.971*[#   1]+0.006*[#  12]+0.006*[#  16]+0.005*[#  14]+0.005*[#  18]
          +0.002*[#   8]+0.001*[#  11]+0.001*[#  15]
    |psi|^2 = 1.000
==== e(   2) =   -35.49218 eV ==== 
     psi = 0.897*[#   4]+0.078*[#   3]+0.009*[#  10]+0.004*[#  12]+0.004*[#  16]
          +0.002*[#  11]+0.002*[#  15]+0.001*[#   5]
    |psi|^2 = 1.000
==== e(   3) =   -35.43519 eV ==== 
     psi = 0.980*[#   2]+0.005*[#  14]+0.005*[#  18]+0.002*[#  11]+0.002*[#  15]
          +0.002*[#  12]+0.002*[#  16]
    |psi|^2 = 1.000
==== e(   4) =   -35.31285 eV ==== 
     psi = 0.914*[#   3]+0.080*[#   4]+0.002*[#  13]+0.002*[#  17]+0.001*[#   8]
          
    |psi|^2 = 1.000
==== e(   5) =   -13.51776 eV ==== 
     psi = 0.344*[#  15]+0.343*[#  11]+0.214*[#  10]+0.026*[#   8]+0.013*[#  14]
          +0.013*[#  18]+0.009*[#   4]+0.008*[#  12]+0.008*[#  16]+0.006*[#   9]
          +0.006*[#   1]+0.003*[#   5]+0.002*[#  13]+0.002*[#  17]+0.001*[#   3]
          
    |psi|^2 = 0.999
==== e(   6) =   -12.89222 eV ==== 
     psi = 0.408*[#  11]+0.408*[#  15]+0.126*[#   7]+0.017*[#   6]+0.014*[#  14]
          +0.014*[#  18]+0.009*[#   2]+0.002*[#  13]+0.002*[#  17]
    |psi|^2 = 0.999
==== e(   7) =    -5.49885 eV ==== 
     psi = 0.275*[#   8]+0.129*[#   5]+0.129*[#  12]+0.129*[#  16]+0.128*[#  18]
          +0.128*[#  14]+0.025*[#   9]+0.012*[#  13]+0.012*[#  17]+0.005*[#  10]
          +0.004*[#   4]+0.003*[#  11]+0.003*[#  15]+0.002*[#   3]+0.001*[#   1]
          
    |psi|^2 = 0.987
==== e(   8) =    -4.33132 eV ==== 
     psi = 0.273*[#  18]+0.270*[#  14]+0.227*[#   7]+0.062*[#   6]+0.059*[#  12]
          +0.058*[#  16]+0.012*[#  17]+0.012*[#  13]+0.008*[#  15]+0.008*[#  11]
          +0.002*[#   2]
    |psi|^2 = 0.990
==== e(   9) =    -4.30748 eV ==== 
     psi = 0.175*[#  16]+0.174*[#  12]+0.115*[#  14]+0.111*[#  18]+0.090*[#  10]
          +0.076*[#   5]+0.065*[#   8]+0.057*[#  11]+0.057*[#  15]+0.033*[#   9]
          +0.011*[#   1]+0.007*[#  13]+0.007*[#  17]+0.006*[#   4]
    |psi|^2 = 0.985
==== e(  10) =    -3.56770 eV ==== 
     psi = 0.361*[#   6]+0.184*[#  17]+0.184*[#  13]+0.080*[#   7]+0.077*[#  12]
          +0.077*[#  16]+0.013*[#  11]+0.013*[#  15]
    |psi|^2 = 0.989
==== e(  11) =    -2.31167 eV ==== 
     psi = 0.256*[#  13]+0.256*[#  17]+0.212*[#   9]+0.122*[#   5]+0.037*[#  14]
          +0.037*[#  18]+0.034*[#   8]+0.004*[#  11]+0.004*[#  15]+0.004*[#  10]
          +0.003*[#   3]+0.003*[#  12]+0.003*[#  16]+0.002*[#   4]
    |psi|^2 = 0.977
==== e(  12) =    -1.67283 eV ==== 
     psi = 0.262*[#  12]+0.262*[#  16]+0.128*[#  14]+0.128*[#  18]+0.068*[#  13]
          +0.068*[#  17]+0.035*[#   6]+0.010*[#  11]+0.010*[#  15]+0.010*[#   7]
          +0.008*[#   2]
    |psi|^2 = 0.990
==== e(  13) =    -1.36293 eV ==== 
     psi = 0.318*[#   5]+0.250*[#   8]+0.150*[#   9]+0.053*[#  12]+0.053*[#  16]
          +0.038*[#  13]+0.038*[#  17]+0.029*[#  14]+0.029*[#  18]+0.012*[#  11]
          +0.012*[#  15]+0.006*[#  10]
    |psi|^2 = 0.989
==== e(  14) =     1.44598 eV ==== 
     psi = 0.210*[#   9]+0.204*[#   8]+0.105*[#   5]+0.085*[#  14]+0.085*[#  18]
          +0.062*[#  12]+0.062*[#  16]+0.061*[#  13]+0.061*[#  17]+0.007*[#  11]
          +0.007*[#  15]+0.004*[#  10]
    |psi|^2 = 0.955
==== e(  15) =     1.97503 eV ==== 
     psi = 0.340*[#   9]+0.196*[#   5]+0.103*[#  13]+0.103*[#  17]+0.096*[#   8]
          +0.042*[#  14]+0.042*[#  18]+0.020*[#  10]+0.014*[#  12]+0.014*[#  16]
          
    |psi|^2 = 0.971
==== e(  16) =     2.34347 eV ==== 
     psi = 0.302*[#   7]+0.269*[#   6]+0.053*[#  12]+0.054*[#  13]+0.053*[#  16]
          +0.054*[#  17]+0.044*[#  14]+0.044*[#  18]+0.038*[#  11]+0.038*[#  15]
          
    |psi|^2 = 0.948
==== e(  17) =     3.70798 eV ==== 
     psi = 0.229*[#   6]+0.215*[#   7]+0.174*[#  13]+0.174*[#  17]+0.039*[#  12]
          +0.039*[#  16]+0.033*[#  14]+0.033*[#  18]+0.016*[#  11]+0.016*[#  15]
          
    |psi|^2 = 0.970
==== e(  18) =     6.30735 eV ==== 
     psi = 0.075*[#  10]+0.023*[#   5]+0.008*[#  11]+0.008*[#  15]+0.005*[#  14]
          +0.005*[#  18]+0.003*[#   8]+0.001*[#  12]+0.002*[#  13]+0.001*[#  16]
          +0.002*[#  17]
    |psi|^2 = 0.134
==== e(  19) =     6.48224 eV ==== 
     psi = 0.005*[#   7]+0.002*[#  12]+0.002*[#  16]+0.001*[#   6]
    |psi|^2 = 0.012
==== e(  20) =     7.76814 eV ==== 
     psi = 0.049*[#  10]+0.005*[#  11]+0.005*[#  15]+0.005*[#   5]+0.002*[#  14]
          +0.002*[#  18]+0.002*[#  12]+0.002*[#  16]+0.001*[#  13]+0.001*[#  17]
          
    |psi|^2 = 0.078

 k =   0.1111111111  0.4490502094  0.0000000000
==== e(   1) =   -61.27243 eV ==== 
     psi = 0.961*[#   1]+0.012*[#  10]+0.007*[#  14]+0.007*[#  18]+0.004*[#   8]
          +0.003*[#  12]+0.003*[#  16]
    |psi|^2 = 1.000
==== e(   2) =   -35.59568 eV ==== 
     psi = 0.954*[#   4]+0.018*[#   3]+0.006*[#  12]+0.006*[#  16]+0.004*[#  10]
          +0.003*[#  11]+0.003*[#  15]+0.001*[#  14]+0.001*[#  18]
    |psi|^2 = 1.000
==== e(   3) =   -35.41176 eV ==== 
     psi = 0.983*[#   2]+0.006*[#  14]+0.006*[#  18]+0.001*[#  11]+0.001*[#  15]
          
    |psi|^2 = 1.000
==== e(   4) =   -35.34897 eV ==== 
     psi = 0.973*[#   3]+0.019*[#   4]+0.003*[#  13]+0.003*[#  17]+0.001*[#   8]
          
    |psi|^2 = 1.000
==== e(   5) =   -12.90273 eV ==== 
     psi = 0.396*[#  15]+0.394*[#  11]+0.086*[#  10]+0.057*[#   8]+0.011*[#   4]
          +0.010*[#  12]+0.010*[#  16]+0.010*[#   9]+0.008*[#  14]+0.008*[#  18]
          +0.003*[#   5]+0.002*[#   1]+0.001*[#   3]+0.001*[#  13]+0.001*[#  17]
          
    |psi|^2 = 0.998
==== e(   6) =   -12.64357 eV ==== 
     psi = 0.396*[#  11]+0.394*[#  15]+0.177*[#   7]+0.014*[#   6]+0.006*[#  14]
          +0.006*[#  18]+0.004*[#   2]
    |psi|^2 = 0.999
==== e(   7) =    -5.92444 eV ==== 
     psi = 0.274*[#  18]+0.274*[#  14]+0.227*[#   8]+0.053*[#   5]+0.052*[#  10]
          +0.026*[#  12]+0.026*[#  16]+0.012*[#  11]+0.012*[#  15]+0.009*[#   9]
          +0.006*[#   1]+0.005*[#  13]+0.005*[#  17]+0.003*[#   4]+0.002*[#   3]
          
    |psi|^2 = 0.986
==== e(   8) =    -5.15287 eV ==== 
     psi = 0.304*[#  14]+0.304*[#  18]+0.177*[#   7]+0.094*[#   6]+0.020*[#  13]
          +0.020*[#  17]+0.017*[#  11]+0.017*[#  15]+0.016*[#  12]+0.016*[#  16]
          +0.006*[#   2]
    |psi|^2 = 0.991
==== e(   9) =    -4.36039 eV ==== 
     psi = 0.232*[#  12]+0.232*[#  16]+0.128*[#   5]+0.117*[#   8]+0.061*[#  14]
          +0.061*[#  18]+0.045*[#  11]+0.045*[#  15]+0.026*[#  10]+0.016*[#   9]
          +0.007*[#   4]+0.006*[#  13]+0.006*[#  17]+0.003*[#   1]+0.001*[#   3]
          
    |psi|^2 = 0.986
==== e(  10) =    -3.70370 eV ==== 
     psi = 0.346*[#   6]+0.200*[#  17]+0.200*[#  13]+0.063*[#  12]+0.063*[#  16]
          +0.043*[#   7]+0.029*[#  14]+0.029*[#  18]+0.009*[#  11]+0.009*[#  15]
          +0.001*[#   2]
    |psi|^2 = 0.990
==== e(  11) =    -2.29716 eV ==== 
     psi = 0.282*[#  17]+0.282*[#  13]+0.134*[#   5]+0.057*[#  16]+0.057*[#  12]
          +0.054*[#   8]+0.051*[#   9]+0.021*[#  10]+0.007*[#  14]+0.007*[#  18]
          +0.005*[#  11]+0.005*[#  15]+0.005*[#   4]+0.004*[#   3]
    |psi|^2 = 0.971
==== e(  12) =    -2.17008 eV ==== 
     psi = 0.275*[#  12]+0.275*[#  16]+0.102*[#  14]+0.102*[#  18]+0.083*[#   7]
          +0.040*[#  13]+0.040*[#  17]+0.026*[#   6]+0.022*[#  11]+0.022*[#  15]
          +0.006*[#   2]
    |psi|^2 = 0.994
==== e(  13) =    -1.16032 eV ==== 
     psi = 0.222*[#   8]+0.187*[#   5]+0.185*[#   9]+0.116*[#  13]+0.116*[#  17]
          +0.052*[#  12]+0.052*[#  16]+0.015*[#  14]+0.015*[#  18]+0.014*[#  10]
          +0.002*[#  11]+0.002*[#  15]+0.002*[#   4]+0.001*[#   3]
    |psi|^2 = 0.983
==== e(  14) =     1.71592 eV ==== 
     psi = 0.433*[#   9]+0.162*[#   5]+0.074*[#   8]+0.063*[#  12]+0.063*[#  16]
          +0.045*[#  13]+0.045*[#  17]+0.036*[#  14]+0.036*[#  18]+0.004*[#  11]
          +0.004*[#  15]+0.002*[#  10]
    |psi|^2 = 0.968
==== e(  15) =     2.15503 eV ==== 
     psi = 0.304*[#   5]+0.280*[#   9]+0.188*[#   8]+0.049*[#  14]+0.049*[#  18]
          +0.036*[#  10]+0.022*[#  13]+0.022*[#  17]+0.010*[#  12]+0.010*[#  16]
          +0.004*[#  11]+0.004*[#  15]
    |psi|^2 = 0.977
==== e(  16) =     2.93341 eV ==== 
     psi = 0.304*[#   6]+0.195*[#   7]+0.112*[#  13]+0.112*[#  17]+0.054*[#  12]
          +0.054*[#  16]+0.025*[#  11]+0.025*[#  15]+0.022*[#  14]+0.022*[#  18]
          
    |psi|^2 = 0.924
==== e(  17) =     3.87727 eV ==== 
     psi = 0.272*[#   7]+0.177*[#   6]+0.115*[#  13]+0.115*[#  17]+0.077*[#  12]
          +0.077*[#  16]+0.028*[#  14]+0.028*[#  18]+0.027*[#  11]+0.027*[#  15]
          
    |psi|^2 = 0.943
==== e(  18) =     6.61384 eV ==== 
     psi = 0.107*[#  10]+0.028*[#   8]+0.011*[#  12]+0.011*[#  16]+0.010*[#  14]
          +0.010*[#  18]+0.007*[#   5]+0.005*[#   1]+0.003*[#  11]+0.003*[#  15]
          +0.002*[#  13]+0.002*[#  17]+0.002*[#   9]
    |psi|^2 = 0.202
==== e(  19) =     7.43044 eV ==== 
     psi = 0.010*[#   7]+0.003*[#  13]+0.003*[#  17]+0.002*[#  12]+0.002*[#  16]
          
    |psi|^2 = 0.021
==== e(  20) =     7.49821 eV ==== 
     psi = 0.273*[#  10]+0.016*[#  12]+0.016*[#  16]+0.013*[#  14]+0.013*[#  18]
          +0.012*[#  11]+0.012*[#  15]+0.009*[#   1]+0.005*[#   5]+0.005*[#   8]
          +0.004*[#  13]+0.004*[#  17]
    |psi|^2 = 0.381

 k =   0.1111111111  0.5773502692  0.0000000000
==== e(   1) =   -61.26768 eV ==== 
     psi = 0.952*[#   1]+0.023*[#  10]+0.007*[#  14]+0.007*[#  18]+0.005*[#   8]
          
    |psi|^2 = 1.000
==== e(   2) =   -35.63581 eV ==== 
     psi = 0.970*[#   4]+0.007*[#  12]+0.007*[#  16]+0.004*[#  11]+0.004*[#  15]
          +0.002*[#  14]+0.002*[#  18]+0.002*[#   3]+0.002*[#   9]
    |psi|^2 = 1.000
==== e(   3) =   -35.40250 eV ==== 
     psi = 0.984*[#   2]+0.006*[#  14]+0.006*[#  18]
    |psi|^2 = 1.000
==== e(   4) =   -35.36346 eV ==== 
     psi = 0.989*[#   3]+0.003*[#  13]+0.003*[#  17]+0.002*[#   4]+0.002*[#   8]
          
    |psi|^2 = 1.000
==== e(   5) =   -12.62528 eV ==== 
     psi = 0.426*[#  15]+0.421*[#  11]+0.075*[#   8]+0.023*[#  10]+0.011*[#  12]
          +0.012*[#  16]+0.011*[#   9]+0.011*[#   4]+0.002*[#   5]+0.001*[#   3]
          
    |psi|^2 = 0.997
==== e(   6) =   -12.53317 eV ==== 
     psi = 0.395*[#  11]+0.390*[#  15]+0.196*[#   7]+0.012*[#   6]+0.001*[#  12]
          +0.001*[#  16]
    |psi|^2 = 0.999
==== e(   7) =    -6.15608 eV ==== 
     psi = 0.339*[#  18]+0.339*[#  14]+0.132*[#   8]+0.079*[#  10]+0.042*[#   5]
          +0.014*[#  11]+0.014*[#  15]+0.008*[#   1]+0.005*[#  12]+0.005*[#  16]
          +0.004*[#   9]+0.003*[#   4]+0.001*[#   3]
    |psi|^2 = 0.988
==== e(   8) =    -5.48943 eV ==== 
     psi = 0.314*[#  14]+0.314*[#  18]+0.159*[#   7]+0.100*[#   6]+0.022*[#  13]
          +0.022*[#  17]+0.018*[#  11]+0.018*[#  15]+0.009*[#  12]+0.009*[#  16]
          +0.007*[#   2]
    |psi|^2 = 0.992
==== e(   9) =    -4.51735 eV ==== 
     psi = 0.254*[#   8]+0.212*[#  12]+0.212*[#  16]+0.146*[#   5]+0.031*[#  11]
          +0.031*[#  15]+0.027*[#  14]+0.027*[#  18]+0.014*[#  13]+0.014*[#  17]
          +0.011*[#   9]+0.005*[#   4]+0.003*[#  10]+0.002*[#   3]
    |psi|^2 = 0.990
==== e(  10) =    -3.67354 eV ==== 
     psi = 0.369*[#   6]+0.221*[#  17]+0.221*[#  13]+0.047*[#  14]+0.047*[#  18]
          +0.034*[#  12]+0.034*[#  16]+0.006*[#  11]+0.006*[#  15]+0.005*[#   7]
          +0.003*[#   2]
    |psi|^2 = 0.991
==== e(  11) =    -2.42330 eV ==== 
     psi = 0.298*[#  16]+0.297*[#  12]+0.137*[#   7]+0.085*[#  14]+0.085*[#  18]
          +0.027*[#  11]+0.027*[#  15]+0.016*[#  13]+0.016*[#  17]+0.004*[#   2]
          
    |psi|^2 = 0.995
==== e(  12) =    -2.20525 eV ==== 
     psi = 0.325*[#  13]+0.325*[#  17]+0.087*[#  12]+0.087*[#  16]+0.079*[#   5]
          +0.023*[#   8]+0.009*[#  10]+0.006*[#  11]+0.006*[#  15]+0.005*[#   4]
          +0.004*[#  14]+0.004*[#  18]+0.004*[#   3]+0.002*[#   9]
    |psi|^2 = 0.965
==== e(  13) =    -0.89944 eV ==== 
     psi = 0.202*[#   9]+0.196*[#   8]+0.164*[#   5]+0.107*[#  13]+0.107*[#  17]
          +0.086*[#  12]+0.086*[#  16]+0.007*[#  14]+0.007*[#  18]+0.003*[#  10]
          +0.003*[#   4]+0.001*[#   3]
    |psi|^2 = 0.969
==== e(  14) =     1.81679 eV ==== 
     psi = 0.487*[#   9]+0.320*[#   5]+0.034*[#  14]+0.034*[#  18]+0.027*[#  13]
          +0.027*[#  17]+0.026*[#   8]+0.014*[#  12]+0.014*[#  16]+0.009*[#  10]
          
    |psi|^2 = 0.991
==== e(  15) =     2.43096 eV ==== 
     psi = 0.273*[#   9]+0.239*[#   8]+0.230*[#   5]+0.053*[#  12]+0.053*[#  16]
          +0.039*[#  14]+0.039*[#  18]+0.012*[#  11]+0.012*[#  15]+0.007*[#  10]
          +0.001*[#  13]+0.001*[#  17]
    |psi|^2 = 0.959
==== e(  16) =     3.33613 eV ==== 
     psi = 0.457*[#   6]+0.214*[#  13]+0.214*[#  17]+0.009*[#  14]+0.009*[#  18]
          +0.005*[#   7]+0.004*[#  12]+0.004*[#  16]+0.004*[#  11]+0.004*[#  15]
          
    |psi|^2 = 0.925
==== e(  17) =     3.70007 eV ==== 
     psi = 0.432*[#   7]+0.136*[#  12]+0.136*[#  16]+0.045*[#  11]+0.045*[#  15]
          +0.035*[#  14]+0.035*[#  18]+0.014*[#   6]+0.009*[#  13]+0.009*[#  17]
          
    |psi|^2 = 0.897
==== e(  18) =     5.81724 eV ==== 
     psi = 0.314*[#  10]+0.026*[#   8]+0.020*[#  14]+0.020*[#  18]+0.015*[#   1]
          +0.004*[#  12]+0.004*[#  16]+0.003*[#  13]+0.003*[#  17]+0.002*[#   5]
          
    |psi|^2 = 0.413
==== e(  19) =     8.19959 eV ==== 
     psi = 0.100*[#  10]+0.010*[#  12]+0.010*[#  16]+0.005*[#   1]+0.004*[#  14]
          +0.004*[#  18]+0.003*[#  17]+0.003*[#  13]+0.003*[#   8]+0.003*[#  11]
          +0.003*[#  15]
    |psi|^2 = 0.150
==== e(  20) =     8.21345 eV ==== 
     psi = 0.019*[#   6]+0.014*[#  13]+0.014*[#  17]+0.002*[#   7]+0.001*[#  12]
          +0.002*[#  16]
    |psi|^2 = 0.053

 k =   0.2222222222  0.3849001795  0.0000000000
==== e(   1) =   -61.27331 eV ==== 
     psi = 0.964*[#   1]+0.009*[#  10]+0.006*[#  14]+0.006*[#  18]+0.003*[#  12]
          +0.003*[#  16]+0.003*[#  13]+0.003*[#  17]+0.002*[#   9]
    |psi|^2 = 1.000
==== e(   2) =   -35.55901 eV ==== 
     psi = 0.727*[#   4]+0.246*[#   3]+0.006*[#  12]+0.006*[#  16]+0.005*[#  10]
          +0.003*[#  11]+0.003*[#  15]+0.001*[#  13]+0.001*[#  17]
    |psi|^2 = 1.000
==== e(   3) =   -35.41352 eV ==== 
     psi = 0.983*[#   2]+0.004*[#  14]+0.004*[#  18]+0.002*[#  13]+0.002*[#  17]
          +0.001*[#  11]+0.001*[#  15]
    |psi|^2 = 1.000
==== e(   4) =   -35.37657 eV ==== 
     psi = 0.738*[#   3]+0.250*[#   4]+0.003*[#   8]+0.001*[#  13]+0.001*[#  14]
          +0.001*[#  17]+0.001*[#  18]
    |psi|^2 = 1.000
==== e(   5) =   -12.95987 eV ==== 
     psi = 0.386*[#  15]+0.384*[#  11]+0.102*[#  10]+0.036*[#   8]+0.028*[#   9]
          +0.010*[#  12]+0.010*[#  16]+0.009*[#  14]+0.009*[#  18]+0.009*[#   4]
          +0.004*[#   3]+0.003*[#  13]+0.003*[#  17]+0.002*[#   5]+0.002*[#   1]
          
    |psi|^2 = 0.999
==== e(   6) =   -12.65594 eV ==== 
     psi = 0.397*[#  11]+0.396*[#  15]+0.126*[#   7]+0.056*[#   6]+0.007*[#  14]
          +0.007*[#  18]+0.004*[#   2]+0.002*[#  13]+0.002*[#  17]
    |psi|^2 = 0.999
==== e(   7) =    -5.64177 eV ==== 
     psi = 0.198*[#   8]+0.187*[#  18]+0.187*[#  14]+0.087*[#   5]+0.066*[#   9]
          +0.062*[#  13]+0.062*[#  17]+0.044*[#  12]+0.044*[#  16]+0.039*[#  10]
          +0.005*[#   3]+0.002*[#   1]+0.002*[#   4]+0.001*[#  11]+0.001*[#  15]
          
    |psi|^2 = 0.987
==== e(   8) =    -5.07572 eV ==== 
     psi = 0.263*[#   6]+0.186*[#  14]+0.186*[#  18]+0.125*[#   7]+0.106*[#  13]
          +0.106*[#  17]+0.008*[#  11]+0.008*[#  15]+0.002*[#   2]+0.001*[#  12]
          +0.001*[#  16]
    |psi|^2 = 0.992
==== e(   9) =    -4.10629 eV ==== 
     psi = 0.269*[#  12]+0.269*[#  16]+0.070*[#   9]+0.064*[#  10]+0.064*[#  11]
          +0.064*[#  15]+0.045*[#  14]+0.045*[#  18]+0.031*[#   8]+0.020*[#  13]
          +0.020*[#  17]+0.014*[#   5]+0.006*[#   1]+0.005*[#   4]+0.002*[#   3]
          
    |psi|^2 = 0.989
==== e(  10) =    -3.87946 eV ==== 
     psi = 0.197*[#   7]+0.122*[#  13]+0.122*[#  17]+0.113*[#  12]+0.113*[#  16]
          +0.109*[#  14]+0.109*[#  18]+0.066*[#   6]+0.017*[#  11]+0.017*[#  15]
          +0.002*[#   2]
    |psi|^2 = 0.988
==== e(  11) =    -3.01962 eV ==== 
     psi = 0.239*[#  13]+0.239*[#  17]+0.212*[#   5]+0.080*[#  14]+0.080*[#  18]
          +0.069*[#   8]+0.023*[#   9]+0.006*[#  12]+0.006*[#  16]+0.006*[#   4]
          +0.004*[#   3]+0.002*[#  11]+0.002*[#  15]
    |psi|^2 = 0.968
==== e(  12) =    -1.91156 eV ==== 
     psi = 0.245*[#  12]+0.245*[#  16]+0.101*[#  13]+0.101*[#  17]+0.092*[#  14]
          +0.092*[#  18]+0.046*[#   6]+0.026*[#   7]+0.019*[#  11]+0.019*[#  15]
          +0.008*[#   2]
    |psi|^2 = 0.992
==== e(  13) =    -1.19994 eV ==== 
     psi = 0.262*[#   8]+0.255*[#   9]+0.186*[#   5]+0.077*[#  13]+0.077*[#  17]
          +0.050*[#  14]+0.050*[#  18]+0.009*[#  12]+0.009*[#  16]+0.008*[#  10]
          +0.004*[#  11]+0.004*[#  15]
    |psi|^2 = 0.992
==== e(  14) =     1.60449 eV ==== 
     psi = 0.218*[#   8]+0.213*[#   5]+0.118*[#   9]+0.110*[#  12]+0.110*[#  16]
          +0.063*[#  14]+0.063*[#  18]+0.021*[#  13]+0.021*[#  17]+0.006*[#  11]
          +0.006*[#  15]+0.004*[#  10]
    |psi|^2 = 0.953
==== e(  15) =     2.19588 eV ==== 
     psi = 0.409*[#   9]+0.255*[#   5]+0.139*[#   8]+0.048*[#  10]+0.044*[#  13]
          +0.044*[#  17]+0.020*[#  14]+0.020*[#  18]+0.002*[#  12]+0.002*[#  16]
          +0.002*[#  11]+0.002*[#  15]
    |psi|^2 = 0.987
==== e(  16) =     2.48891 eV ==== 
     psi = 0.406*[#   6]+0.140*[#   7]+0.075*[#  13]+0.075*[#  17]+0.066*[#  14]
          +0.066*[#  18]+0.032*[#  12]+0.032*[#  16]+0.020*[#  11]+0.020*[#  15]
          
    |psi|^2 = 0.931
==== e(  17) =     4.07269 eV ==== 
     psi = 0.351*[#   7]+0.117*[#   6]+0.099*[#  12]+0.099*[#  16]+0.082*[#  13]
          +0.082*[#  17]+0.036*[#  11]+0.036*[#  15]+0.030*[#  14]+0.030*[#  18]
          
    |psi|^2 = 0.962
==== e(  18) =     7.07505 eV ==== 
     psi = 0.010*[#   8]+0.005*[#   5]+0.004*[#   9]+0.003*[#  12]+0.003*[#  16]
          +0.001*[#  10]+0.001*[#  13]+0.001*[#  14]+0.001*[#  17]+0.001*[#  18]
          
    |psi|^2 = 0.030
==== e(  19) =     7.43500 eV ==== 
     psi = 0.006*[#   6]+0.004*[#   7]+0.002*[#  12]+0.002*[#  16]
    |psi|^2 = 0.017
==== e(  20) =     7.73859 eV ==== 
     psi = 0.309*[#  10]+0.029*[#  12]+0.029*[#  16]+0.019*[#  14]+0.019*[#  18]
          +0.015*[#  11]+0.015*[#  15]+0.014*[#   8]+0.011*[#   1]+0.009*[#  13]
          +0.009*[#  17]+0.009*[#   5]+0.006*[#   9]
    |psi|^2 = 0.492

 k =   0.2222222222  0.5132002393  0.0000000000
==== e(   1) =   -61.26604 eV ==== 
     psi = 0.953*[#   1]+0.025*[#  10]+0.006*[#  14]+0.006*[#  18]+0.003*[#  13]
          +0.003*[#  17]+0.002*[#   8]
    |psi|^2 = 1.000
==== e(   2) =   -35.59055 eV ==== 
     psi = 0.918*[#   4]+0.054*[#   3]+0.006*[#  12]+0.006*[#  16]+0.004*[#   9]
          +0.003*[#  11]+0.003*[#  15]+0.001*[#  14]+0.001*[#  18]
    |psi|^2 = 1.000
==== e(   3) =   -35.42981 eV ==== 
     psi = 0.929*[#   3]+0.055*[#   4]+0.004*[#   8]+0.002*[#  13]+0.002*[#  17]
          +0.001*[#  14]+0.001*[#  18]+0.001*[#  12]+0.001*[#  16]
    |psi|^2 = 1.000
==== e(   4) =   -35.39933 eV ==== 
     psi = 0.984*[#   2]+0.005*[#  14]+0.005*[#  18]+0.002*[#  13]+0.002*[#  17]
          
    |psi|^2 = 1.000
==== e(   5) =   -12.54812 eV ==== 
     psi = 0.421*[#  15]+0.415*[#  11]+0.062*[#   8]+0.035*[#   9]+0.021*[#  10]
          +0.011*[#  12]+0.011*[#  16]+0.010*[#   4]+0.004*[#   3]+0.002*[#  14]
          +0.002*[#  18]+0.001*[#  13]+0.001*[#  17]+0.001*[#   5]
    |psi|^2 = 0.998
==== e(   6) =   -12.47504 eV ==== 
     psi = 0.397*[#  11]+0.391*[#  15]+0.153*[#   7]+0.049*[#   6]+0.002*[#  12]
          +0.002*[#  16]+0.001*[#  14]+0.001*[#  18]
    |psi|^2 = 0.999
==== e(   7) =    -5.70672 eV ==== 
     psi = 0.232*[#   6]+0.206*[#  18]+0.201*[#  14]+0.181*[#   7]+0.079*[#  13]
          +0.079*[#  17]+0.006*[#  11]+0.006*[#  15]+0.002*[#   2]
    |psi|^2 = 0.992
==== e(   8) =    -5.67204 eV ==== 
     psi = 0.320*[#  14]+0.316*[#  18]+0.105*[#   8]+0.084*[#   5]+0.076*[#  10]
          +0.020*[#   9]+0.016*[#  13]+0.016*[#  17]+0.009*[#  12]+0.009*[#  16]
          +0.005*[#   1]+0.004*[#  11]+0.004*[#  15]+0.003*[#   3]+0.003*[#   4]
          
    |psi|^2 = 0.989
==== e(   9) =    -4.30479 eV ==== 
     psi = 0.208*[#   8]+0.193*[#  12]+0.193*[#  16]+0.079*[#   5]+0.073*[#  13]
          +0.073*[#  17]+0.036*[#  11]+0.036*[#  15]+0.025*[#   9]+0.025*[#  14]
          +0.025*[#  18]+0.014*[#  10]+0.007*[#   3]+0.002*[#   4]+0.001*[#   1]
          
    |psi|^2 = 0.989
==== e(  10) =    -3.65135 eV ==== 
     psi = 0.191*[#  17]+0.191*[#  13]+0.142*[#  14]+0.141*[#  18]+0.119*[#   6]
          +0.065*[#  12]+0.065*[#  16]+0.045*[#   7]+0.011*[#  11]+0.011*[#  15]
          +0.008*[#   2]
    |psi|^2 = 0.988
==== e(  11) =    -3.41848 eV ==== 
     psi = 0.265*[#  13]+0.264*[#  17]+0.109*[#  12]+0.110*[#  16]+0.070*[#   9]
          +0.063*[#   5]+0.017*[#  14]+0.017*[#  18]+0.016*[#  11]+0.016*[#  15]
          +0.013*[#  10]+0.010*[#   4]+0.003*[#   8]+0.002*[#   3]
    |psi|^2 = 0.976
==== e(  12) =    -2.41492 eV ==== 
     psi = 0.269*[#  12]+0.268*[#  16]+0.109*[#   7]+0.073*[#  14]+0.073*[#  18]
          +0.048*[#  13]+0.048*[#  17]+0.037*[#   6]+0.032*[#  11]+0.032*[#  15]
          +0.005*[#   2]
    |psi|^2 = 0.995
==== e(  13) =    -0.81587 eV ==== 
     psi = 0.321*[#   9]+0.297*[#   8]+0.117*[#   5]+0.080*[#  13]+0.080*[#  17]
          +0.027*[#  14]+0.027*[#  18]+0.013*[#  12]+0.013*[#  16]+0.011*[#  10]
          
    |psi|^2 = 0.988
==== e(  14) =     1.60745 eV ==== 
     psi = 0.600*[#   5]+0.100*[#   9]+0.054*[#   8]+0.053*[#  14]+0.053*[#  18]
          +0.025*[#  12]+0.025*[#  16]+0.024*[#  13]+0.024*[#  17]+0.023*[#  10]
          
    |psi|^2 = 0.983
==== e(  15) =     2.66737 eV ==== 
     psi = 0.378*[#   6]+0.151*[#  13]+0.151*[#  17]+0.096*[#   7]+0.057*[#  14]
          +0.057*[#  18]+0.005*[#  12]+0.005*[#  16]+0.004*[#  11]+0.004*[#  15]
          
    |psi|^2 = 0.906
==== e(  16) =     2.67380 eV ==== 
     psi = 0.408*[#   9]+0.226*[#   8]+0.112*[#  16]+0.112*[#  12]+0.038*[#   5]
          +0.022*[#  10]+0.013*[#  11]+0.013*[#  15]+0.006*[#  18]+0.006*[#  14]
          +0.003*[#  17]+0.003*[#  13]
    |psi|^2 = 0.963
==== e(  17) =     4.23220 eV ==== 
     psi = 0.372*[#   7]+0.151*[#  12]+0.151*[#  16]+0.134*[#   6]+0.050*[#  11]
          +0.050*[#  15]+0.013*[#  14]+0.013*[#  18]+0.012*[#  13]+0.012*[#  17]
          
    |psi|^2 = 0.960
==== e(  18) =     6.45295 eV ==== 
     psi = 0.213*[#  10]+0.019*[#  14]+0.019*[#  18]+0.019*[#   8]+0.012*[#   1]
          +0.008*[#  12]+0.008*[#  16]+0.006*[#  13]+0.006*[#  17]+0.003*[#   9]
          +0.002*[#  11]+0.002*[#  15]
    |psi|^2 = 0.317
==== e(  19) =     7.97614 eV ==== 
     psi = 0.027*[#  10]+0.008*[#  13]+0.008*[#  17]+0.005*[#  12]+0.005*[#  16]
          +0.004*[#   8]+0.002*[#  14]+0.002*[#  18]+0.002*[#   1]
    |psi|^2 = 0.065
==== e(  20) =     8.42009 eV ==== 
     psi = 0.014*[#   7]+0.003*[#  12]+0.003*[#  16]+0.001*[#   6]
    |psi|^2 = 0.025

 k =   0.3333333333  0.5773502692  0.0000000000
==== e(   1) =   -61.26353 eV ==== 
     psi = 0.950*[#   1]+0.031*[#  10]+0.005*[#  13]+0.005*[#  14]+0.005*[#  17]
          +0.005*[#  18]+0.001*[#   5]
    |psi|^2 = 1.000
==== e(   2) =   -35.54776 eV ==== 
     psi = 0.505*[#   4]+0.466*[#   3]+0.007*[#  12]+0.007*[#  16]+0.004*[#  11]
          +0.004*[#  15]+0.003*[#   9]+0.003*[#   8]
    |psi|^2 = 1.000
==== e(   3) =   -35.50257 eV ==== 
     psi = 0.511*[#   3]+0.472*[#   4]+0.003*[#   8]+0.003*[#  13]+0.003*[#  14]
          +0.003*[#  17]+0.003*[#  18]+0.003*[#   9]
    |psi|^2 = 1.000
==== e(   4) =   -35.39460 eV ==== 
     psi = 0.985*[#   2]+0.004*[#  13]+0.004*[#  14]+0.004*[#  17]+0.004*[#  18]
          
    |psi|^2 = 1.000
==== e(   5) =   -12.40588 eV ==== 
     psi = 0.445*[#  15]+0.403*[#  11]+0.057*[#   9]+0.056*[#   8]+0.011*[#  16]
          +0.010*[#  12]+0.008*[#   4]+0.008*[#   3]
    |psi|^2 = 0.998
==== e(   6) =   -12.39517 eV ==== 
     psi = 0.418*[#  11]+0.375*[#  15]+0.102*[#   7]+0.100*[#   6]+0.002*[#  12]
          +0.002*[#  16]
    |psi|^2 = 0.999
==== e(   7) =    -5.97513 eV ==== 
     psi = 0.232*[#   6]+0.231*[#   7]+0.133*[#  17]+0.133*[#  13]+0.132*[#  18]
          +0.132*[#  14]
    |psi|^2 = 0.993
==== e(   8) =    -5.14061 eV ==== 
     psi = 0.190*[#   5]+0.173*[#  14]+0.173*[#  18]+0.172*[#  13]+0.172*[#  17]
          +0.109*[#  10]+0.005*[#   1]
    |psi|^2 = 0.994
==== e(   9) =    -4.59658 eV ==== 
     psi = 0.196*[#  13]+0.196*[#  17]+0.195*[#  14]+0.194*[#  18]+0.092*[#   8]
          +0.089*[#   9]+0.008*[#   3]+0.008*[#   4]
    |psi|^2 = 0.978
==== e(  10) =    -4.01803 eV ==== 
     psi = 0.308*[#  12]+0.308*[#  16]+0.130*[#   9]+0.127*[#   8]+0.053*[#  11]
          +0.053*[#  15]+0.006*[#   4]+0.006*[#   3]
    |psi|^2 = 0.992
==== e(  11) =    -3.40852 eV ==== 
     psi = 0.243*[#  14]+0.243*[#  18]+0.242*[#  13]+0.242*[#  17]+0.015*[#   2]
          
    |psi|^2 = 0.986
==== e(  12) =    -2.70961 eV ==== 
     psi = 0.326*[#  12]+0.326*[#  16]+0.126*[#   7]+0.125*[#   6]+0.048*[#  11]
          +0.048*[#  15]
    |psi|^2 = 0.998
==== e(  13) =    -0.52816 eV ==== 
     psi = 0.398*[#   8]+0.397*[#   9]+0.049*[#  13]+0.049*[#  17]+0.048*[#  14]
          +0.048*[#  18]
    |psi|^2 = 0.991
==== e(  14) =     1.27164 eV ==== 
     psi = 0.789*[#   5]+0.057*[#  10]+0.035*[#  14]+0.035*[#  18]+0.034*[#  13]
          +0.034*[#  17]
    |psi|^2 = 0.985
==== e(  15) =     2.49143 eV ==== 
     psi = 0.232*[#   6]+0.226*[#   7]+0.110*[#  13]+0.110*[#  17]+0.109*[#  14]
          +0.109*[#  18]
    |psi|^2 = 0.896
==== e(  16) =     3.08507 eV ==== 
     psi = 0.302*[#   9]+0.301*[#   8]+0.170*[#  12]+0.169*[#  16]+0.017*[#  11]
          +0.017*[#  15]
    |psi|^2 = 0.976
==== e(  17) =     4.49102 eV ==== 
     psi = 0.273*[#   7]+0.268*[#   6]+0.170*[#  12]+0.170*[#  16]+0.055*[#  11]
          +0.055*[#  15]
    |psi|^2 = 0.991
==== e(  18) =     6.77093 eV ==== 
     psi = 0.006*[#   8]+0.006*[#   9]+0.002*[#  13]+0.002*[#  14]+0.002*[#  17]
          +0.002*[#  18]
    |psi|^2 = 0.019
==== e(  19) =     7.00062 eV ==== 
     psi = 0.317*[#  10]+0.023*[#  14]+0.023*[#  18]+0.023*[#  13]+0.023*[#  17]
          +0.019*[#   1]+0.006*[#   5]
    |psi|^2 = 0.435
==== e(  20) =     8.92421 eV ==== 
 
    |psi|^2 = 0.001

 k =  -0.1111111111  0.0641500299  0.0000000000
==== e(   1) =   -61.30694 eV ==== 
     psi = 0.959*[#   1]+0.014*[#  10]+0.009*[#  12]+0.009*[#  16]+0.003*[#   5]
          +0.001*[#  11]+0.001*[#  15]
    |psi|^2 = 1.000
==== e(   2) =   -35.47914 eV ==== 
     psi = 0.978*[#   2]+0.006*[#  11]+0.006*[#  15]+0.003*[#  12]+0.003*[#  16]
          
    |psi|^2 = 1.000
==== e(   3) =   -35.28629 eV ==== 
     psi = 0.744*[#   3]+0.248*[#   4]+0.003*[#  10]
    |psi|^2 = 1.000
==== e(   4) =   -35.25059 eV ==== 
     psi = 0.748*[#   4]+0.249*[#   3]
    |psi|^2 = 1.000
==== e(   5) =   -14.46703 eV ==== 
     psi = 0.394*[#  10]+0.280*[#  15]+0.279*[#  11]+0.018*[#   1]+0.007*[#  12]
          +0.007*[#  16]+0.003*[#  13]+0.003*[#  17]+0.002*[#   9]+0.002*[#   3]
          +0.002*[#   5]
    |psi|^2 = 0.999
==== e(   6) =   -13.28159 eV ==== 
     psi = 0.468*[#  11]+0.468*[#  15]+0.024*[#   6]+0.014*[#   2]+0.008*[#   7]
          +0.006*[#  13]+0.006*[#  17]+0.002*[#  14]+0.002*[#  18]
    |psi|^2 = 0.997
==== e(   7) =    -5.96208 eV ==== 
     psi = 0.319*[#   5]+0.267*[#  12]+0.267*[#  16]+0.031*[#  11]+0.031*[#  15]
          +0.028*[#  10]+0.018*[#   1]+0.011*[#   9]+0.004*[#   8]+0.003*[#  13]
          +0.003*[#  17]+0.002*[#   3]+0.001*[#  14]+0.001*[#  18]
    |psi|^2 = 0.986
==== e(   8) =    -3.46888 eV ==== 
     psi = 0.451*[#   9]+0.150*[#   8]+0.125*[#  17]+0.124*[#  13]+0.041*[#  14]
          +0.042*[#  18]+0.021*[#  10]+0.011*[#  11]+0.011*[#  15]+0.003*[#   5]
          +0.003*[#  12]+0.003*[#  16]+0.002*[#   1]
    |psi|^2 = 0.988
==== e(   9) =    -3.01515 eV ==== 
     psi = 0.250*[#  12]+0.250*[#  16]+0.218*[#   6]+0.074*[#  13]+0.074*[#  17]
          +0.073*[#   7]+0.025*[#  14]+0.025*[#  18]+0.002*[#   2]
    |psi|^2 = 0.993
==== e(  10) =    -2.85996 eV ==== 
     psi = 0.484*[#   8]+0.161*[#   9]+0.129*[#  18]+0.129*[#  14]+0.043*[#  13]
          +0.043*[#  17]+0.001*[#   4]
    |psi|^2 = 0.990
==== e(  11) =    -2.25443 eV ==== 
     psi = 0.420*[#   7]+0.161*[#  14]+0.160*[#  18]+0.140*[#   6]+0.054*[#  13]
          +0.053*[#  17]
    |psi|^2 = 0.988
==== e(  12) =    -1.58475 eV ==== 
     psi = 0.232*[#  12]+0.232*[#  16]+0.131*[#  13]+0.131*[#  17]+0.121*[#   6]
          +0.044*[#  14]+0.044*[#  18]+0.040*[#   7]+0.006*[#   2]
    |psi|^2 = 0.983
==== e(  13) =    -0.71753 eV ==== 
     psi = 0.584*[#   5]+0.158*[#  12]+0.158*[#  16]+0.020*[#   9]+0.009*[#  11]
          +0.009*[#  15]+0.009*[#  13]+0.009*[#  17]+0.007*[#   8]+0.003*[#  14]
          +0.003*[#  18]+0.001*[#   1]+0.001*[#  10]
    |psi|^2 = 0.973
==== e(  14) =     2.08864 eV ==== 
     psi = 0.247*[#   9]+0.205*[#  13]+0.205*[#  17]+0.082*[#   8]+0.068*[#  14]
          +0.068*[#  18]+0.021*[#   5]+0.018*[#  12]+0.018*[#  16]+0.013*[#  11]
          +0.013*[#  15]+0.008*[#  10]
    |psi|^2 = 0.967
==== e(  15) =     2.10878 eV ==== 
     psi = 0.365*[#   6]+0.156*[#  13]+0.156*[#  17]+0.122*[#   7]+0.052*[#  14]
          +0.052*[#  18]+0.022*[#  11]+0.022*[#  15]+0.011*[#  12]+0.011*[#  16]
          
    |psi|^2 = 0.968
==== e(  16) =     2.34852 eV ==== 
     psi = 0.255*[#   8]+0.241*[#  14]+0.241*[#  18]+0.085*[#   9]+0.080*[#  13]
          +0.080*[#  17]+0.001*[#   4]
    |psi|^2 = 0.983
==== e(  17) =     2.69122 eV ==== 
     psi = 0.312*[#   7]+0.210*[#  14]+0.210*[#  18]+0.104*[#   6]+0.070*[#  13]
          +0.070*[#  17]
    |psi|^2 = 0.975
==== e(  18) =     5.00635 eV ==== 
     psi = 0.077*[#  10]+0.031*[#   5]+0.023*[#  11]+0.023*[#  15]+0.008*[#  13]
          +0.008*[#  17]+0.003*[#  12]+0.003*[#  16]+0.002*[#   9]+0.003*[#  14]
          +0.003*[#  18]
    |psi|^2 = 0.183
==== e(  19) =     5.15899 eV ==== 
 
    |psi|^2 = 0.001
==== e(  20) =     6.34839 eV ==== 
     psi = 0.103*[#  10]+0.030*[#  11]+0.030*[#  15]+0.010*[#   5]+0.006*[#  12]
          +0.006*[#  16]+0.005*[#  13]+0.005*[#  17]+0.002*[#  14]+0.002*[#  18]
          
    |psi|^2 = 0.198

 k =   0.1111111111  0.0641500299  0.0000000000
==== e(   1) =   -61.30693 eV ==== 
     psi = 0.959*[#   1]+0.014*[#  10]+0.009*[#  12]+0.009*[#  16]+0.003*[#   5]
          +0.001*[#  11]+0.001*[#  15]
    |psi|^2 = 1.000
==== e(   2) =   -35.47909 eV ==== 
     psi = 0.978*[#   2]+0.006*[#  11]+0.006*[#  15]+0.003*[#  12]+0.003*[#  16]
          
    |psi|^2 = 1.000
==== e(   3) =   -35.28833 eV ==== 
     psi = 0.718*[#   3]+0.273*[#   4]+0.003*[#  10]
    |psi|^2 = 1.000
==== e(   4) =   -35.24870 eV ==== 
     psi = 0.722*[#   4]+0.275*[#   3]
    |psi|^2 = 1.000
==== e(   5) =   -14.46626 eV ==== 
     psi = 0.394*[#  10]+0.280*[#  15]+0.280*[#  11]+0.018*[#   1]+0.007*[#  12]
          +0.007*[#  16]+0.003*[#  13]+0.003*[#  17]+0.002*[#   9]+0.002*[#   3]
          +0.002*[#   5]
    |psi|^2 = 0.999
==== e(   6) =   -13.28285 eV ==== 
     psi = 0.468*[#  11]+0.468*[#  15]+0.024*[#   6]+0.014*[#   2]+0.008*[#   7]
          +0.006*[#  13]+0.006*[#  17]+0.002*[#  14]+0.002*[#  18]
    |psi|^2 = 0.997
==== e(   7) =    -5.96069 eV ==== 
     psi = 0.319*[#   5]+0.267*[#  12]+0.267*[#  16]+0.031*[#  11]+0.031*[#  15]
          +0.028*[#  10]+0.018*[#   1]+0.010*[#   9]+0.004*[#   8]+0.003*[#  13]
          +0.003*[#  17]+0.002*[#   3]+0.001*[#  14]+0.001*[#  18]
    |psi|^2 = 0.986
==== e(   8) =    -3.45638 eV ==== 
     psi = 0.458*[#   9]+0.143*[#   8]+0.126*[#  17]+0.126*[#  13]+0.039*[#  14]
          +0.039*[#  18]+0.021*[#  10]+0.011*[#  11]+0.011*[#  15]+0.003*[#  12]
          +0.003*[#  16]+0.002*[#   1]+0.002*[#   5]
    |psi|^2 = 0.988
==== e(   9) =    -3.04409 eV ==== 
     psi = 0.242*[#  12]+0.242*[#  16]+0.213*[#   6]+0.085*[#   7]+0.075*[#  13]
          +0.075*[#  17]+0.028*[#  14]+0.028*[#  18]+0.002*[#   2]
    |psi|^2 = 0.992
==== e(  10) =    -2.87252 eV ==== 
     psi = 0.490*[#   8]+0.154*[#   9]+0.131*[#  18]+0.131*[#  14]+0.041*[#  13]
          +0.041*[#  17]+0.001*[#   4]
    |psi|^2 = 0.990
==== e(  11) =    -2.20402 eV ==== 
     psi = 0.415*[#   7]+0.164*[#  14]+0.164*[#  18]+0.144*[#   6]+0.050*[#  13]
          +0.050*[#  17]
    |psi|^2 = 0.988
==== e(  12) =    -1.60126 eV ==== 
     psi = 0.239*[#  12]+0.239*[#  16]+0.134*[#  13]+0.134*[#  17]+0.123*[#   6]
          +0.036*[#  14]+0.036*[#  18]+0.033*[#   7]+0.006*[#   2]
    |psi|^2 = 0.983
==== e(  13) =    -0.72336 eV ==== 
     psi = 0.584*[#   5]+0.158*[#  12]+0.158*[#  16]+0.020*[#   9]+0.010*[#  11]
          +0.010*[#  13]+0.010*[#  15]+0.010*[#  17]+0.008*[#   8]+0.003*[#  14]
          +0.003*[#  18]+0.001*[#   1]+0.001*[#  10]
    |psi|^2 = 0.973
==== e(  14) =     2.06775 eV ==== 
     psi = 0.236*[#   9]+0.196*[#  13]+0.196*[#  17]+0.092*[#   8]+0.078*[#  14]
          +0.078*[#  18]+0.022*[#   5]+0.018*[#  12]+0.018*[#  16]+0.013*[#  11]
          +0.013*[#  15]+0.008*[#  10]
    |psi|^2 = 0.967
==== e(  15) =     2.15769 eV ==== 
     psi = 0.390*[#   6]+0.169*[#  13]+0.169*[#  17]+0.093*[#   7]+0.040*[#  14]
          +0.040*[#  18]+0.022*[#  11]+0.022*[#  15]+0.010*[#  12]+0.010*[#  16]
          
    |psi|^2 = 0.967
==== e(  16) =     2.37303 eV ==== 
     psi = 0.244*[#   8]+0.231*[#  14]+0.231*[#  18]+0.095*[#   9]+0.090*[#  13]
          +0.090*[#  17]
    |psi|^2 = 0.983
==== e(  17) =     2.63703 eV ==== 
     psi = 0.339*[#   7]+0.223*[#  14]+0.223*[#  18]+0.078*[#   6]+0.057*[#  13]
          +0.057*[#  17]
    |psi|^2 = 0.976
==== e(  18) =     5.00698 eV ==== 
     psi = 0.077*[#  10]+0.031*[#   5]+0.023*[#  11]+0.023*[#  15]+0.008*[#  13]
          +0.008*[#  17]+0.003*[#  12]+0.003*[#  16]+0.003*[#  14]+0.003*[#  18]
          +0.002*[#   9]
    |psi|^2 = 0.183
==== e(  19) =     5.15989 eV ==== 
 
    |psi|^2 = 0.002
==== e(  20) =     6.34793 eV ==== 
     psi = 0.104*[#  10]+0.030*[#  11]+0.030*[#  15]+0.010*[#   5]+0.006*[#  12]
          +0.006*[#  16]+0.005*[#  13]+0.005*[#  17]+0.002*[#  14]+0.002*[#  18]
          
    |psi|^2 = 0.199

 k =  -0.2222222222  0.1283000598  0.0000000000
==== e(   1) =   -61.29424 eV ==== 
     psi = 0.969*[#   1]+0.008*[#  12]+0.008*[#  16]+0.003*[#  13]+0.003*[#  17]
          +0.003*[#  10]+0.002*[#  11]+0.002*[#  15]
    |psi|^2 = 1.000
==== e(   2) =   -35.45449 eV ==== 
     psi = 0.979*[#   2]+0.004*[#  11]+0.004*[#  15]+0.003*[#  13]+0.003*[#  17]
          +0.002*[#  12]+0.002*[#  16]
    |psi|^2 = 1.000
==== e(   3) =   -35.40997 eV ==== 
     psi = 0.735*[#   3]+0.245*[#   4]+0.009*[#  10]+0.003*[#  12]+0.003*[#  16]
          +0.001*[#   5]
    |psi|^2 = 1.000
==== e(   4) =   -35.27895 eV ==== 
     psi = 0.747*[#   4]+0.249*[#   3]+0.001*[#  14]+0.001*[#  18]
    |psi|^2 = 1.000
==== e(   5) =   -13.95770 eV ==== 
     psi = 0.313*[#  15]+0.312*[#  11]+0.300*[#  10]+0.012*[#   9]+0.010*[#   1]
          +0.008*[#  13]+0.008*[#  17]+0.007*[#  12]+0.007*[#  16]+0.006*[#   3]
          +0.004*[#   8]+0.003*[#  14]+0.003*[#  18]+0.003*[#   5]+0.002*[#   4]
          
    |psi|^2 = 0.999
==== e(   6) =   -13.06630 eV ==== 
     psi = 0.428*[#  11]+0.428*[#  15]+0.074*[#   6]+0.025*[#   7]+0.012*[#  13]
          +0.012*[#  17]+0.012*[#   2]+0.004*[#  14]+0.004*[#  18]
    |psi|^2 = 0.999
==== e(   7) =    -5.55524 eV ==== 
     psi = 0.235*[#  12]+0.235*[#  16]+0.227*[#   5]+0.114*[#   9]+0.038*[#   8]
          +0.032*[#  13]+0.032*[#  17]+0.016*[#  11]+0.016*[#  15]+0.011*[#  14]
          +0.011*[#  18]+0.010*[#  10]+0.007*[#   1]+0.004*[#   3]+0.001*[#   4]
          
    |psi|^2 = 0.987
==== e(   8) =    -4.18425 eV ==== 
     psi = 0.231*[#   9]+0.135*[#  17]+0.135*[#  13]+0.077*[#   8]+0.072*[#  10]
          +0.055*[#  12]+0.055*[#  16]+0.045*[#   5]+0.045*[#  18]+0.045*[#  14]
          +0.038*[#  11]+0.038*[#  15]+0.009*[#   1]+0.003*[#   3]+0.001*[#   4]
          
    |psi|^2 = 0.984
==== e(   9) =    -3.89280 eV ==== 
     psi = 0.230*[#   6]+0.154*[#  13]+0.154*[#  17]+0.128*[#  12]+0.128*[#  16]
          +0.077*[#   7]+0.051*[#  14]+0.051*[#  18]+0.008*[#  11]+0.008*[#  15]
          
    |psi|^2 = 0.989
==== e(  10) =    -2.82571 eV ==== 
     psi = 0.405*[#   7]+0.169*[#  18]+0.169*[#  14]+0.135*[#   6]+0.056*[#  17]
          +0.056*[#  13]
    |psi|^2 = 0.990
==== e(  11) =    -2.34973 eV ==== 
     psi = 0.392*[#   8]+0.173*[#  14]+0.173*[#  18]+0.131*[#   9]+0.058*[#  13]
          +0.058*[#  17]+0.002*[#   4]
    |psi|^2 = 0.987
==== e(  12) =    -1.75177 eV ==== 
     psi = 0.302*[#  12]+0.302*[#  16]+0.130*[#  13]+0.130*[#  17]+0.043*[#  14]
          +0.043*[#  18]+0.010*[#  11]+0.010*[#  15]+0.009*[#   2]+0.005*[#   6]
          +0.002*[#   7]
    |psi|^2 = 0.987
==== e(  13) =    -1.12718 eV ==== 
     psi = 0.493*[#   5]+0.134*[#   9]+0.093*[#  12]+0.093*[#  16]+0.045*[#   8]
          +0.031*[#  13]+0.031*[#  17]+0.017*[#  11]+0.017*[#  15]+0.010*[#  14]
          +0.010*[#  18]+0.006*[#  10]+0.001*[#   1]
    |psi|^2 = 0.982
==== e(  14) =     1.61196 eV ==== 
     psi = 0.224*[#   9]+0.169*[#   5]+0.126*[#  13]+0.126*[#  17]+0.075*[#   8]
          +0.057*[#  12]+0.057*[#  16]+0.042*[#  14]+0.042*[#  18]+0.010*[#  10]
          +0.010*[#  11]+0.010*[#  15]
    |psi|^2 = 0.947
==== e(  15) =     1.97101 eV ==== 
     psi = 0.345*[#   8]+0.195*[#  14]+0.195*[#  18]+0.115*[#   9]+0.065*[#  13]
          +0.065*[#  17]
    |psi|^2 = 0.981
==== e(  16) =     2.28101 eV ==== 
     psi = 0.409*[#   6]+0.136*[#   7]+0.071*[#  13]+0.071*[#  17]+0.062*[#  12]
          +0.062*[#  16]+0.047*[#  11]+0.047*[#  15]+0.024*[#  14]+0.024*[#  18]
          
    |psi|^2 = 0.950
==== e(  17) =     3.25400 eV ==== 
     psi = 0.329*[#   7]+0.204*[#  14]+0.204*[#  18]+0.110*[#   6]+0.068*[#  13]
          +0.068*[#  17]
    |psi|^2 = 0.982
==== e(  18) =     5.67825 eV ==== 
     psi = 0.082*[#  10]+0.027*[#   5]+0.014*[#  11]+0.014*[#  15]+0.007*[#  13]
          +0.007*[#  17]+0.002*[#   9]+0.002*[#  12]+0.002*[#  14]+0.002*[#  16]
          +0.002*[#  18]
    |psi|^2 = 0.165
==== e(  19) =     5.84295 eV ==== 
     psi = 0.003*[#   6]
    |psi|^2 = 0.006
==== e(  20) =     7.06580 eV ==== 
     psi = 0.059*[#  10]+0.011*[#  11]+0.011*[#  15]+0.007*[#   5]+0.003*[#  12]
          +0.003*[#  16]+0.003*[#  13]+0.003*[#  17]+0.001*[#  14]+0.001*[#  18]
          
    |psi|^2 = 0.104

 k =   0.2222222222  0.1283000598  0.0000000000
==== e(   1) =   -61.29421 eV ==== 
     psi = 0.969*[#   1]+0.008*[#  12]+0.008*[#  16]+0.003*[#  13]+0.003*[#  17]
          +0.003*[#  10]+0.002*[#  11]+0.002*[#  15]
    |psi|^2 = 1.000
==== e(   2) =   -35.45431 eV ==== 
     psi = 0.979*[#   2]+0.004*[#  11]+0.004*[#  15]+0.003*[#  13]+0.003*[#  17]
          +0.002*[#  12]+0.002*[#  16]
    |psi|^2 = 1.000
==== e(   3) =   -35.41232 eV ==== 
     psi = 0.727*[#   3]+0.253*[#   4]+0.009*[#  10]+0.003*[#  12]+0.003*[#  16]
          +0.001*[#   5]
    |psi|^2 = 1.000
==== e(   4) =   -35.27713 eV ==== 
     psi = 0.738*[#   4]+0.257*[#   3]+0.001*[#  14]+0.001*[#  18]
    |psi|^2 = 1.000
==== e(   5) =   -13.95462 eV ==== 
     psi = 0.313*[#  15]+0.312*[#  11]+0.300*[#  10]+0.012*[#   9]+0.010*[#   1]
          +0.008*[#  13]+0.008*[#  17]+0.007*[#  12]+0.007*[#  16]+0.006*[#   3]
          +0.004*[#   8]+0.003*[#  14]+0.003*[#  18]+0.003*[#   5]+0.002*[#   4]
          
    |psi|^2 = 0.999
==== e(   6) =   -13.07132 eV ==== 
     psi = 0.428*[#  11]+0.427*[#  15]+0.075*[#   6]+0.026*[#   7]+0.012*[#  13]
          +0.012*[#  17]+0.012*[#   2]+0.004*[#  14]+0.004*[#  18]
    |psi|^2 = 0.999
==== e(   7) =    -5.55019 eV ==== 
     psi = 0.235*[#  12]+0.235*[#  16]+0.228*[#   5]+0.113*[#   9]+0.038*[#   8]
          +0.032*[#  13]+0.032*[#  17]+0.015*[#  11]+0.015*[#  15]+0.011*[#  14]
          +0.011*[#  18]+0.010*[#  10]+0.007*[#   1]+0.004*[#   3]+0.001*[#   4]
          
    |psi|^2 = 0.987
==== e(   8) =    -4.17402 eV ==== 
     psi = 0.233*[#   9]+0.135*[#  17]+0.135*[#  13]+0.076*[#   8]+0.072*[#  10]
          +0.056*[#  12]+0.056*[#  16]+0.044*[#  18]+0.044*[#  14]+0.043*[#   5]
          +0.039*[#  11]+0.039*[#  15]+0.009*[#   1]+0.003*[#   3]+0.001*[#   4]
          
    |psi|^2 = 0.984
==== e(   9) =    -3.91615 eV ==== 
     psi = 0.223*[#   6]+0.153*[#  13]+0.152*[#  17]+0.127*[#  12]+0.127*[#  16]
          +0.084*[#   7]+0.053*[#  14]+0.053*[#  18]+0.008*[#  11]+0.008*[#  15]
          
    |psi|^2 = 0.989
==== e(  10) =    -2.78819 eV ==== 
     psi = 0.397*[#   7]+0.169*[#  18]+0.169*[#  14]+0.142*[#   6]+0.056*[#  17]
          +0.056*[#  13]
    |psi|^2 = 0.990
==== e(  11) =    -2.35844 eV ==== 
     psi = 0.390*[#   8]+0.175*[#  14]+0.174*[#  18]+0.133*[#   9]+0.056*[#  13]
          +0.056*[#  17]+0.002*[#   4]
    |psi|^2 = 0.987
==== e(  12) =    -1.74882 eV ==== 
     psi = 0.302*[#  12]+0.302*[#  16]+0.133*[#  13]+0.133*[#  17]+0.040*[#  14]
          +0.040*[#  18]+0.010*[#  11]+0.010*[#  15]+0.009*[#   2]+0.005*[#   6]
          +0.002*[#   7]
    |psi|^2 = 0.987
==== e(  13) =    -1.14985 eV ==== 
     psi = 0.490*[#   5]+0.133*[#   9]+0.090*[#  12]+0.090*[#  16]+0.051*[#   8]
          +0.032*[#  13]+0.032*[#  17]+0.017*[#  11]+0.017*[#  15]+0.010*[#  14]
          +0.010*[#  18]+0.006*[#  10]+0.001*[#   1]
    |psi|^2 = 0.982
==== e(  14) =     1.60970 eV ==== 
     psi = 0.224*[#   9]+0.172*[#   5]+0.126*[#  13]+0.126*[#  17]+0.071*[#   8]
          +0.058*[#  12]+0.058*[#  16]+0.042*[#  14]+0.042*[#  18]+0.009*[#  11]
          +0.009*[#  15]+0.009*[#  10]
    |psi|^2 = 0.946
==== e(  15) =     1.98563 eV ==== 
     psi = 0.345*[#   8]+0.195*[#  14]+0.195*[#  18]+0.114*[#   9]+0.065*[#  13]
          +0.065*[#  17]
    |psi|^2 = 0.981
==== e(  16) =     2.30921 eV ==== 
     psi = 0.421*[#   6]+0.122*[#   7]+0.071*[#  13]+0.071*[#  17]+0.062*[#  12]
          +0.062*[#  16]+0.047*[#  11]+0.047*[#  15]+0.023*[#  14]+0.023*[#  18]
          
    |psi|^2 = 0.949
==== e(  17) =     3.21773 eV ==== 
     psi = 0.343*[#   7]+0.205*[#  14]+0.205*[#  18]+0.097*[#   6]+0.066*[#  13]
          +0.066*[#  17]
    |psi|^2 = 0.983
==== e(  18) =     5.68041 eV ==== 
     psi = 0.081*[#  10]+0.028*[#   5]+0.014*[#  11]+0.014*[#  15]+0.007*[#  13]
          +0.007*[#  17]+0.002*[#   9]+0.002*[#  14]+0.002*[#  18]+0.002*[#  12]
          +0.002*[#  16]
    |psi|^2 = 0.164
==== e(  19) =     5.84567 eV ==== 
     psi = 0.003*[#   6]+0.001*[#   7]
    |psi|^2 = 0.006
==== e(  20) =     7.06644 eV ==== 
     psi = 0.059*[#  10]+0.011*[#  11]+0.011*[#  15]+0.008*[#   5]+0.003*[#  12]
          +0.003*[#  13]+0.003*[#  16]+0.003*[#  17]+0.001*[#  14]+0.001*[#  18]
          
    |psi|^2 = 0.104

 k =  -0.3333333333  0.1924500897  0.0000000000
==== e(   1) =   -61.27975 eV ==== 
     psi = 0.968*[#   1]+0.005*[#  13]+0.005*[#  17]+0.005*[#  12]+0.005*[#  16]
          +0.003*[#   9]+0.002*[#  10]+0.002*[#  14]+0.002*[#  18]+0.001*[#  11]
          +0.001*[#  15]
    |psi|^2 = 1.000
==== e(   2) =   -35.54766 eV ==== 
     psi = 0.729*[#   3]+0.243*[#   4]+0.008*[#  10]+0.005*[#  12]+0.005*[#  16]
          +0.002*[#  11]+0.002*[#  15]+0.001*[#   5]+0.001*[#  13]+0.001*[#  17]
          
    |psi|^2 = 1.000
==== e(   3) =   -35.42632 eV ==== 
     psi = 0.981*[#   2]+0.004*[#  13]+0.004*[#  17]+0.002*[#  11]+0.002*[#  15]
          +0.001*[#  12]+0.001*[#  14]+0.001*[#  16]+0.001*[#  18]
    |psi|^2 = 1.000
==== e(   4) =   -35.31101 eV ==== 
     psi = 0.746*[#   4]+0.249*[#   3]+0.002*[#  14]+0.002*[#  18]
    |psi|^2 = 1.000
==== e(   5) =   -13.29091 eV ==== 
     psi = 0.364*[#  15]+0.363*[#  11]+0.166*[#  10]+0.033*[#   9]+0.011*[#   8]
          +0.010*[#  13]+0.010*[#  17]+0.009*[#  12]+0.009*[#  16]+0.008*[#   3]
          +0.004*[#   1]+0.003*[#  18]+0.003*[#   5]+0.003*[#  14]+0.003*[#   4]
          
    |psi|^2 = 0.999
==== e(   6) =   -12.79015 eV ==== 
     psi = 0.403*[#  11]+0.402*[#  15]+0.122*[#   6]+0.041*[#   7]+0.009*[#  13]
          +0.009*[#  17]+0.007*[#   2]+0.003*[#  14]+0.003*[#  18]
    |psi|^2 = 0.999
==== e(   7) =    -5.77490 eV ==== 
     psi = 0.243*[#   9]+0.154*[#  17]+0.154*[#  13]+0.081*[#   8]+0.065*[#  12]
          +0.066*[#  16]+0.063*[#   5]+0.051*[#  14]+0.051*[#  18]+0.025*[#  10]
          +0.013*[#  11]+0.013*[#  15]+0.006*[#   1]+0.002*[#   3]
    |psi|^2 = 0.986
==== e(   8) =    -4.74171 eV ==== 
     psi = 0.231*[#  13]+0.231*[#  17]+0.169*[#   6]+0.077*[#  14]+0.077*[#  18]
          +0.056*[#   7]+0.052*[#  12]+0.052*[#  16]+0.019*[#  11]+0.019*[#  15]
          +0.004*[#   2]
    |psi|^2 = 0.989
==== e(   9) =    -4.39667 eV ==== 
     psi = 0.216*[#  12]+0.216*[#  16]+0.154*[#   5]+0.078*[#  13]+0.078*[#  17]
          +0.053*[#  10]+0.049*[#  11]+0.049*[#  15]+0.026*[#  14]+0.026*[#  18]
          +0.017*[#   9]+0.007*[#   3]+0.006*[#   1]+0.006*[#   8]+0.002*[#   4]
          
    |psi|^2 = 0.983
==== e(  10) =    -3.33812 eV ==== 
     psi = 0.396*[#   7]+0.174*[#  18]+0.174*[#  14]+0.132*[#   6]+0.058*[#  13]
          +0.058*[#  17]
    |psi|^2 = 0.992
==== e(  11) =    -2.16988 eV ==== 
     psi = 0.323*[#  12]+0.323*[#  16]+0.087*[#  13]+0.087*[#  17]+0.048*[#   6]
          +0.029*[#  14]+0.029*[#  18]+0.022*[#  11]+0.022*[#  15]+0.016*[#   7]
          +0.007*[#   2]
    |psi|^2 = 0.992
==== e(  12) =    -1.76879 eV ==== 
     psi = 0.254*[#  14]+0.254*[#  18]+0.226*[#   8]+0.085*[#  13]+0.085*[#  17]
          +0.075*[#   9]+0.004*[#   4]+0.001*[#   3]
    |psi|^2 = 0.983
==== e(  13) =    -1.50032 eV ==== 
     psi = 0.377*[#   5]+0.226*[#   9]+0.100*[#  12]+0.100*[#  16]+0.075*[#   8]
          +0.040*[#  10]+0.014*[#  13]+0.014*[#  17]+0.010*[#  11]+0.010*[#  15]
          +0.005*[#  14]+0.005*[#  18]+0.003*[#   3]
    |psi|^2 = 0.980
==== e(  14) =     1.76734 eV ==== 
     psi = 0.512*[#   8]+0.171*[#   9]+0.114*[#  14]+0.114*[#  18]+0.038*[#  13]
          +0.038*[#  17]
    |psi|^2 = 0.986
==== e(  15) =     1.79843 eV ==== 
     psi = 0.356*[#   5]+0.183*[#   9]+0.080*[#  13]+0.080*[#  17]+0.061*[#   8]
          +0.052*[#  12]+0.052*[#  16]+0.027*[#  14]+0.027*[#  18]+0.018*[#  10]
          +0.005*[#  11]+0.005*[#  15]
    |psi|^2 = 0.947
==== e(  16) =     2.90067 eV ==== 
     psi = 0.370*[#   6]+0.123*[#   7]+0.111*[#  12]+0.111*[#  16]+0.050*[#  11]
          +0.050*[#  15]+0.040*[#  13]+0.040*[#  17]+0.013*[#  14]+0.013*[#  18]
          
    |psi|^2 = 0.922
==== e(  17) =     3.66982 eV ==== 
     psi = 0.337*[#   7]+0.200*[#  14]+0.200*[#  18]+0.112*[#   6]+0.067*[#  13]
          +0.067*[#  17]
    |psi|^2 = 0.982
==== e(  18) =     6.53367 eV ==== 
     psi = 0.076*[#  10]+0.016*[#   5]+0.007*[#  11]+0.007*[#  15]+0.003*[#   9]
          +0.002*[#  13]+0.002*[#  17]+0.002*[#  12]+0.002*[#  16]+0.001*[#   1]
          
    |psi|^2 = 0.121
==== e(  19) =     6.75164 eV ==== 
     psi = 0.003*[#   6]
    |psi|^2 = 0.007
==== e(  20) =     7.37032 eV ==== 
     psi = 0.275*[#  10]+0.030*[#  12]+0.030*[#  16]+0.023*[#  11]+0.023*[#  15]
          +0.020*[#   9]+0.016*[#  13]+0.016*[#  17]+0.007*[#   1]+0.007*[#   8]
          +0.006*[#   5]+0.005*[#  14]+0.005*[#  18]
    |psi|^2 = 0.464

 k =   0.3333333333  0.1924500897  0.0000000000
==== e(   1) =   -61.27970 eV ==== 
     psi = 0.968*[#   1]+0.005*[#  13]+0.005*[#  17]+0.005*[#  12]+0.005*[#  16]
          +0.003*[#   9]+0.002*[#  10]+0.002*[#  14]+0.002*[#  18]+0.001*[#  11]
          +0.001*[#  15]
    |psi|^2 = 1.000
==== e(   2) =   -35.55037 eV ==== 
     psi = 0.724*[#   3]+0.248*[#   4]+0.008*[#  10]+0.005*[#  12]+0.005*[#  16]
          +0.002*[#  11]+0.002*[#  15]+0.001*[#   5]
    |psi|^2 = 1.000
==== e(   3) =   -35.42599 eV ==== 
     psi = 0.981*[#   2]+0.004*[#  13]+0.004*[#  17]+0.002*[#  11]+0.002*[#  15]
          +0.001*[#  14]+0.001*[#  18]+0.001*[#  12]+0.001*[#  16]
    |psi|^2 = 1.000
==== e(   4) =   -35.30923 eV ==== 
     psi = 0.740*[#   4]+0.254*[#   3]+0.002*[#  14]+0.002*[#  18]
    |psi|^2 = 1.000
==== e(   5) =   -13.28407 eV ==== 
     psi = 0.364*[#  15]+0.364*[#  11]+0.166*[#  10]+0.032*[#   9]+0.011*[#   8]
          +0.010*[#  13]+0.010*[#  17]+0.009*[#  12]+0.009*[#  16]+0.008*[#   3]
          +0.004*[#   1]+0.003*[#  14]+0.003*[#  18]+0.003*[#   5]+0.003*[#   4]
          
    |psi|^2 = 0.999
==== e(   6) =   -12.80087 eV ==== 
     psi = 0.402*[#  11]+0.401*[#  15]+0.123*[#   6]+0.042*[#   7]+0.009*[#  13]
          +0.009*[#  17]+0.007*[#   2]+0.003*[#  14]+0.003*[#  18]
    |psi|^2 = 0.999
==== e(   7) =    -5.77436 eV ==== 
     psi = 0.241*[#   9]+0.155*[#  17]+0.155*[#  13]+0.081*[#   8]+0.065*[#   5]
          +0.064*[#  12]+0.064*[#  16]+0.051*[#  14]+0.051*[#  18]+0.025*[#  10]
          +0.013*[#  11]+0.012*[#  15]+0.006*[#   1]+0.002*[#   3]
    |psi|^2 = 0.986
==== e(   8) =    -4.74255 eV ==== 
     psi = 0.231*[#  13]+0.231*[#  17]+0.166*[#   6]+0.078*[#  14]+0.078*[#  18]
          +0.058*[#   7]+0.053*[#  12]+0.053*[#  16]+0.018*[#  11]+0.018*[#  15]
          +0.004*[#   2]
    |psi|^2 = 0.989
==== e(   9) =    -4.38166 eV ==== 
     psi = 0.218*[#  12]+0.218*[#  16]+0.151*[#   5]+0.076*[#  13]+0.076*[#  17]
          +0.054*[#  10]+0.049*[#  11]+0.049*[#  15]+0.026*[#  14]+0.026*[#  18]
          +0.017*[#   9]+0.007*[#   3]+0.006*[#   1]+0.006*[#   8]+0.002*[#   4]
          
    |psi|^2 = 0.983
==== e(  10) =    -3.30901 eV ==== 
     psi = 0.393*[#   7]+0.175*[#  18]+0.175*[#  14]+0.134*[#   6]+0.058*[#  13]
          +0.058*[#  17]
    |psi|^2 = 0.992
==== e(  11) =    -2.17905 eV ==== 
     psi = 0.321*[#  12]+0.321*[#  16]+0.090*[#  13]+0.090*[#  17]+0.049*[#   6]
          +0.027*[#  14]+0.027*[#  18]+0.022*[#  11]+0.022*[#  15]+0.015*[#   7]
          +0.007*[#   2]
    |psi|^2 = 0.992
==== e(  12) =    -1.77206 eV ==== 
     psi = 0.258*[#  14]+0.258*[#  18]+0.199*[#   8]+0.103*[#   9]+0.076*[#  13]
          +0.076*[#  17]+0.004*[#   4]+0.004*[#   5]+0.001*[#  12]+0.001*[#  16]
          
    |psi|^2 = 0.983
==== e(  13) =    -1.52988 eV ==== 
     psi = 0.371*[#   5]+0.202*[#   9]+0.106*[#   8]+0.096*[#  12]+0.096*[#  16]
          +0.040*[#  10]+0.023*[#  13]+0.023*[#  17]+0.009*[#  11]+0.009*[#  15]
          +0.003*[#   3]
    |psi|^2 = 0.980
==== e(  14) =     1.76645 eV ==== 
     psi = 0.409*[#   8]+0.249*[#   9]+0.088*[#  14]+0.088*[#  18]+0.061*[#  13]
          +0.061*[#  17]+0.020*[#   5]+0.003*[#  12]+0.003*[#  16]
    |psi|^2 = 0.984
==== e(  15) =     1.80882 eV ==== 
     psi = 0.339*[#   5]+0.160*[#   8]+0.105*[#   9]+0.057*[#  13]+0.057*[#  17]
          +0.053*[#  14]+0.053*[#  18]+0.050*[#  12]+0.050*[#  16]+0.016*[#  10]
          +0.005*[#  11]+0.005*[#  15]
    |psi|^2 = 0.950
==== e(  16) =     2.93165 eV ==== 
     psi = 0.387*[#   6]+0.111*[#  12]+0.111*[#  16]+0.105*[#   7]+0.051*[#  11]
          +0.051*[#  15]+0.036*[#  13]+0.036*[#  17]+0.016*[#  14]+0.016*[#  18]
          
    |psi|^2 = 0.921
==== e(  17) =     3.64863 eV ==== 
     psi = 0.356*[#   7]+0.197*[#  14]+0.197*[#  18]+0.096*[#   6]+0.069*[#  13]
          +0.069*[#  17]
    |psi|^2 = 0.982
==== e(  18) =     6.53330 eV ==== 
     psi = 0.075*[#  10]+0.017*[#   5]+0.007*[#  11]+0.007*[#  15]+0.003*[#   9]
          +0.002*[#  13]+0.002*[#  17]+0.002*[#  12]+0.002*[#  16]+0.001*[#   1]
          
    |psi|^2 = 0.119
==== e(  19) =     6.75367 eV ==== 
     psi = 0.003*[#   6]+0.001*[#   7]
    |psi|^2 = 0.007
==== e(  20) =     7.36968 eV ==== 
     psi = 0.274*[#  10]+0.030*[#  12]+0.030*[#  16]+0.023*[#  11]+0.023*[#  15]
          +0.019*[#   9]+0.016*[#  13]+0.016*[#  17]+0.007*[#   1]+0.006*[#   8]
          +0.005*[#  14]+0.005*[#  18]+0.005*[#   5]
    |psi|^2 = 0.460

 k =  -0.4444444444  0.2566001196  0.0000000000
==== e(   1) =   -61.27026 eV ==== 
     psi = 0.956*[#   1]+0.018*[#  10]+0.006*[#  13]+0.006*[#  17]+0.005*[#   9]
          +0.002*[#  14]+0.002*[#  18]+0.002*[#   8]+0.002*[#  12]+0.002*[#  16]
          
    |psi|^2 = 1.000
==== e(   2) =   -35.63613 eV ==== 
     psi = 0.729*[#   3]+0.243*[#   4]+0.007*[#  12]+0.007*[#  16]+0.004*[#  11]
          +0.004*[#  15]+0.001*[#  10]+0.001*[#  13]+0.001*[#  17]
    |psi|^2 = 1.000
==== e(   3) =   -35.40785 eV ==== 
     psi = 0.984*[#   2]+0.005*[#  13]+0.005*[#  17]+0.002*[#  14]+0.002*[#  18]
          
    |psi|^2 = 1.000
==== e(   4) =   -35.33181 eV ==== 
     psi = 0.745*[#   4]+0.248*[#   3]+0.002*[#  14]+0.002*[#  18]
    |psi|^2 = 1.000
==== e(   5) =   -12.77541 eV ==== 
     psi = 0.415*[#  15]+0.413*[#  11]+0.056*[#   9]+0.050*[#  10]+0.019*[#   8]
          +0.011*[#  12]+0.011*[#  16]+0.008*[#   3]+0.003*[#   5]+0.003*[#   4]
          +0.002*[#  13]+0.002*[#  17]+0.002*[#   1]
    |psi|^2 = 0.997
==== e(   6) =   -12.58587 eV ==== 
     psi = 0.395*[#  11]+0.393*[#  15]+0.151*[#   6]+0.050*[#   7]+0.002*[#   2]
          +0.002*[#  13]+0.002*[#  17]+0.001*[#  12]+0.001*[#  16]
    |psi|^2 = 0.999
==== e(   7) =    -6.25233 eV ==== 
     psi = 0.237*[#  17]+0.237*[#  13]+0.136*[#   9]+0.079*[#  14]+0.079*[#  18]
          +0.068*[#  10]+0.045*[#   8]+0.031*[#   5]+0.019*[#  11]+0.019*[#  15]
          +0.012*[#  12]+0.012*[#  16]+0.010*[#   1]+0.002*[#   3]
    |psi|^2 = 0.986
==== e(   8) =    -5.29811 eV ==== 
     psi = 0.272*[#  13]+0.272*[#  17]+0.122*[#   6]+0.091*[#  14]+0.091*[#  18]
          +0.041*[#   7]+0.025*[#  11]+0.025*[#  15]+0.021*[#  12]+0.021*[#  16]
          +0.009*[#   2]
    |psi|^2 = 0.991
[...]
          +0.002*[#  11]+0.002*[#  15]
    |psi|^2 = 0.316
==== e(  19) =     7.96053 eV ==== 
     psi = 0.028*[#  10]+0.008*[#  13]+0.008*[#  17]+0.005*[#  12]+0.005*[#  16]
          +0.004*[#   8]+0.002*[#  14]+0.002*[#  18]+0.002*[#   1]
    |psi|^2 = 0.067
==== e(  20) =     8.41465 eV ==== 
     psi = 0.014*[#   7]+0.003*[#  12]+0.003*[#  16]+0.001*[#   6]
    |psi|^2 = 0.024

 k =  -0.3333333333  0.4490502094  0.0000000000
==== e(   1) =   -61.26607 eV ==== 
     psi = 0.953*[#   1]+0.025*[#  10]+0.004*[#  13]+0.004*[#  14]+0.004*[#  17]
          +0.004*[#  18]+0.002*[#   9]
    |psi|^2 = 1.000
==== e(   2) =   -35.58730 eV ==== 
     psi = 0.539*[#   3]+0.433*[#   4]+0.006*[#  12]+0.006*[#  16]+0.003*[#  11]
          +0.003*[#  15]+0.002*[#   8]+0.002*[#   9]+0.002*[#  13]+0.002*[#  17]
          
    |psi|^2 = 1.000
==== e(   3) =   -35.43240 eV ==== 
     psi = 0.546*[#   4]+0.439*[#   3]+0.002*[#   8]+0.002*[#   9]+0.002*[#  14]
          +0.002*[#  18]+0.001*[#  13]+0.001*[#  17]+0.001*[#  12]+0.001*[#  16]
          
    |psi|^2 = 1.000
==== e(   4) =   -35.39958 eV ==== 
     psi = 0.984*[#   2]+0.004*[#  13]+0.004*[#  17]+0.003*[#  14]+0.003*[#  18]
          
    |psi|^2 = 1.000
==== e(   5) =   -12.55409 eV ==== 
     psi = 0.419*[#  15]+0.414*[#  11]+0.055*[#   9]+0.044*[#   8]+0.022*[#  10]
          +0.011*[#  12]+0.011*[#  16]+0.007*[#   3]+0.007*[#   4]+0.003*[#  14]
          +0.003*[#  18]+0.001*[#   5]
    |psi|^2 = 0.998
==== e(   6) =   -12.46514 eV ==== 
     psi = 0.398*[#  11]+0.393*[#  15]+0.103*[#   6]+0.097*[#   7]+0.002*[#  14]
          +0.002*[#  18]+0.002*[#  12]+0.002*[#  16]+0.001*[#   2]
    |psi|^2 = 0.999
==== e(   7) =    -5.72437 eV ==== 
     psi = 0.237*[#   6]+0.178*[#   7]+0.156*[#  17]+0.154*[#  13]+0.127*[#  18]
          +0.126*[#  14]+0.005*[#  11]+0.005*[#  15]+0.002*[#   2]
    |psi|^2 = 0.992
==== e(   8) =    -5.66822 eV ==== 
     psi = 0.183*[#  13]+0.182*[#  17]+0.152*[#  14]+0.151*[#  18]+0.082*[#   5]
          +0.077*[#   8]+0.075*[#  10]+0.051*[#   9]+0.009*[#  12]+0.009*[#  16]
          +0.005*[#   3]+0.005*[#   1]+0.004*[#  11]+0.004*[#  15]+0.001*[#   4]
          
    |psi|^2 = 0.989
==== e(   9) =    -4.30769 eV ==== 
     psi = 0.195*[#  12]+0.195*[#  16]+0.162*[#   9]+0.081*[#   5]+0.070*[#  13]
          +0.070*[#  17]+0.069*[#   8]+0.036*[#  11]+0.036*[#  15]+0.026*[#  14]
          +0.026*[#  18]+0.013*[#  10]+0.007*[#   4]+0.002*[#   3]+0.001*[#   1]
          
    |psi|^2 = 0.989
==== e(  10) =    -3.65466 eV ==== 
     psi = 0.187*[#  18]+0.187*[#  14]+0.157*[#   7]+0.145*[#  13]+0.145*[#  17]
          +0.065*[#  12]+0.065*[#  16]+0.011*[#  11]+0.011*[#  15]+0.008*[#   6]
          +0.008*[#   2]
    |psi|^2 = 0.988
==== e(  11) =    -3.42505 eV ==== 
     psi = 0.174*[#  14]+0.174*[#  18]+0.112*[#  13]+0.112*[#  17]+0.106*[#  16]
          +0.106*[#  12]+0.064*[#   5]+0.053*[#   8]+0.017*[#   9]+0.017*[#  11]
          +0.017*[#  15]+0.014*[#  10]+0.007*[#   3]+0.004*[#   4]
    |psi|^2 = 0.976
==== e(  12) =    -2.40293 eV ==== 
     psi = 0.269*[#  12]+0.269*[#  16]+0.111*[#   6]+0.078*[#  13]+0.078*[#  17]
          +0.044*[#  14]+0.044*[#  18]+0.035*[#   7]+0.031*[#  11]+0.031*[#  15]
          +0.005*[#   2]
    |psi|^2 = 0.995
==== e(  13) =    -0.81283 eV ==== 
     psi = 0.330*[#   8]+0.288*[#   9]+0.119*[#   5]+0.056*[#  14]+0.056*[#  18]
          +0.050*[#  13]+0.050*[#  17]+0.013*[#  12]+0.013*[#  16]+0.011*[#  10]
          
    |psi|^2 = 0.988
==== e(  14) =     1.61416 eV ==== 
     psi = 0.598*[#   5]+0.122*[#   8]+0.044*[#  14]+0.044*[#  18]+0.034*[#  13]
          +0.034*[#  17]+0.033*[#   9]+0.025*[#  12]+0.025*[#  16]+0.023*[#  10]
          
    |psi|^2 = 0.983
==== e(  15) =     2.68084 eV ==== 
     psi = 0.271*[#   6]+0.199*[#   7]+0.123*[#  14]+0.123*[#  18]+0.086*[#  13]
          +0.086*[#  17]+0.005*[#  12]+0.005*[#  16]+0.003*[#  11]+0.003*[#  15]
          
    |psi|^2 = 0.904
==== e(  16) =     2.68833 eV ==== 
     psi = 0.364*[#   9]+0.271*[#   8]+0.113*[#  12]+0.113*[#  16]+0.036*[#   5]
          +0.022*[#  10]+0.013*[#  11]+0.013*[#  15]+0.007*[#  13]+0.008*[#  17]
          +0.001*[#  14]+0.001*[#  18]
    |psi|^2 = 0.963
==== e(  17) =     4.18691 eV ==== 
     psi = 0.291*[#   7]+0.217*[#   6]+0.152*[#  12]+0.152*[#  16]+0.050*[#  11]
          +0.050*[#  15]+0.023*[#  13]+0.023*[#  17]+0.002*[#  14]+0.002*[#  18]
          
    |psi|^2 = 0.961
==== e(  18) =     6.43957 eV ==== 
     psi = 0.210*[#  10]+0.014*[#  13]+0.014*[#  17]+0.014*[#   8]+0.012*[#   1]
          +0.010*[#  14]+0.010*[#  18]+0.009*[#   9]+0.008*[#  12]+0.008*[#  16]
          +0.002*[#  11]+0.002*[#  15]
    |psi|^2 = 0.312
==== e(  19) =     7.97525 eV ==== 
     psi = 0.029*[#  10]+0.007*[#  14]+0.007*[#  18]+0.005*[#  12]+0.005*[#  16]
          +0.003*[#  13]+0.003*[#  17]+0.002*[#   8]+0.002*[#   9]+0.002*[#   1]
          
    |psi|^2 = 0.068
==== e(  20) =     8.41560 eV ==== 
     psi = 0.014*[#   6]+0.003*[#  12]+0.003*[#  16]
    |psi|^2 = 0.025

 k =   0.5555555556  0.0641500299  0.0000000000
==== e(   1) =   -61.26605 eV ==== 
     psi = 0.953*[#   1]+0.025*[#  10]+0.006*[#  13]+0.006*[#  17]+0.003*[#  14]
          +0.003*[#  18]+0.001*[#   8]
    |psi|^2 = 1.000
==== e(   2) =   -35.58917 eV ==== 
     psi = 0.857*[#   3]+0.115*[#   4]+0.006*[#  12]+0.006*[#  16]+0.003*[#   8]
          +0.003*[#  11]+0.003*[#  15]+0.001*[#  14]+0.001*[#  18]
    |psi|^2 = 1.000
==== e(   3) =   -35.43093 eV ==== 
     psi = 0.867*[#   4]+0.118*[#   3]+0.004*[#   9]+0.002*[#  14]+0.002*[#  18]
          +0.002*[#  13]+0.002*[#  17]+0.001*[#  12]+0.001*[#  16]
    |psi|^2 = 1.000
==== e(   4) =   -35.39943 eV ==== 
     psi = 0.984*[#   2]+0.005*[#  13]+0.005*[#  17]+0.002*[#  14]+0.002*[#  18]
          
    |psi|^2 = 1.000
==== e(   5) =   -12.55023 eV ==== 
     psi = 0.420*[#  15]+0.415*[#  11]+0.057*[#   9]+0.041*[#   8]+0.021*[#  10]
          +0.011*[#  12]+0.011*[#  16]+0.010*[#   3]+0.005*[#   4]+0.003*[#  13]
          +0.003*[#  17]+0.001*[#   5]
    |psi|^2 = 0.998
==== e(   6) =   -12.47105 eV ==== 
     psi = 0.398*[#  11]+0.392*[#  15]+0.147*[#   6]+0.054*[#   7]+0.002*[#  13]
          +0.002*[#  17]+0.002*[#  12]+0.002*[#  16]
    |psi|^2 = 0.999
==== e(   7) =    -5.71685 eV ==== 
     psi = 0.260*[#   7]+0.191*[#  17]+0.187*[#  13]+0.154*[#   6]+0.093*[#  18]
          +0.093*[#  14]+0.006*[#  11]+0.006*[#  15]+0.002*[#   2]
    |psi|^2 = 0.992
==== e(   8) =    -5.67395 eV ==== 
     psi = 0.303*[#  13]+0.300*[#  17]+0.119*[#   9]+0.083*[#   5]+0.076*[#  10]
          +0.032*[#  14]+0.032*[#  18]+0.010*[#   8]+0.009*[#  12]+0.009*[#  16]
          +0.005*[#   4]+0.005*[#   1]+0.004*[#  11]+0.004*[#  15]
    |psi|^2 = 0.989
==== e(   9) =    -4.29581 eV ==== 
     psi = 0.195*[#  12]+0.195*[#  16]+0.159*[#   9]+0.093*[#  14]+0.093*[#  18]
          +0.080*[#   5]+0.070*[#   8]+0.036*[#  11]+0.036*[#  15]+0.013*[#  10]
          +0.005*[#   3]+0.004*[#   4]+0.004*[#  13]+0.004*[#  17]+0.001*[#   1]
          
    |psi|^2 = 0.989
==== e(  10) =    -3.64239 eV ==== 
     psi = 0.171*[#  18]+0.171*[#  14]+0.163*[#  13]+0.163*[#  17]+0.119*[#   6]
          +0.064*[#  12]+0.064*[#  16]+0.044*[#   7]+0.011*[#  11]+0.011*[#  15]
          +0.008*[#   2]
    |psi|^2 = 0.988
==== e(  11) =    -3.42969 eV ==== 
     psi = 0.235*[#  14]+0.235*[#  18]+0.107*[#  16]+0.107*[#  12]+0.063*[#   5]
          +0.052*[#   8]+0.048*[#  13]+0.048*[#  17]+0.021*[#   9]+0.016*[#  11]
          +0.016*[#  15]+0.014*[#  10]+0.008*[#   3]+0.003*[#   4]
    |psi|^2 = 0.976
==== e(  12) =    -2.41880 eV ==== 
     psi = 0.269*[#  12]+0.269*[#  16]+0.076*[#   7]+0.071*[#   6]+0.064*[#  14]
          +0.064*[#  18]+0.056*[#  13]+0.056*[#  17]+0.032*[#  11]+0.032*[#  15]
          +0.005*[#   2]
    |psi|^2 = 0.995
==== e(  13) =    -0.81565 eV ==== 
     psi = 0.316*[#   9]+0.301*[#   8]+0.118*[#   5]+0.075*[#  14]+0.075*[#  18]
          +0.032*[#  13]+0.032*[#  17]+0.013*[#  12]+0.013*[#  16]+0.011*[#  10]
          
    |psi|^2 = 0.988
==== e(  14) =     1.61075 eV ==== 
     psi = 0.598*[#   5]+0.101*[#   9]+0.057*[#  13]+0.057*[#  17]+0.055*[#   8]
          +0.025*[#  12]+0.025*[#  16]+0.023*[#  10]+0.020*[#  14]+0.020*[#  18]
          
    |psi|^2 = 0.983
==== e(  15) =     2.68302 eV ==== 
     psi = 0.404*[#   7]+0.134*[#  14]+0.133*[#  18]+0.076*[#  13]+0.075*[#  17]
          +0.067*[#   6]+0.005*[#  12]+0.004*[#  16]+0.003*[#  11]+0.003*[#  15]
          
    |psi|^2 = 0.904
==== e(  16) =     2.68430 eV ==== 
     psi = 0.454*[#   8]+0.180*[#   9]+0.112*[#  16]+0.112*[#  12]+0.038*[#   5]
          +0.022*[#  10]+0.013*[#  15]+0.013*[#  11]+0.007*[#  18]+0.006*[#  14]
          +0.003*[#  17]+0.003*[#  13]
    |psi|^2 = 0.964
==== e(  17) =     4.20332 eV ==== 
     psi = 0.403*[#   6]+0.152*[#  12]+0.152*[#  16]+0.105*[#   7]+0.050*[#  11]
          +0.050*[#  15]+0.021*[#  14]+0.021*[#  18]+0.003*[#  13]+0.003*[#  17]
          
    |psi|^2 = 0.961
==== e(  18) =     6.45553 eV ==== 
     psi = 0.213*[#  10]+0.021*[#   9]+0.017*[#  13]+0.017*[#  17]+0.012*[#   1]
          +0.008*[#  12]+0.008*[#  16]+0.008*[#  14]+0.008*[#  18]+0.002*[#  11]
          +0.002*[#  15]
    |psi|^2 = 0.316
==== e(  19) =     7.96053 eV ==== 
     psi = 0.028*[#  10]+0.006*[#  14]+0.006*[#  18]+0.005*[#  12]+0.005*[#  16]
          +0.004*[#  13]+0.004*[#  17]+0.004*[#   9]+0.002*[#   1]
    |psi|^2 = 0.067
==== e(  20) =     8.41465 eV ==== 
     psi = 0.008*[#   7]+0.007*[#   6]+0.003*[#  12]+0.003*[#  16]
    |psi|^2 = 0.024

 k =  -0.3333333333 -0.4490502094  0.0000000000
==== e(   1) =   -61.26604 eV ==== 
     psi = 0.953*[#   1]+0.025*[#  10]+0.004*[#  13]+0.004*[#  14]+0.004*[#  17]
          +0.004*[#  18]+0.002*[#   9]
    |psi|^2 = 1.000
==== e(   2) =   -35.59055 eV ==== 
     psi = 0.536*[#   3]+0.436*[#   4]+0.006*[#  12]+0.006*[#  16]+0.003*[#  11]
          +0.003*[#  15]+0.002*[#   8]+0.002*[#   9]+0.002*[#  13]+0.002*[#  17]
          
    |psi|^2 = 1.000
==== e(   3) =   -35.42981 eV ==== 
     psi = 0.543*[#   4]+0.442*[#   3]+0.002*[#   8]+0.002*[#   9]+0.002*[#  14]
          +0.002*[#  18]+0.001*[#  13]+0.001*[#  17]+0.001*[#  12]+0.001*[#  16]
          
    |psi|^2 = 1.000
==== e(   4) =   -35.39933 eV ==== 
     psi = 0.984*[#   2]+0.004*[#  13]+0.004*[#  17]+0.003*[#  14]+0.003*[#  18]
          
    |psi|^2 = 1.000
==== e(   5) =   -12.54812 eV ==== 
     psi = 0.421*[#  15]+0.415*[#  11]+0.054*[#   9]+0.044*[#   8]+0.021*[#  10]
          +0.011*[#  12]+0.011*[#  16]+0.007*[#   3]+0.007*[#   4]+0.003*[#  14]
          +0.003*[#  18]+0.001*[#   5]
    |psi|^2 = 0.998
==== e(   6) =   -12.47504 eV ==== 
     psi = 0.397*[#  11]+0.391*[#  15]+0.104*[#   6]+0.098*[#   7]+0.002*[#  14]
          +0.002*[#  12]+0.002*[#  18]+0.002*[#  16]
    |psi|^2 = 0.999
==== e(   7) =    -5.70672 eV ==== 
     psi = 0.236*[#   6]+0.177*[#   7]+0.157*[#  17]+0.155*[#  13]+0.127*[#  18]
          +0.125*[#  14]+0.006*[#  11]+0.006*[#  15]+0.002*[#   2]
    |psi|^2 = 0.992
==== e(   8) =    -5.67204 eV ==== 
     psi = 0.184*[#  13]+0.182*[#  17]+0.152*[#  14]+0.150*[#  18]+0.084*[#   5]
          +0.076*[#  10]+0.074*[#   8]+0.051*[#   9]+0.009*[#  12]+0.009*[#  16]
          +0.005*[#   3]+0.005*[#   1]+0.004*[#  11]+0.004*[#  15]+0.001*[#   4]
          
    |psi|^2 = 0.989
==== e(   9) =    -4.30479 eV ==== 
     psi = 0.193*[#  12]+0.193*[#  16]+0.160*[#   9]+0.079*[#   5]+0.073*[#   8]
          +0.069*[#  13]+0.069*[#  17]+0.036*[#  11]+0.036*[#  15]+0.029*[#  14]
          +0.029*[#  18]+0.014*[#  10]+0.007*[#   4]+0.002*[#   3]+0.001*[#   1]
          
    |psi|^2 = 0.989
==== e(  10) =    -3.65135 eV ==== 
     psi = 0.189*[#  18]+0.189*[#  14]+0.156*[#   7]+0.144*[#  13]+0.144*[#  17]
          +0.065*[#  12]+0.065*[#  16]+0.011*[#  11]+0.011*[#  15]+0.008*[#   2]
          +0.007*[#   6]
    |psi|^2 = 0.988
==== e(  11) =    -3.41848 eV ==== 
     psi = 0.171*[#  14]+0.171*[#  18]+0.111*[#  13]+0.111*[#  17]+0.109*[#  12]
          +0.110*[#  16]+0.063*[#   5]+0.053*[#   8]+0.019*[#   9]+0.016*[#  11]
          +0.016*[#  15]+0.013*[#  10]+0.007*[#   3]+0.005*[#   4]
    |psi|^2 = 0.976
==== e(  12) =    -2.41492 eV ==== 
     psi = 0.269*[#  12]+0.268*[#  16]+0.112*[#   6]+0.079*[#  13]+0.079*[#  17]
          +0.043*[#  14]+0.043*[#  18]+0.035*[#   7]+0.032*[#  11]+0.032*[#  15]
          +0.005*[#   2]
    |psi|^2 = 0.995
==== e(  13) =    -0.81587 eV ==== 
     psi = 0.327*[#   8]+0.291*[#   9]+0.117*[#   5]+0.056*[#  14]+0.056*[#  18]
          +0.051*[#  13]+0.051*[#  17]+0.013*[#  12]+0.013*[#  16]+0.011*[#  10]
          
    |psi|^2 = 0.988
==== e(  14) =     1.60745 eV ==== 
     psi = 0.600*[#   5]+0.123*[#   8]+0.044*[#  14]+0.044*[#  18]+0.033*[#  13]
          +0.033*[#  17]+0.032*[#   9]+0.025*[#  12]+0.025*[#  16]+0.023*[#  10]
          
    |psi|^2 = 0.983
==== e(  15) =     2.66737 eV ==== 
     psi = 0.274*[#   6]+0.200*[#   7]+0.122*[#  14]+0.122*[#  18]+0.085*[#  13]
          +0.085*[#  17]+0.005*[#  12]+0.005*[#  16]+0.004*[#  11]+0.004*[#  15]
          
    |psi|^2 = 0.906
==== e(  16) =     2.67380 eV ==== 
     psi = 0.361*[#   9]+0.272*[#   8]+0.112*[#  16]+0.112*[#  12]+0.038*[#   5]
          +0.022*[#  10]+0.013*[#  11]+0.013*[#  15]+0.008*[#  17]+0.008*[#  13]
          +0.001*[#  14]+0.001*[#  18]
    |psi|^2 = 0.963
==== e(  17) =     4.23220 eV ==== 
     psi = 0.291*[#   7]+0.215*[#   6]+0.151*[#  12]+0.151*[#  16]+0.050*[#  11]
          +0.050*[#  15]+0.023*[#  13]+0.023*[#  17]+0.002*[#  14]+0.002*[#  18]
          
    |psi|^2 = 0.960
==== e(  18) =     6.45295 eV ==== 
     psi = 0.213*[#  10]+0.014*[#  13]+0.014*[#  17]+0.013*[#   8]+0.012*[#   1]
          +0.011*[#  14]+0.011*[#  18]+0.009*[#   9]+0.008*[#  12]+0.008*[#  16]
          +0.002*[#  11]+0.002*[#  15]
    |psi|^2 = 0.317
==== e(  19) =     7.97614 eV ==== 
     psi = 0.027*[#  10]+0.007*[#  14]+0.007*[#  18]+0.005*[#  12]+0.005*[#  16]
          +0.003*[#  13]+0.003*[#  17]+0.002*[#   8]+0.002*[#   9]+0.002*[#   1]
          
    |psi|^2 = 0.065
==== e(  20) =     8.42009 eV ==== 
     psi = 0.015*[#   6]+0.003*[#  12]+0.003*[#  16]
    |psi|^2 = 0.025

 k =   0.5555555556 -0.0641500299  0.0000000000
==== e(   1) =   -61.26607 eV ==== 
     psi = 0.953*[#   1]+0.025*[#  10]+0.006*[#  13]+0.006*[#  17]+0.003*[#  14]
          +0.003*[#  18]+0.001*[#   8]
    |psi|^2 = 1.000
==== e(   2) =   -35.58730 eV ==== 
     psi = 0.866*[#   3]+0.107*[#   4]+0.006*[#  12]+0.006*[#  16]+0.003*[#   8]
          +0.003*[#  11]+0.003*[#  15]+0.001*[#  14]+0.001*[#  18]
    |psi|^2 = 1.000
==== e(   3) =   -35.43240 eV ==== 
     psi = 0.876*[#   4]+0.109*[#   3]+0.004*[#   9]+0.002*[#  14]+0.002*[#  18]
          +0.002*[#  13]+0.002*[#  17]+0.001*[#  12]+0.001*[#  16]
    |psi|^2 = 1.000
==== e(   4) =   -35.39958 eV ==== 
     psi = 0.984*[#   2]+0.005*[#  13]+0.005*[#  17]+0.002*[#  14]+0.002*[#  18]
          
    |psi|^2 = 1.000
==== e(   5) =   -12.55409 eV ==== 
     psi = 0.419*[#  15]+0.414*[#  11]+0.058*[#   9]+0.041*[#   8]+0.022*[#  10]
          +0.011*[#  12]+0.011*[#  16]+0.010*[#   3]+0.004*[#   4]+0.003*[#  13]
          +0.003*[#  17]+0.001*[#   5]
    |psi|^2 = 0.998
==== e(   6) =   -12.46514 eV ==== 
     psi = 0.398*[#  11]+0.393*[#  15]+0.146*[#   6]+0.054*[#   7]+0.002*[#  13]
          +0.002*[#  17]+0.002*[#  12]+0.002*[#  16]+0.001*[#   2]
    |psi|^2 = 0.999
==== e(   7) =    -5.72437 eV ==== 
     psi = 0.261*[#   7]+0.190*[#  17]+0.187*[#  13]+0.155*[#   6]+0.093*[#  18]
          +0.093*[#  14]+0.005*[#  11]+0.005*[#  15]+0.002*[#   2]
    |psi|^2 = 0.992
==== e(   8) =    -5.66823 eV ==== 
     psi = 0.304*[#  13]+0.301*[#  17]+0.119*[#   9]+0.082*[#   5]+0.075*[#  10]
          +0.032*[#  14]+0.032*[#  18]+0.009*[#   8]+0.009*[#  12]+0.009*[#  16]
          +0.005*[#   4]+0.005*[#   1]+0.004*[#  11]+0.004*[#  15]
    |psi|^2 = 0.989
==== e(   9) =    -4.30769 eV ==== 
     psi = 0.195*[#  12]+0.195*[#  16]+0.159*[#   9]+0.092*[#  14]+0.092*[#  18]
          +0.081*[#   5]+0.072*[#   8]+0.036*[#  11]+0.036*[#  15]+0.013*[#  10]
          +0.005*[#   3]+0.004*[#   4]+0.004*[#  13]+0.004*[#  17]+0.001*[#   1]
          
    |psi|^2 = 0.989
==== e(  10) =    -3.65466 eV ==== 
     psi = 0.170*[#  18]+0.170*[#  14]+0.162*[#  13]+0.162*[#  17]+0.119*[#   6]
          +0.065*[#  12]+0.065*[#  16]+0.046*[#   7]+0.011*[#  11]+0.011*[#  15]
          +0.008*[#   2]
    |psi|^2 = 0.988
==== e(  11) =    -3.42505 eV ==== 
     psi = 0.237*[#  14]+0.237*[#  18]+0.106*[#  16]+0.106*[#  12]+0.064*[#   5]
          +0.049*[#   8]+0.048*[#  13]+0.048*[#  17]+0.020*[#   9]+0.017*[#  11]
          +0.017*[#  15]+0.014*[#  10]+0.008*[#   3]+0.003*[#   4]
    |psi|^2 = 0.976
==== e(  12) =    -2.40293 eV ==== 
     psi = 0.269*[#  12]+0.269*[#  16]+0.075*[#   7]+0.071*[#   6]+0.065*[#  14]
          +0.065*[#  18]+0.057*[#  13]+0.057*[#  17]+0.031*[#  11]+0.031*[#  15]
          +0.005*[#   2]
    |psi|^2 = 0.995
==== e(  13) =    -0.81283 eV ==== 
     psi = 0.315*[#   9]+0.303*[#   8]+0.119*[#   5]+0.074*[#  14]+0.074*[#  18]
          +0.032*[#  13]+0.032*[#  17]+0.013*[#  12]+0.013*[#  16]+0.011*[#  10]
          
    |psi|^2 = 0.988
==== e(  14) =     1.61416 eV ==== 
     psi = 0.598*[#   5]+0.101*[#   9]+0.058*[#  13]+0.058*[#  17]+0.054*[#   8]
          +0.025*[#  12]+0.025*[#  16]+0.023*[#  10]+0.021*[#  14]+0.021*[#  18]
          
    |psi|^2 = 0.983
==== e(  15) =     2.68084 eV ==== 
     psi = 0.407*[#   7]+0.132*[#  14]+0.132*[#  18]+0.076*[#  13]+0.076*[#  17]
          +0.064*[#   6]+0.005*[#  12]+0.005*[#  16]+0.003*[#  11]+0.003*[#  15]
          
    |psi|^2 = 0.904
==== e(  16) =     2.68834 eV ==== 
     psi = 0.454*[#   8]+0.180*[#   9]+0.113*[#  12]+0.113*[#  16]+0.036*[#   5]
          +0.022*[#  10]+0.013*[#  11]+0.013*[#  15]+0.006*[#  18]+0.006*[#  14]
          +0.003*[#  13]+0.003*[#  17]
    |psi|^2 = 0.963
==== e(  17) =     4.18691 eV ==== 
     psi = 0.406*[#   6]+0.152*[#  12]+0.152*[#  16]+0.102*[#   7]+0.050*[#  11]
          +0.050*[#  15]+0.022*[#  14]+0.022*[#  18]+0.003*[#  13]+0.003*[#  17]
          
    |psi|^2 = 0.961
==== e(  18) =     6.43957 eV ==== 
     psi = 0.210*[#  10]+0.022*[#   9]+0.017*[#  13]+0.017*[#  17]+0.012*[#   1]
          +0.008*[#  12]+0.008*[#  16]+0.007*[#  14]+0.007*[#  18]+0.002*[#  11]
          +0.002*[#  15]
    |psi|^2 = 0.312
==== e(  19) =     7.97525 eV ==== 
     psi = 0.029*[#  10]+0.006*[#  14]+0.006*[#  18]+0.005*[#  12]+0.005*[#  16]
          +0.004*[#  13]+0.004*[#  17]+0.004*[#   9]+0.002*[#   1]
    |psi|^2 = 0.068
==== e(  20) =     8.41560 eV ==== 
     psi = 0.008*[#   7]+0.007*[#   6]+0.003*[#  12]+0.003*[#  16]
    |psi|^2 = 0.025

Lowdin Charges: 

     Atom #   1: total charge =  13.7035, s =  2.4968, 
     Atom #   1: total charge =  13.7035, p =  5.9950, pz=  1.9992, px=  1.9979, py=  1.9979, 
     Atom #   1: total charge =  13.7035, d =  5.2117, dz2=  1.1520, dxz=  0.9563, dyz=  0.9574, dx2-y2=  1.0745, dxy=  1.0715, 
     Atom #   2: total charge =   6.0490, s =  1.7659, 
     Atom #   2: total charge =   6.0490, p =  4.2831, pz=  1.5453, px=  1.3693, py=  1.3685, 
     Atom #   2: total charge =   6.0490, d =  0.0000, dz2=  0.0000, dxz=  0.0000, dyz=  0.0000, dx2-y2=  0.0000, dxy=  0.0000, 
     Atom #   3: total charge =   6.0492, s =  1.7659, 
     Atom #   3: total charge =   6.0492, p =  4.2832, pz=  1.5454, px=  1.3693, py=  1.3685, 
     Atom #   3: total charge =   6.0492, d =  0.0000, dz2=  0.0000, dxz=  0.0000, dyz=  0.0000, dx2-y2=  0.0000, dxy=  0.0000, 
     Spilling Parameter:   0.0076
 
     PROJWFC      :     31.63s CPU     33.33s WALL

 
   This run was terminated on:  13:54:30  15Apr2024            

=------------------------------------------------------------------------------=
   JOB DONE.
=------------------------------------------------------------------------------=
