
     Program PROJWFC v.6.7MaX starts on 14Feb2024 at 17:52:35 

     This program is part of the open-source Quantum ESPRESSO suite
     for quantum simulation of materials; please cite
         "P. Giannozzi et al., J. Phys.:Condens. Matter 21 395502 (2009);
         "P. Giannozzi et al., J. Phys.:Condens. Matter 29 465901 (2017);
          URL http://www.quantum-espresso.org", 
     in publications or presentations arising from this work. More details at
     http://www.quantum-espresso.org/quote

     Parallel version (MPI), running on     1 processors

     MPI processes distributed on     1 nodes

     Reading xml data from directory:

     ./tmp/hBN.save/
     Message from routine read_pp_mesh:
     mesh size missing, using the one in header
     Message from routine read_pp_mesh:
     mesh size missing, using the one in header

     IMPORTANT: XC functional enforced from input :
     Exchange-correlation= PZ
                           (   1   1   0   0   0   0   0)
     Any further DFT definition will be discarded
     Please, verify this is what you really want


     G-vector sticks info
     --------------------
     sticks:   dense  smooth     PW     G-vecs:    dense   smooth      PW
     Sum         367     367    109                33733    33733    5693


     Gaussian broadening (default values): ngauss,degauss=   0    0.000735


     Calling projwave .... 

  Problem Sizes 
  natomwfc =            8
  nbnd     =            8
  nkstot   =           30
  npwx     =         4236
  nkb      =           16


     Atomic states used for projection
     (read from pseudopotential files):

     state #   1: atom   1 (B  ), wfc  1 (l=0 m= 1)
     state #   2: atom   1 (B  ), wfc  2 (l=1 m= 1)
     state #   3: atom   1 (B  ), wfc  2 (l=1 m= 2)
     state #   4: atom   1 (B  ), wfc  2 (l=1 m= 3)
     state #   5: atom   2 (N  ), wfc  1 (l=0 m= 1)
     state #   6: atom   2 (N  ), wfc  2 (l=1 m= 1)
     state #   7: atom   2 (N  ), wfc  2 (l=1 m= 2)
     state #   8: atom   2 (N  ), wfc  2 (l=1 m= 3)

 k =   0.0000000000  0.0000000000  0.0000000000
==== e(   1) =   -21.30629 eV ==== 
     psi = 0.558*[#   5]+0.434*[#   1]
    |psi|^2 = 0.992
==== e(   2) =    -9.14077 eV ==== 
     psi = 0.555*[#   6]+0.406*[#   2]
    |psi|^2 = 0.961
==== e(   3) =    -5.01978 eV ==== 
     psi = 0.391*[#   7]+0.391*[#   8]+0.108*[#   3]+0.108*[#   4]
    |psi|^2 = 0.997
==== e(   4) =    -5.01978 eV ==== 
     psi = 0.391*[#   7]+0.391*[#   8]+0.108*[#   3]+0.108*[#   4]
    |psi|^2 = 0.997
==== e(   5) =     1.10062 eV ==== 
     psi = 0.184*[#   1]+0.097*[#   5]
    |psi|^2 = 0.281
==== e(   6) =     2.24794 eV ==== 
     psi = 0.195*[#   2]+0.049*[#   6]
    |psi|^2 = 0.245
==== e(   7) =     2.67327 eV ==== 
     psi = 0.030*[#   1]+0.017*[#   5]
    |psi|^2 = 0.047
==== e(   8) =     4.51025 eV ==== 
     psi = 0.124*[#   2]+0.046*[#   6]
    |psi|^2 = 0.170

 k =   0.0000000000  0.0721687836  0.0000000000
==== e(   1) =   -21.22956 eV ==== 
     psi = 0.549*[#   5]+0.406*[#   1]+0.015*[#   3]+0.015*[#   4]+0.003*[#   7]
          +0.003*[#   8]
    |psi|^2 = 0.992
==== e(   2) =    -9.03673 eV ==== 
     psi = 0.557*[#   6]+0.406*[#   2]
    |psi|^2 = 0.963
==== e(   3) =    -5.33901 eV ==== 
     psi = 0.386*[#   7]+0.386*[#   8]+0.100*[#   3]+0.100*[#   4]+0.015*[#   1]
          +0.008*[#   5]
    |psi|^2 = 0.996
==== e(   4) =    -5.17432 eV ==== 
     psi = 0.386*[#   7]+0.386*[#   8]+0.112*[#   3]+0.112*[#   4]
    |psi|^2 = 0.997
==== e(   5) =     1.23189 eV ==== 
     psi = 0.158*[#   1]+0.098*[#   5]+0.016*[#   3]+0.016*[#   4]
    |psi|^2 = 0.288
==== e(   6) =     2.36703 eV ==== 
     psi = 0.194*[#   2]+0.049*[#   6]
    |psi|^2 = 0.243
==== e(   7) =     2.80121 eV ==== 
     psi = 0.027*[#   1]+0.017*[#   5]+0.002*[#   3]+0.002*[#   4]
    |psi|^2 = 0.048
==== e(   8) =     4.62152 eV ==== 
     psi = 0.126*[#   2]+0.048*[#   6]
    |psi|^2 = 0.174

 k =   0.0000000000  0.1443375673  0.0000000000
==== e(   1) =   -21.00136 eV ==== 
     psi = 0.528*[#   5]+0.342*[#   1]+0.050*[#   3]+0.050*[#   4]+0.010*[#   7]
          +0.010*[#   8]
    |psi|^2 = 0.991
==== e(   2) =    -8.72706 eV ==== 
     psi = 0.564*[#   6]+0.403*[#   2]
    |psi|^2 = 0.968
==== e(   3) =    -6.20373 eV ==== 
     psi = 0.374*[#   7]+0.374*[#   8]+0.086*[#   3]+0.086*[#   4]+0.047*[#   1]
          +0.028*[#   5]
    |psi|^2 = 0.994
==== e(   4) =    -5.58370 eV ==== 
     psi = 0.376*[#   7]+0.376*[#   8]+0.123*[#   3]+0.123*[#   4]
    |psi|^2 = 0.997
==== e(   5) =     1.61539 eV ==== 
     psi = 0.113*[#   1]+0.100*[#   5]+0.043*[#   3]+0.043*[#   4]
    |psi|^2 = 0.300
==== e(   6) =     2.72010 eV ==== 
     psi = 0.193*[#   2]+0.051*[#   6]
    |psi|^2 = 0.244
==== e(   7) =     3.18271 eV ==== 
     psi = 0.021*[#   1]+0.017*[#   5]+0.005*[#   3]+0.005*[#   4]
    |psi|^2 = 0.048
==== e(   8) =     4.94283 eV ==== 
     psi = 0.136*[#   2]+0.057*[#   6]
    |psi|^2 = 0.193

 k =   0.0000000000  0.2165063509  0.0000000000
==== e(   1) =   -20.62879 eV ==== 
     psi = 0.509*[#   5]+0.269*[#   1]+0.087*[#   3]+0.087*[#   4]+0.018*[#   7]
          +0.018*[#   8]
    |psi|^2 = 0.990
==== e(   2) =    -8.21986 eV ==== 
     psi = 0.579*[#   6]+0.396*[#   2]
    |psi|^2 = 0.975
==== e(   3) =    -7.41622 eV ==== 
     psi = 0.358*[#   7]+0.358*[#   8]+0.080*[#   1]+0.073*[#   3]+0.073*[#   4]
          +0.050*[#   5]
    |psi|^2 = 0.993
==== e(   4) =    -6.12790 eV ==== 
     psi = 0.364*[#   7]+0.364*[#   8]+0.135*[#   3]+0.135*[#   4]
    |psi|^2 = 0.997
==== e(   5) =     2.23472 eV ==== 
     psi = 0.101*[#   5]+0.085*[#   1]+0.059*[#   3]+0.059*[#   4]+0.002*[#   7]
          +0.002*[#   8]
    |psi|^2 = 0.306
==== e(   6) =     3.28540 eV ==== 
     psi = 0.206*[#   2]+0.061*[#   6]
    |psi|^2 = 0.268
==== e(   7) =     3.81348 eV ==== 
     psi = 0.018*[#   1]+0.017*[#   5]+0.006*[#   3]+0.006*[#   4]
    |psi|^2 = 0.048
==== e(   8) =     5.39588 eV ==== 
     psi = 0.179*[#   2]+0.096*[#   6]
    |psi|^2 = 0.275

 k =   0.0000000000  0.2886751346  0.0000000000
==== e(   1) =   -20.12690 eV ==== 
     psi = 0.499*[#   5]+0.204*[#   1]+0.119*[#   3]+0.119*[#   4]+0.024*[#   7]
          +0.024*[#   8]
    |psi|^2 = 0.989
==== e(   2) =    -8.78560 eV ==== 
     psi = 0.344*[#   7]+0.344*[#   8]+0.109*[#   1]+0.065*[#   3]+0.065*[#   4]
          +0.065*[#   5]
    |psi|^2 = 0.993
==== e(   3) =    -7.53235 eV ==== 
     psi = 0.605*[#   6]+0.379*[#   2]
    |psi|^2 = 0.984
==== e(   4) =    -6.69279 eV ==== 
     psi = 0.354*[#   7]+0.354*[#   8]+0.145*[#   3]+0.145*[#   4]
    |psi|^2 = 0.998
==== e(   5) =     3.07753 eV ==== 
     psi = 0.100*[#   5]+0.081*[#   1]+0.061*[#   3]+0.061*[#   4]+0.003*[#   7]
          +0.003*[#   8]
    |psi|^2 = 0.308
==== e(   6) =     3.93132 eV ==== 
     psi = 0.319*[#   2]+0.125*[#   6]
    |psi|^2 = 0.444
==== e(   7) =     4.68877 eV ==== 
     psi = 0.019*[#   1]+0.016*[#   5]+0.006*[#   3]+0.006*[#   4]
    |psi|^2 = 0.049
==== e(   8) =     5.55897 eV ==== 
     psi = 0.240*[#   2]+0.178*[#   6]
    |psi|^2 = 0.419

 k =   0.0000000000  0.3608439182  0.0000000000
==== e(   1) =   -19.52556 eV ==== 
     psi = 0.502*[#   5]+0.149*[#   1]+0.143*[#   3]+0.143*[#   4]+0.026*[#   7]
          +0.026*[#   8]
    |psi|^2 = 0.988
==== e(   2) =   -10.15834 eV ==== 
     psi = 0.336*[#   7]+0.336*[#   8]+0.136*[#   1]+0.068*[#   5]+0.059*[#   3]
          +0.059*[#   4]
    |psi|^2 = 0.993
==== e(   3) =    -7.19564 eV ==== 
     psi = 0.345*[#   7]+0.345*[#   8]+0.153*[#   3]+0.153*[#   4]
    |psi|^2 = 0.997
==== e(   4) =    -6.69952 eV ==== 
     psi = 0.648*[#   6]+0.343*[#   2]
    |psi|^2 = 0.991
==== e(   5) =     3.75004 eV ==== 
     psi = 0.605*[#   2]+0.292*[#   6]
    |psi|^2 = 0.897
==== e(   6) =     4.12220 eV ==== 
     psi = 0.103*[#   1]+0.101*[#   5]+0.057*[#   3]+0.057*[#   4]+0.004*[#   7]
          +0.004*[#   8]
    |psi|^2 = 0.325
==== e(   7) =     5.77278 eV ==== 
     psi = 0.030*[#   6]+0.024*[#   2]
    |psi|^2 = 0.054
==== e(   8) =     5.79360 eV ==== 
     psi = 0.030*[#   1]+0.021*[#   5]+0.008*[#   3]+0.008*[#   4]
    |psi|^2 = 0.068

 k =   0.0000000000  0.4330127019  0.0000000000
==== e(   1) =   -18.88637 eV ==== 
     psi = 0.521*[#   5]+0.163*[#   3]+0.163*[#   4]+0.100*[#   1]+0.021*[#   7]
          +0.021*[#   8]
    |psi|^2 = 0.988
==== e(   2) =   -11.39272 eV ==== 
     psi = 0.335*[#   7]+0.335*[#   8]+0.165*[#   1]+0.056*[#   5]+0.051*[#   3]
          +0.051*[#   4]
    |psi|^2 = 0.992
==== e(   3) =    -7.58349 eV ==== 
     psi = 0.340*[#   7]+0.340*[#   8]+0.159*[#   3]+0.159*[#   4]
    |psi|^2 = 0.997
==== e(   4) =    -5.79503 eV ==== 
     psi = 0.715*[#   6]+0.280*[#   2]
    |psi|^2 = 0.995
==== e(   5) =     2.59660 eV ==== 
     psi = 0.682*[#   2]+0.258*[#   6]
    |psi|^2 = 0.940
==== e(   6) =     5.28449 eV ==== 
     psi = 0.174*[#   1]+0.129*[#   5]+0.060*[#   3]+0.060*[#   4]+0.005*[#   7]
          +0.005*[#   8]
    |psi|^2 = 0.432
==== e(   7) =     6.91839 eV ==== 
     psi = 0.005*[#   2]+0.003*[#   6]
    |psi|^2 = 0.009
==== e(   8) =     6.95235 eV ==== 
     psi = 0.114*[#   1]+0.091*[#   5]+0.048*[#   3]+0.048*[#   4]+0.005*[#   7]
          +0.005*[#   8]
    |psi|^2 = 0.310

 k =   0.0000000000  0.5051814855  0.0000000000
==== e(   1) =   -18.34044 eV ==== 
     psi = 0.552*[#   5]+0.181*[#   3]+0.181*[#   4]+0.059*[#   1]+0.008*[#   7]
          +0.008*[#   8]
    |psi|^2 = 0.989
==== e(   2) =   -12.31228 eV ==== 
     psi = 0.344*[#   7]+0.344*[#   8]+0.195*[#   1]+0.040*[#   3]+0.040*[#   4]
          +0.029*[#   5]
    |psi|^2 = 0.992
==== e(   3) =    -7.82680 eV ==== 
     psi = 0.337*[#   7]+0.337*[#   8]+0.162*[#   3]+0.162*[#   4]
    |psi|^2 = 0.997
==== e(   4) =    -4.99243 eV ==== 
     psi = 0.802*[#   6]+0.192*[#   2]
    |psi|^2 = 0.994
==== e(   5) =     1.51482 eV ==== 
     psi = 0.768*[#   2]+0.173*[#   6]
    |psi|^2 = 0.941
==== e(   6) =     6.16861 eV ==== 
     psi = 0.327*[#   1]+0.229*[#   5]+0.093*[#   3]+0.093*[#   4]+0.007*[#   7]
          +0.007*[#   8]
    |psi|^2 = 0.756
==== e(   7) =     7.75981 eV ==== 
     psi = 0.062*[#   5]+0.056*[#   1]+0.052*[#   3]+0.052*[#   4]+0.008*[#   7]
          +0.008*[#   8]
    |psi|^2 = 0.239
==== e(   8) =     8.40849 eV ==== 
     psi = 0.007*[#   2]+0.003*[#   6]
    |psi|^2 = 0.009

 k =   0.0000000000 -0.5773502692  0.0000000000
==== e(   1) =   -18.11017 eV ==== 
     psi = 0.571*[#   5]+0.189*[#   3]+0.189*[#   4]+0.039*[#   1]
    |psi|^2 = 0.990
==== e(   2) =   -12.66992 eV ==== 
     psi = 0.351*[#   7]+0.351*[#   8]+0.210*[#   1]+0.034*[#   3]+0.034*[#   4]
          +0.012*[#   5]
    |psi|^2 = 0.991
==== e(   3) =    -7.90979 eV ==== 
     psi = 0.336*[#   7]+0.336*[#   8]+0.163*[#   3]+0.163*[#   4]
    |psi|^2 = 0.996
==== e(   4) =    -4.63870 eV ==== 
     psi = 0.855*[#   6]+0.138*[#   2]
    |psi|^2 = 0.993
==== e(   5) =     1.05417 eV ==== 
     psi = 0.823*[#   2]+0.120*[#   6]
    |psi|^2 = 0.943
==== e(   6) =     6.38704 eV ==== 
     psi = 0.371*[#   1]+0.270*[#   5]+0.109*[#   3]+0.109*[#   4]+0.008*[#   7]
          +0.008*[#   8]
    |psi|^2 = 0.874
==== e(   7) =     8.92825 eV ==== 
     psi = 0.054*[#   1]+0.049*[#   3]+0.049*[#   4]+0.023*[#   5]+0.015*[#   7]
          +0.015*[#   8]
    |psi|^2 = 0.204
==== e(   8) =     9.52378 eV ==== 
     psi = 0.010*[#   5]+0.003*[#   1]
    |psi|^2 = 0.013

 k =   0.0625000000  0.1082531755  0.0000000000
==== e(   1) =   -21.07702 eV ==== 
     psi = 0.534*[#   5]+0.361*[#   1]+0.040*[#   3]+0.040*[#   4]+0.008*[#   7]
          +0.008*[#   8]
    |psi|^2 = 0.991
==== e(   2) =    -8.82973 eV ==== 
     psi = 0.562*[#   6]+0.404*[#   2]
    |psi|^2 = 0.966
==== e(   3) =    -5.90622 eV ==== 
     psi = 0.378*[#   7]+0.378*[#   8]+0.092*[#   3]+0.092*[#   4]+0.034*[#   1]
          +0.022*[#   5]
    |psi|^2 = 0.996
==== e(   4) =    -5.48047 eV ==== 
     psi = 0.378*[#   7]+0.378*[#   8]+0.117*[#   3]+0.117*[#   4]+0.005*[#   1]
          
    |psi|^2 = 0.996
==== e(   5) =     1.48944 eV ==== 
     psi = 0.124*[#   1]+0.099*[#   5]+0.036*[#   3]+0.036*[#   4]
    |psi|^2 = 0.297
==== e(   6) =     2.60326 eV ==== 
     psi = 0.193*[#   2]+0.050*[#   6]
    |psi|^2 = 0.243
==== e(   7) =     3.05603 eV ==== 
     psi = 0.023*[#   1]+0.017*[#   5]+0.004*[#   3]+0.004*[#   4]
    |psi|^2 = 0.048
==== e(   8) =     4.83835 eV ==== 
     psi = 0.132*[#   2]+0.053*[#   6]
    |psi|^2 = 0.185

 k =   0.0625000000  0.1804219591  0.0000000000
==== e(   1) =   -20.77646 eV ==== 
     psi = 0.515*[#   5]+0.294*[#   1]+0.075*[#   3]+0.075*[#   4]+0.015*[#   7]
          +0.015*[#   8]
    |psi|^2 = 0.990
==== e(   2) =    -8.42102 eV ==== 
     psi = 0.573*[#   6]+0.399*[#   2]
    |psi|^2 = 0.972
==== e(   3) =    -6.89557 eV ==== 
     psi = 0.364*[#   7]+0.364*[#   8]+0.083*[#   3]+0.083*[#   4]+0.058*[#   1]
          +0.043*[#   5]
    |psi|^2 = 0.995
==== e(   4) =    -6.00680 eV ==== 
     psi = 0.367*[#   7]+0.367*[#   8]+0.124*[#   3]+0.124*[#   4]+0.014*[#   1]
          
    |psi|^2 = 0.995
==== e(   5) =     1.99205 eV ==== 
     psi = 0.100*[#   5]+0.090*[#   1]+0.055*[#   3]+0.055*[#   4]+0.001*[#   7]
          +0.001*[#   8]
    |psi|^2 = 0.304
==== e(   6) =     3.06441 eV ==== 
     psi = 0.198*[#   2]+0.055*[#   6]
    |psi|^2 = 0.253
==== e(   7) =     3.56279 eV ==== 
     psi = 0.018*[#   1]+0.017*[#   5]+0.006*[#   3]+0.006*[#   4]
    |psi|^2 = 0.048
==== e(   8) =     5.23431 eV ==== 
     psi = 0.156*[#   2]+0.075*[#   6]
    |psi|^2 = 0.231

 k =   0.0625000000  0.2525907428  0.0000000000
==== e(   1) =   -20.33841 eV ==== 
     psi = 0.502*[#   5]+0.229*[#   1]+0.107*[#   3]+0.107*[#   4]+0.022*[#   7]
          +0.022*[#   8]
    |psi|^2 = 0.989
==== e(   2) =    -8.14656 eV ==== 
     psi = 0.349*[#   7]+0.349*[#   8]+0.085*[#   1]+0.075*[#   3]+0.075*[#   4]
          +0.060*[#   5]
    |psi|^2 = 0.994
==== e(   3) =    -7.82281 eV ==== 
     psi = 0.593*[#   6]+0.387*[#   2]
    |psi|^2 = 0.980
==== e(   4) =    -6.60211 eV ==== 
     psi = 0.355*[#   7]+0.355*[#   8]+0.133*[#   3]+0.133*[#   4]+0.017*[#   1]
          +0.001*[#   5]
    |psi|^2 = 0.995
==== e(   5) =     2.72684 eV ==== 
     psi = 0.099*[#   5]+0.076*[#   1]+0.062*[#   3]+0.062*[#   4]+0.003*[#   7]
          +0.003*[#   8]
    |psi|^2 = 0.305
==== e(   6) =     3.69488 eV ==== 
     psi = 0.247*[#   2]+0.084*[#   6]
    |psi|^2 = 0.331
==== e(   7) =     4.31765 eV ==== 
     psi = 0.017*[#   1]+0.016*[#   5]+0.007*[#   3]+0.007*[#   4]
    |psi|^2 = 0.047
==== e(   8) =     5.58944 eV ==== 
     psi = 0.239*[#   2]+0.156*[#   6]
    |psi|^2 = 0.395

 k =   0.0625000000  0.3247595264  0.0000000000
==== e(   1) =   -19.78402 eV ==== 
     psi = 0.499*[#   5]+0.171*[#   1]+0.133*[#   3]+0.133*[#   4]+0.026*[#   7]
          +0.026*[#   8]
    |psi|^2 = 0.989
==== e(   2) =    -9.49304 eV ==== 
     psi = 0.337*[#   7]+0.337*[#   8]+0.113*[#   1]+0.069*[#   5]+0.068*[#   3]
          +0.068*[#   4]
    |psi|^2 = 0.994
==== e(   3) =    -7.16109 eV ==== 
     psi = 0.346*[#   7]+0.346*[#   8]+0.142*[#   3]+0.142*[#   4]+0.017*[#   1]
          +0.002*[#   5]
    |psi|^2 = 0.996
==== e(   4) =    -7.05962 eV ==== 
     psi = 0.628*[#   6]+0.361*[#   2]
    |psi|^2 = 0.988
==== e(   5) =     3.68052 eV ==== 
     psi = 0.095*[#   5]+0.083*[#   1]+0.059*[#   3]+0.059*[#   4]+0.004*[#   7]
          +0.004*[#   8]
    |psi|^2 = 0.305
==== e(   6) =     4.05032 eV ==== 
     psi = 0.511*[#   2]+0.240*[#   6]
    |psi|^2 = 0.751
==== e(   7) =     5.31463 eV ==== 
     psi = 0.020*[#   1]+0.016*[#   5]+0.006*[#   3]+0.006*[#   4]
    |psi|^2 = 0.051
==== e(   8) =     5.54992 eV ==== 
     psi = 0.100*[#   2]+0.094*[#   6]
    |psi|^2 = 0.194

 k =   0.0625000000  0.3969283101  0.0000000000
==== e(   1) =   -19.15643 eV ==== 
     psi = 0.510*[#   5]+0.155*[#   3]+0.155*[#   4]+0.120*[#   1]+0.024*[#   7]
          +0.024*[#   8]
    |psi|^2 = 0.988
==== e(   2) =   -10.78828 eV ==== 
     psi = 0.332*[#   7]+0.332*[#   8]+0.142*[#   1]+0.064*[#   5]+0.061*[#   3]
          +0.061*[#   4]
    |psi|^2 = 0.993
==== e(   3) =    -7.62095 eV ==== 
     psi = 0.339*[#   7]+0.339*[#   8]+0.149*[#   3]+0.149*[#   4]+0.016*[#   1]
          +0.002*[#   5]
    |psi|^2 = 0.996
==== e(   4) =    -6.18169 eV ==== 
     psi = 0.682*[#   6]+0.311*[#   2]
    |psi|^2 = 0.994
==== e(   5) =     3.18710 eV ==== 
     psi = 0.654*[#   2]+0.286*[#   6]
    |psi|^2 = 0.941
==== e(   6) =     4.81958 eV ==== 
     psi = 0.118*[#   1]+0.099*[#   5]+0.055*[#   3]+0.055*[#   4]+0.005*[#   7]
          +0.005*[#   8]
    |psi|^2 = 0.337
==== e(   7) =     6.36059 eV ==== 
     psi = 0.008*[#   6]+0.006*[#   2]
    |psi|^2 = 0.013
==== e(   8) =     6.52363 eV ==== 
     psi = 0.041*[#   1]+0.028*[#   5]+0.011*[#   3]+0.011*[#   4]+0.002*[#   7]
          +0.002*[#   8]
    |psi|^2 = 0.094

 k =   0.0625000000  0.4690970937  0.0000000000
==== e(   1) =   -18.54567 eV ==== 
     psi = 0.536*[#   5]+0.174*[#   3]+0.174*[#   4]+0.075*[#   1]+0.015*[#   7]
          +0.015*[#   8]
    |psi|^2 = 0.989
==== e(   2) =   -11.87469 eV ==== 
     psi = 0.336*[#   7]+0.336*[#   8]+0.173*[#   1]+0.051*[#   3]+0.051*[#   4]
          +0.043*[#   5]
    |psi|^2 = 0.992
==== e(   3) =    -7.94420 eV ==== 
     psi = 0.335*[#   7]+0.335*[#   8]+0.154*[#   3]+0.154*[#   4]+0.016*[#   1]
          +0.002*[#   5]
    |psi|^2 = 0.996
==== e(   4) =    -5.30171 eV ==== 
     psi = 0.762*[#   6]+0.233*[#   2]
    |psi|^2 = 0.995
==== e(   5) =     2.00915 eV ==== 
     psi = 0.731*[#   2]+0.214*[#   6]
    |psi|^2 = 0.944
==== e(   6) =     5.99079 eV ==== 
     psi = 0.224*[#   1]+0.148*[#   5]+0.067*[#   3]+0.067*[#   4]+0.009*[#   7]
          +0.009*[#   8]
    |psi|^2 = 0.522
==== e(   7) =     7.53206 eV ==== 
     psi = 0.127*[#   1]+0.113*[#   5]+0.070*[#   3]+0.070*[#   4]+0.011*[#   7]
          +0.011*[#   8]
    |psi|^2 = 0.402
==== e(   8) =     7.71092 eV ==== 
     psi = 0.005*[#   2]+0.002*[#   6]
    |psi|^2 = 0.008

 k =   0.0625000000  0.5412658774  0.0000000000
==== e(   1) =   -18.13074 eV ==== 
     psi = 0.566*[#   5]+0.188*[#   3]+0.188*[#   4]+0.042*[#   1]+0.003*[#   7]
          +0.003*[#   8]
    |psi|^2 = 0.990
==== e(   2) =   -12.53607 eV ==== 
     psi = 0.347*[#   7]+0.347*[#   8]+0.199*[#   1]+0.041*[#   3]+0.041*[#   4]
          +0.016*[#   5]
    |psi|^2 = 0.991
==== e(   3) =    -8.11058 eV ==== 
     psi = 0.333*[#   7]+0.333*[#   8]+0.156*[#   3]+0.156*[#   4]+0.015*[#   1]
          +0.002*[#   5]
    |psi|^2 = 0.996
==== e(   4) =    -4.67587 eV ==== 
     psi = 0.845*[#   6]+0.148*[#   2]
    |psi|^2 = 0.994
==== e(   5) =     1.18911 eV ==== 
     psi = 0.814*[#   2]+0.131*[#   6]
    |psi|^2 = 0.946
==== e(   6) =     6.63217 eV ==== 
     psi = 0.357*[#   1]+0.243*[#   5]+0.102*[#   3]+0.102*[#   4]+0.013*[#   7]
          +0.013*[#   8]
    |psi|^2 = 0.830
==== e(   7) =     8.49901 eV ==== 
     psi = 0.043*[#   3]+0.043*[#   4]+0.038*[#   1]+0.036*[#   5]+0.010*[#   7]
          +0.010*[#   8]
    |psi|^2 = 0.180
==== e(   8) =     9.25415 eV ==== 
     psi = 0.010*[#   2]+0.004*[#   6]
    |psi|^2 = 0.014

 k =   0.1250000000  0.2165063509  0.0000000000
==== e(   1) =   -20.40979 eV ==== 
     psi = 0.503*[#   5]+0.238*[#   1]+0.103*[#   3]+0.103*[#   4]+0.021*[#   7]
          +0.021*[#   8]
    |psi|^2 = 0.989
==== e(   2) =    -7.92060 eV ==== 
     psi = 0.589*[#   6]+0.390*[#   2]
    |psi|^2 = 0.979
==== e(   3) =    -7.83576 eV ==== 
     psi = 0.352*[#   7]+0.352*[#   8]+0.086*[#   3]+0.086*[#   4]+0.062*[#   1]
          +0.060*[#   5]
    |psi|^2 = 0.997
==== e(   4) =    -6.67131 eV ==== 
     psi = 0.354*[#   7]+0.354*[#   8]+0.121*[#   3]+0.121*[#   4]+0.041*[#   1]
          +0.001*[#   5]
    |psi|^2 = 0.992
==== e(   5) =     2.61271 eV ==== 
     psi = 0.097*[#   5]+0.074*[#   1]+0.063*[#   3]+0.063*[#   4]+0.003*[#   7]
          +0.003*[#   8]
    |psi|^2 = 0.303
==== e(   6) =     3.60115 eV ==== 
     psi = 0.231*[#   2]+0.076*[#   6]
    |psi|^2 = 0.307
==== e(   7) =     4.19482 eV ==== 
     psi = 0.016*[#   1]+0.016*[#   5]+0.007*[#   3]+0.007*[#   4]
    |psi|^2 = 0.046
==== e(   8) =     5.57263 eV ==== 
     psi = 0.224*[#   2]+0.138*[#   6]
    |psi|^2 = 0.362

 k =   0.1250000000  0.2886751346  0.0000000000
==== e(   1) =   -19.91666 eV ==== 
     psi = 0.498*[#   5]+0.183*[#   1]+0.128*[#   3]+0.128*[#   4]+0.026*[#   7]
          +0.026*[#   8]
    |psi|^2 = 0.989
==== e(   2) =    -8.96534 eV ==== 
     psi = 0.338*[#   7]+0.338*[#   8]+0.086*[#   3]+0.086*[#   4]+0.077*[#   1]
          +0.071*[#   5]
    |psi|^2 = 0.996
==== e(   3) =    -7.36015 eV ==== 
     psi = 0.344*[#   7]+0.344*[#   8]+0.123*[#   3]+0.123*[#   4]+0.057*[#   1]
          +0.002*[#   5]
    |psi|^2 = 0.992
==== e(   4) =    -7.24349 eV ==== 
     psi = 0.618*[#   6]+0.369*[#   2]
    |psi|^2 = 0.987
==== e(   5) =     3.46617 eV ==== 
     psi = 0.091*[#   5]+0.072*[#   1]+0.062*[#   3]+0.062*[#   4]+0.004*[#   7]
          +0.004*[#   8]
    |psi|^2 = 0.294
==== e(   6) =     4.09857 eV ==== 
     psi = 0.420*[#   2]+0.184*[#   6]
    |psi|^2 = 0.604
==== e(   7) =     5.07536 eV ==== 
     psi = 0.016*[#   1]+0.014*[#   5]+0.007*[#   3]+0.007*[#   4]
    |psi|^2 = 0.045
==== e(   8) =     5.56470 eV ==== 
     psi = 0.180*[#   2]+0.148*[#   6]
    |psi|^2 = 0.328

 k =   0.1250000000  0.3608439182  0.0000000000
==== e(   1) =   -19.32796 eV ==== 
     psi = 0.504*[#   5]+0.149*[#   3]+0.149*[#   4]+0.133*[#   1]+0.027*[#   7]
          +0.027*[#   8]
    |psi|^2 = 0.988
==== e(   2) =   -10.17655 eV ==== 
     psi = 0.329*[#   7]+0.329*[#   8]+0.104*[#   1]+0.081*[#   3]+0.081*[#   4]
          +0.071*[#   5]
    |psi|^2 = 0.995
==== e(   3) =    -7.94135 eV ==== 
     psi = 0.337*[#   7]+0.337*[#   8]+0.129*[#   3]+0.129*[#   4]+0.059*[#   1]
          +0.004*[#   5]
    |psi|^2 = 0.993
==== e(   4) =    -6.42560 eV ==== 
     psi = 0.664*[#   6]+0.329*[#   2]
    |psi|^2 = 0.993
==== e(   5) =     3.63183 eV ==== 
     psi = 0.640*[#   2]+0.299*[#   6]
    |psi|^2 = 0.940
==== e(   6) =     4.53656 eV ==== 
     psi = 0.085*[#   1]+0.082*[#   5]+0.055*[#   3]+0.055*[#   4]+0.006*[#   7]
          +0.006*[#   8]
    |psi|^2 = 0.289
==== e(   7) =     6.05389 eV ==== 
     psi = 0.016*[#   6]+0.010*[#   2]
    |psi|^2 = 0.026
==== e(   8) =     6.19765 eV ==== 
     psi = 0.020*[#   1]+0.014*[#   5]+0.006*[#   3]+0.006*[#   4]+0.001*[#   7]
          +0.001*[#   8]
    |psi|^2 = 0.049

 k =   0.1250000000  0.4330127019  0.0000000000
==== e(   1) =   -18.70579 eV ==== 
     psi = 0.524*[#   5]+0.168*[#   3]+0.168*[#   4]+0.088*[#   1]+0.021*[#   7]
          +0.021*[#   8]
    |psi|^2 = 0.989
==== e(   2) =   -11.30919 eV ==== 
     psi = 0.328*[#   7]+0.328*[#   8]+0.135*[#   1]+0.073*[#   3]+0.073*[#   4]
          +0.055*[#   5]
    |psi|^2 = 0.993
==== e(   3) =    -8.37046 eV ==== 
     psi = 0.332*[#   7]+0.332*[#   8]+0.134*[#   3]+0.134*[#   4]+0.057*[#   1]
          +0.005*[#   5]
    |psi|^2 = 0.995
==== e(   4) =    -5.54108 eV ==== 
     psi = 0.733*[#   6]+0.262*[#   2]
    |psi|^2 = 0.995
==== e(   5) =     2.53071 eV ==== 
     psi = 0.710*[#   2]+0.247*[#   6]
    |psi|^2 = 0.957
==== e(   6) =     5.78315 eV ==== 
     psi = 0.126*[#   1]+0.083*[#   5]+0.050*[#   3]+0.050*[#   4]+0.009*[#   7]
          +0.009*[#   8]
    |psi|^2 = 0.326
==== e(   7) =     7.23268 eV ==== 
     psi = 0.003*[#   2]+0.002*[#   6]
    |psi|^2 = 0.006
==== e(   8) =     7.52300 eV ==== 
     psi = 0.046*[#   1]+0.027*[#   5]+0.012*[#   3]+0.012*[#   4]+0.004*[#   7]
          +0.004*[#   8]
    |psi|^2 = 0.105

 k =   0.1250000000  0.5051814855  0.0000000000
==== e(   1) =   -18.17849 eV ==== 
     psi = 0.555*[#   5]+0.184*[#   3]+0.184*[#   4]+0.048*[#   1]+0.009*[#   7]
          +0.009*[#   8]
    |psi|^2 = 0.990
==== e(   2) =   -12.16662 eV ==== 
     psi = 0.336*[#   7]+0.336*[#   8]+0.167*[#   1]+0.063*[#   3]+0.063*[#   4]
          +0.027*[#   5]
    |psi|^2 = 0.992
==== e(   3) =    -8.63238 eV ==== 
     psi = 0.329*[#   7]+0.329*[#   8]+0.138*[#   3]+0.138*[#   4]+0.055*[#   1]
          +0.006*[#   5]
    |psi|^2 = 0.995
==== e(   4) =    -4.75991 eV ==== 
     psi = 0.824*[#   6]+0.171*[#   2]
    |psi|^2 = 0.994
==== e(   5) =     1.52916 eV ==== 
     psi = 0.799*[#   2]+0.157*[#   6]
    |psi|^2 = 0.956
==== e(   6) =     7.00548 eV ==== 
     psi = 0.250*[#   1]+0.132*[#   5]+0.065*[#   3]+0.065*[#   4]+0.019*[#   7]
          +0.019*[#   8]
    |psi|^2 = 0.550
==== e(   7) =     8.46525 eV ==== 
     psi = 0.119*[#   1]+0.101*[#   5]+0.072*[#   3]+0.072*[#   4]+0.019*[#   7]
          +0.019*[#   8]
    |psi|^2 = 0.403
==== e(   8) =     8.65331 eV ==== 
     psi = 0.007*[#   2]+0.003*[#   6]
    |psi|^2 = 0.010

 k =   0.1250000000  0.5773502692  0.0000000000
==== e(   1) =   -17.95796 eV ==== 
     psi = 0.574*[#   5]+0.192*[#   3]+0.192*[#   4]+0.030*[#   1]+0.002*[#   7]
          +0.002*[#   8]
    |psi|^2 = 0.991
==== e(   2) =   -12.50129 eV ==== 
     psi = 0.342*[#   7]+0.342*[#   8]+0.183*[#   1]+0.057*[#   3]+0.057*[#   4]
          +0.009*[#   5]
    |psi|^2 = 0.991
==== e(   3) =    -8.72055 eV ==== 
     psi = 0.328*[#   7]+0.328*[#   8]+0.139*[#   3]+0.139*[#   4]+0.054*[#   1]
          +0.006*[#   5]
    |psi|^2 = 0.995
==== e(   4) =    -4.41787 eV ==== 
     psi = 0.879*[#   6]+0.115*[#   2]
    |psi|^2 = 0.993
==== e(   5) =     1.10197 eV ==== 
     psi = 0.854*[#   2]+0.102*[#   6]
    |psi|^2 = 0.956
==== e(   6) =     7.49521 eV ==== 
     psi = 0.366*[#   1]+0.202*[#   5]+0.093*[#   3]+0.093*[#   4]+0.030*[#   7]
          +0.030*[#   8]
    |psi|^2 = 0.813
==== e(   7) =     9.23997 eV ==== 
     psi = 0.059*[#   3]+0.059*[#   4]+0.043*[#   1]+0.028*[#   5]+0.016*[#   7]
          +0.016*[#   8]
    |psi|^2 = 0.221
==== e(   8) =     9.71051 eV ==== 
     psi = 0.017*[#   2]+0.009*[#   6]
    |psi|^2 = 0.026

 k =   0.1875000000  0.3247595264  0.0000000000
==== e(   1) =   -19.38662 eV ==== 
     psi = 0.502*[#   5]+0.147*[#   3]+0.147*[#   4]+0.138*[#   1]+0.027*[#   7]
          +0.027*[#   8]
    |psi|^2 = 0.989
==== e(   2) =    -9.85934 eV ==== 
     psi = 0.327*[#   7]+0.327*[#   8]+0.097*[#   3]+0.097*[#   4]+0.076*[#   5]
          +0.073*[#   1]
    |psi|^2 = 0.997
==== e(   3) =    -8.17280 eV ==== 
     psi = 0.336*[#   7]+0.336*[#   8]+0.112*[#   3]+0.112*[#   4]+0.093*[#   1]
          +0.001*[#   5]
    |psi|^2 = 0.991
==== e(   4) =    -6.50869 eV ==== 
     psi = 0.658*[#   6]+0.335*[#   2]
    |psi|^2 = 0.992
==== e(   5) =     3.79592 eV ==== 
     psi = 0.634*[#   2]+0.301*[#   6]
    |psi|^2 = 0.935
==== e(   6) =     4.43940 eV ==== 
     psi = 0.078*[#   5]+0.076*[#   1]+0.056*[#   3]+0.056*[#   4]+0.006*[#   7]
          +0.006*[#   8]
    |psi|^2 = 0.277
==== e(   7) =     5.96454 eV ==== 
     psi = 0.023*[#   6]+0.015*[#   2]
    |psi|^2 = 0.038
==== e(   8) =     6.08255 eV ==== 
     psi = 0.017*[#   1]+0.012*[#   5]+0.006*[#   3]+0.006*[#   4]+0.001*[#   7]
          +0.001*[#   8]
    |psi|^2 = 0.043

 k =   0.1875000000  0.3969283101  0.0000000000
==== e(   1) =   -18.79251 eV ==== 
     psi = 0.517*[#   5]+0.165*[#   3]+0.165*[#   4]+0.094*[#   1]+0.024*[#   7]
          +0.024*[#   8]
    |psi|^2 = 0.989
==== e(   2) =   -10.80746 eV ==== 
     psi = 0.320*[#   7]+0.320*[#   8]+0.100*[#   3]+0.100*[#   4]+0.088*[#   1]
          +0.066*[#   5]
    |psi|^2 = 0.995
==== e(   3) =    -8.83364 eV ==== 
     psi = 0.331*[#   7]+0.331*[#   8]+0.110*[#   1]+0.109*[#   3]+0.109*[#   4]
          +0.002*[#   5]
    |psi|^2 = 0.992
==== e(   4) =    -5.66955 eV ==== 
     psi = 0.719*[#   6]+0.277*[#   2]
    |psi|^2 = 0.995
==== e(   5) =     2.88010 eV ==== 
     psi = 0.706*[#   2]+0.266*[#   6]
    |psi|^2 = 0.972
==== e(   6) =     5.62689 eV ==== 
     psi = 0.092*[#   1]+0.064*[#   5]+0.047*[#   3]+0.047*[#   4]+0.009*[#   7]
          +0.009*[#   8]
    |psi|^2 = 0.268
==== e(   7) =     6.99078 eV ==== 
     psi = 0.002*[#   6]+0.001*[#   2]
    |psi|^2 = 0.003
==== e(   8) =     7.33190 eV ==== 
     psi = 0.021*[#   1]+0.010*[#   5]+0.005*[#   3]+0.005*[#   4]+0.002*[#   7]
          +0.002*[#   8]
    |psi|^2 = 0.045

 k =   0.1875000000  0.4690970937  0.0000000000
==== e(   1) =   -18.22421 eV ==== 
     psi = 0.545*[#   5]+0.181*[#   3]+0.181*[#   4]+0.054*[#   1]+0.015*[#   7]
          +0.015*[#   8]
    |psi|^2 = 0.990
==== e(   2) =   -11.67450 eV ==== 
     psi = 0.323*[#   7]+0.323*[#   8]+0.118*[#   1]+0.095*[#   3]+0.095*[#   4]
          +0.040*[#   5]
    |psi|^2 = 0.992
==== e(   3) =    -9.26712 eV ==== 
     psi = 0.329*[#   7]+0.329*[#   8]+0.112*[#   1]+0.110*[#   3]+0.110*[#   4]
          +0.005*[#   5]
    |psi|^2 = 0.994
==== e(   4) =    -4.83901 eV ==== 
     psi = 0.805*[#   6]+0.190*[#   2]
    |psi|^2 = 0.995
==== e(   5) =     1.89531 eV ==== 
     psi = 0.790*[#   2]+0.182*[#   6]
    |psi|^2 = 0.972
==== e(   6) =     6.97989 eV ==== 
     psi = 0.137*[#   1]+0.058*[#   5]+0.040*[#   3]+0.040*[#   4]+0.015*[#   7]
          +0.015*[#   8]
    |psi|^2 = 0.306
==== e(   7) =     8.24436 eV ==== 
     psi = 0.003*[#   2]+0.001*[#   6]
    |psi|^2 = 0.004
==== e(   8) =     8.78151 eV ==== 
     psi = 0.052*[#   1]+0.020*[#   5]+0.009*[#   3]+0.009*[#   4]+0.007*[#   7]
          +0.007*[#   8]
    |psi|^2 = 0.105

 k =   0.1875000000  0.5412658774  0.0000000000
==== e(   1) =   -17.84612 eV ==== 
     psi = 0.573*[#   5]+0.193*[#   3]+0.193*[#   4]+0.025*[#   1]+0.004*[#   7]
          +0.004*[#   8]
    |psi|^2 = 0.992
==== e(   2) =   -12.22274 eV ==== 
     psi = 0.330*[#   7]+0.330*[#   8]+0.143*[#   1]+0.087*[#   3]+0.087*[#   4]
          +0.012*[#   5]
    |psi|^2 = 0.990
==== e(   3) =    -9.47830 eV ==== 
     psi = 0.327*[#   7]+0.327*[#   8]+0.111*[#   3]+0.111*[#   4]+0.110*[#   1]
          +0.007*[#   5]
    |psi|^2 = 0.994
==== e(   4) =    -4.25671 eV ==== 
     psi = 0.894*[#   6]+0.100*[#   2]
    |psi|^2 = 0.993
==== e(   5) =     1.21277 eV ==== 
     psi = 0.879*[#   2]+0.092*[#   6]
    |psi|^2 = 0.971
==== e(   6) =     8.24883 eV ==== 
     psi = 0.293*[#   1]+0.089*[#   5]+0.048*[#   3]+0.048*[#   4]+0.036*[#   7]
          +0.036*[#   8]
    |psi|^2 = 0.550
==== e(   7) =     9.24018 eV ==== 
     psi = 0.011*[#   2]+0.005*[#   6]
    |psi|^2 = 0.016
==== e(   8) =     9.54263 eV ==== 
     psi = 0.110*[#   1]+0.079*[#   3]+0.079*[#   4]+0.072*[#   5]+0.028*[#   7]
          +0.028*[#   8]
    |psi|^2 = 0.396

 k =   0.2500000000  0.4330127019  0.0000000000
==== e(   1) =   -18.24258 eV ==== 
     psi = 0.541*[#   5]+0.179*[#   3]+0.179*[#   4]+0.056*[#   1]+0.018*[#   7]
          +0.018*[#   8]
    |psi|^2 = 0.990
==== e(   2) =   -11.38331 eV ==== 
     psi = 0.314*[#   7]+0.314*[#   8]+0.119*[#   3]+0.119*[#   4]+0.078*[#   1]
          +0.050*[#   5]
    |psi|^2 = 0.993
==== e(   3) =    -9.61441 eV ==== 
     psi = 0.332*[#   7]+0.332*[#   8]+0.154*[#   1]+0.087*[#   3]+0.087*[#   4]
          
    |psi|^2 = 0.993
==== e(   4) =    -4.87068 eV ==== 
     psi = 0.798*[#   6]+0.198*[#   2]
    |psi|^2 = 0.995
==== e(   5) =     2.05738 eV ==== 
     psi = 0.789*[#   2]+0.192*[#   6]
    |psi|^2 = 0.982
==== e(   6) =     6.91957 eV ==== 
     psi = 0.113*[#   1]+0.046*[#   5]+0.037*[#   3]+0.037*[#   4]+0.014*[#   7]
          +0.014*[#   8]
    |psi|^2 = 0.261
==== e(   7) =     8.09450 eV ==== 

    |psi|^2 = 0.000
==== e(   8) =     8.70558 eV ==== 
     psi = 0.027*[#   1]+0.007*[#   5]+0.004*[#   7]+0.004*[#   8]+0.003*[#   3]
          +0.003*[#   4]
    |psi|^2 = 0.047

 k =   0.2500000000  0.5051814855  0.0000000000
==== e(   1) =   -17.79511 eV ==== 
     psi = 0.571*[#   5]+0.192*[#   3]+0.192*[#   4]+0.023*[#   1]+0.007*[#   7]
          +0.007*[#   8]
    |psi|^2 = 0.992
==== e(   2) =   -11.85246 eV ==== 
     psi = 0.314*[#   7]+0.314*[#   8]+0.129*[#   3]+0.129*[#   4]+0.083*[#   1]
          +0.021*[#   5]
    |psi|^2 = 0.990
==== e(   3) =   -10.11449 eV ==== 
     psi = 0.335*[#   7]+0.335*[#   8]+0.179*[#   1]+0.072*[#   3]+0.072*[#   4]
          +0.002*[#   5]
    |psi|^2 = 0.994
==== e(   4) =    -4.18757 eV ==== 
     psi = 0.896*[#   6]+0.098*[#   2]
    |psi|^2 = 0.994
==== e(   5) =     1.35778 eV ==== 
     psi = 0.891*[#   2]+0.095*[#   6]
    |psi|^2 = 0.985
==== e(   6) =     8.33391 eV ==== 
     psi = 0.180*[#   1]+0.032*[#   5]+0.028*[#   3]+0.028*[#   4]+0.026*[#   7]
          +0.026*[#   8]
    |psi|^2 = 0.319
==== e(   7) =     8.81701 eV ==== 
     psi = 0.003*[#   2]+0.001*[#   6]
    |psi|^2 = 0.004
==== e(   8) =    10.20819 eV ==== 
     psi = 0.141*[#   1]+0.028*[#   7]+0.028*[#   8]+0.014*[#   3]+0.014*[#   4]
          +0.012*[#   5]
    |psi|^2 = 0.236

 k =   0.2500000000  0.5773502692  0.0000000000
==== e(   1) =   -17.61493 eV ==== 
     psi = 0.586*[#   5]+0.197*[#   3]+0.197*[#   4]+0.009*[#   1]+0.002*[#   7]
          +0.002*[#   8]
    |psi|^2 = 0.993
==== e(   2) =   -12.04710 eV ==== 
     psi = 0.317*[#   7]+0.317*[#   8]+0.131*[#   3]+0.131*[#   4]+0.090*[#   1]
          +0.004*[#   5]
    |psi|^2 = 0.988
==== e(   3) =   -10.27984 eV ==== 
     psi = 0.336*[#   7]+0.336*[#   8]+0.185*[#   1]+0.067*[#   3]+0.067*[#   4]
          +0.004*[#   5]
    |psi|^2 = 0.994
==== e(   4) =    -3.89736 eV ==== 
     psi = 0.952*[#   6]+0.040*[#   2]
    |psi|^2 = 0.993
==== e(   5) =     1.06169 eV ==== 
     psi = 0.948*[#   2]+0.038*[#   6]
    |psi|^2 = 0.986
==== e(   6) =     8.89753 eV ==== 
     psi = 0.005*[#   2]+0.002*[#   6]
    |psi|^2 = 0.007
==== e(   7) =     9.32492 eV ==== 
     psi = 0.399*[#   1]+0.063*[#   7]+0.063*[#   8]+0.028*[#   5]+0.013*[#   3]
          +0.013*[#   4]
    |psi|^2 = 0.578
==== e(   8) =    10.24234 eV ==== 
     psi = 0.084*[#   3]+0.084*[#   4]+0.031*[#   5]+0.016*[#   7]+0.016*[#   8]
          
    |psi|^2 = 0.233

 k =   0.3125000000  0.5412658774  0.0000000000
==== e(   1) =   -17.53249 eV ==== 
     psi = 0.591*[#   5]+0.198*[#   3]+0.198*[#   4]+0.003*[#   1]+0.001*[#   7]
          +0.001*[#   8]
    |psi|^2 = 0.994
==== e(   2) =   -11.86027 eV ==== 
     psi = 0.301*[#   7]+0.301*[#   8]+0.178*[#   3]+0.178*[#   4]+0.025*[#   1]
          +0.004*[#   5]
    |psi|^2 = 0.986
==== e(   3) =   -10.68858 eV ==== 
     psi = 0.350*[#   7]+0.350*[#   8]+0.256*[#   1]+0.020*[#   3]+0.020*[#   4]
          
    |psi|^2 = 0.996
==== e(   4) =    -3.76655 eV ==== 
     psi = 0.976*[#   6]+0.017*[#   2]
    |psi|^2 = 0.993
==== e(   5) =     1.02435 eV ==== 
     psi = 0.977*[#   2]+0.016*[#   6]
    |psi|^2 = 0.993
==== e(   6) =     8.65952 eV ==== 

    |psi|^2 = 0.001
==== e(   7) =     9.56625 eV ==== 
     psi = 0.352*[#   1]+0.059*[#   7]+0.059*[#   8]+0.008*[#   3]+0.008*[#   4]
          +0.008*[#   5]
    |psi|^2 = 0.494
==== e(   8) =    10.80598 eV ==== 
     psi = 0.100*[#   1]+0.071*[#   3]+0.071*[#   4]+0.039*[#   7]+0.039*[#   8]
          +0.005*[#   5]
    |psi|^2 = 0.324

Lowdin Charges: 

     Atom #   1: total charge =   2.5440, s =  0.6017, 
     Atom #   1: total charge =   2.5440, p =  1.9423, pz=  0.5298, px=  0.7062, py=  0.7062, 
     Atom #   2: total charge =   5.3881, s =  1.1555, 
     Atom #   2: total charge =   5.3881, p =  4.2327, pz=  1.4471, px=  1.3928, py=  1.3928, 
     Spilling Parameter:   0.0085

     PROJWFC      :      0.55s CPU      0.34s WALL


   This run was terminated on:  17:52:35  14Feb2024            

=------------------------------------------------------------------------------=
   JOB DONE.
=------------------------------------------------------------------------------=
