
     Program BANDS v.7.2 starts on  5Apr2024 at 10:25:36 

     This program is part of the open-source Quantum ESPRESSO suite
     for quantum simulation of materials; please cite
         "P. Giannozzi et al., J. Phys.:Condens. Matter 21 395502 (2009);
         "P. Giannozzi et al., J. Phys.:Condens. Matter 29 465901 (2017);
         "P. Giannozzi et al., J. Chem. Phys. 152 154105 (2020);
          URL http://www.quantum-espresso.org", 
     in publications or presentations arising from this work. More details at
     http://www.quantum-espresso.org/quote

     Parallel version (MPI & OpenMP), running on       8 processor cores
     Number of MPI processes:                 8
     Threads/MPI process:                     1

     MPI processes distributed on     1 nodes
     R & G space division:  proc/nbgrp/npool/nimage =       8
     0 MiB available memory on the printing compute node when the environment starts


     Reading xml data from directory:

     ./tmp/hBN_1L_PBE_vdW.save/

     IMPORTANT: XC functional enforced from input :
     Exchange-correlation= VDW-DF2-B86R
                           (   1   4  26   0   2   0   0)
     Any further DFT definition will be discarded
     Please, verify this is what you really want


     Parallelization info
     --------------------
     sticks:   dense  smooth     PW     G-vecs:    dense   smooth      PW
     Min          45      45     14                 5787     5787    1010
     Max          46      46     16                 5820     5820    1027
     Sum         367     367    121                46489    46489    8181

     Using Slab Decomposition



     %%%%%%%%%%%%%%%%%%%%%%%%%%%%%%%%%%%%%%%%%%%%%%%%%%%%%%%%%%%%%%%%%%%%%%%%
     %                                                                      %
     % You are using vdW-DF, which was implemented by the Thonhauser group. %
     % Please cite the following two papers that made this development      %
     % possible and the two reviews that describe the various versions:     %
     %                                                                      %
     %   T. Thonhauser et al., PRL 115, 136402 (2015).                      %
     %   T. Thonhauser et al., PRB 76, 125112 (2007).                       %
     %   K. Berland et al., Rep. Prog. Phys. 78, 066501 (2015).             %
     %   D.C. Langreth et al., J. Phys.: Condens. Matter 21, 084203 (2009). %
     %                                                                      %
     % If you are calculating stress with vdW-DF, please also cite:         %
     %                                                                      %
     %   R. Sabatini et al., J. Phys.: Condens. Matter 24, 424209 (2012).   %
     %                                                                      %
     %%%%%%%%%%%%%%%%%%%%%%%%%%%%%%%%%%%%%%%%%%%%%%%%%%%%%%%%%%%%%%%%%%%%%%%%

     %%%%%%%%%%%%%%%%%%%%%%%%%%%%%%%%%%%%%%%%%%%%%%%%%%%%%%%%%%%%%%%%%%%%%%%%
     %                                                                      %
     %  vdW-DF NEWS:                                                        %
     %                                                                      %
     %  * vdW-DF3 is now available. DOI: 10.1021/acs.jctc.0c00471           %
     %    use with input_dft = 'vdW-DF3-opt1' or 'vdW-DF3-opt2'             %
     %                                                                      %
     %  * Unscreened and range-separated hybrid vdW-DF-cx functionals       %
     %    DOI: 10.1063/1.4986522 and 10.1088/1361-648X/ac2ad2               %
     %    use with input_dft = 'vdW-DF-cx0'    and 'vdW-DF-ahcx'            %
     %  * Unscreened and range-separated hybrid vdW-DF2-b86r functionals    %
     %    DOI: 10.1063/1.4986522 and DOI: 10.1103/PhysRevX.12.041003        %
     %    use with input_dft = 'vdW-DF2-br0' and 'vdW-DF2-ahbr'             %
     %                                                                      %
     %%%%%%%%%%%%%%%%%%%%%%%%%%%%%%%%%%%%%%%%%%%%%%%%%%%%%%%%%%%%%%%%%%%%%%%%


     Reading collected, re-writing distributed wavefunctions
     high-symmetry point:  0.0000 0.0000 0.0000   x coordinate   0.0000
     high-symmetry point: -0.3333 0.5774 0.0000   x coordinate   0.6667
     high-symmetry point:  0.0000 0.5774 0.0000   x coordinate   1.0000
     high-symmetry point:  0.0000 0.0000 0.0000   x coordinate   1.5773

     Plottable bands (eV) written to file Bande_hBN_1L_PBE_vdW.dat.gnu
     Bands written to file Bande_hBN_1L_PBE_vdW.dat

 **************************************************************************

                    xk=(   0.00000,   0.00000,   0.00000  )

     point group D_3h (-62m)
     there are  6 classes
     the character table:

       E     2C3   3C2   s_h   2S3   3s_v 
A'_1   1.00  1.00  1.00  1.00  1.00  1.00
A'_2   1.00  1.00 -1.00  1.00  1.00 -1.00
E'     2.00 -1.00  0.00  2.00 -1.00  0.00
A''1   1.00  1.00  1.00 -1.00 -1.00 -1.00
A''2   1.00  1.00 -1.00 -1.00 -1.00  1.00
E''    2.00 -1.00  0.00 -2.00  1.00  0.00

     the symmetry operations in each class and the name of the first element:

     E        1
                                                                 
     2C3      3    4
                                                                 
     3C2      2    6    5
                                                                 
     s_h      7
                                                                 
     2S3      9   10
                                                                 
     3s_v     8   11   12
                                                                 

     Band symmetry, D_3h (-62m) point group:

     e(  1 -  1) =    -21.80075  eV     1   --> A'_1           
     e(  2 -  2) =     -9.42489  eV     1   --> A''2           
     e(  3 -  4) =     -5.59947  eV     2   --> E'             
     e(  5 -  5) =      0.17016  eV     1   --> A'_1           
     e(  6 -  6) =      1.21132  eV     1   --> A''2           
     e(  7 -  7) =      1.76106  eV     1   --> A'_1           
     e(  8 -  8) =      2.56859  eV     1   --> A''2           
     e(  9 -  9) =      3.04851  eV     1   --> A'_1           
     e( 10 - 10) =      4.62731  eV     1   --> A''2           
     e( 11 - 11) =      5.13672  eV     1   --> A'_1           
     e( 12 - 12) =      7.19912  eV     1   --> A''2           
     e( 13 - 14) =      7.42560  eV     2   --> E'             
     e( 15 - 15) =      7.72501  eV     1   --> A'_1           
     e( 16 - 16) =      9.21839  eV     1   --> A''2           

 **************************************************************************

 **************************************************************************

                    xk=(  -0.01587,   0.02749,   0.00000  )

     point group C_s (m)    
     there are  2 classes
     the character table:

       E     s    
A'     1.00  1.00
A''    1.00 -1.00

     the symmetry operations in each class and the name of the first element:

     E        1
                                                                 
     s        2
                                                                 

     Band symmetry, C_s (m)     point group:

     e(  1 -  1) =    -21.78649  eV     1   --> A'             
     e(  2 -  2) =     -9.40586  eV     1   --> A''            
     e(  3 -  3) =     -5.66314  eV     1   --> A'             
     e(  4 -  4) =     -5.62943  eV     1   --> A'             
     e(  5 -  5) =      0.19543  eV     1   --> A'             
     e(  6 -  6) =      1.23390  eV     1   --> A''            
     e(  7 -  7) =      1.78515  eV     1   --> A'             
     e(  8 -  8) =      2.59174  eV     1   --> A''            
     e(  9 -  9) =      3.07297  eV     1   --> A'             
     e( 10 - 10) =      4.64844  eV     1   --> A''            
     e( 11 - 11) =      5.16175  eV     1   --> A'             
     e( 12 - 12) =      7.20650  eV     1   --> A''            
     e( 13 - 13) =      7.40836  eV     1   --> A'             
     e( 14 - 14) =      7.48901  eV     1   --> A'             
     e( 15 - 15) =      7.76512  eV     1   --> A'             
     e( 16 - 16) =      9.19938  eV     1   --> A''            

 **************************************************************************

 **************************************************************************

                    xk=(  -0.03174,   0.05499,   0.00000  )

     Band symmetry, C_s (m)     point group:

     e(  1 -  1) =    -21.74323  eV     1   --> A'             
     e(  2 -  2) =     -9.34748  eV     1   --> A''            
     e(  3 -  3) =     -5.84545  eV     1   --> A'             
     e(  4 -  4) =     -5.71652  eV     1   --> A'             
     e(  5 -  5) =      0.27076  eV     1   --> A'             
     e(  6 -  6) =      1.30181  eV     1   --> A''            
     e(  7 -  7) =      1.85741  eV     1   --> A'             
     e(  8 -  8) =      2.66126  eV     1   --> A''            
     e(  9 -  9) =      3.14617  eV     1   --> A'             
     e( 10 - 10) =      4.71177  eV     1   --> A''            
     e( 11 - 11) =      5.23626  eV     1   --> A'             
     e( 12 - 12) =      7.22611  eV     1   --> A''            
     e( 13 - 13) =      7.37561  eV     1   --> A'             
     e( 14 - 14) =      7.66078  eV     1   --> A'             
     e( 15 - 15) =      7.88663  eV     1   --> A'             
     e( 16 - 16) =      9.14753  eV     1   --> A''            

 **************************************************************************

 **************************************************************************

                    xk=(  -0.04761,   0.08248,   0.00000  )

     Band symmetry, C_s (m)     point group:

     e(  1 -  1) =    -21.67134  eV     1   --> A'             
     e(  2 -  2) =     -9.25044  eV     1   --> A''            
     e(  3 -  3) =     -6.13206  eV     1   --> A'             
     e(  4 -  4) =     -5.85842  eV     1   --> A'             
     e(  5 -  5) =      0.39474  eV     1   --> A'             
     e(  6 -  6) =      1.41465  eV     1   --> A''            
     e(  7 -  7) =      1.97774  eV     1   --> A'             
     e(  8 -  8) =      2.77687  eV     1   --> A''            
     e(  9 -  9) =      3.26757  eV     1   --> A'             
     e( 10 - 10) =      4.81574  eV     1   --> A''            
     e( 11 - 11) =      5.35846  eV     1   --> A'             
     e( 12 - 12) =      7.24478  eV     1   --> A''            
     e( 13 - 13) =      7.34965  eV     1   --> A'             
     e( 14 - 14) =      7.86124  eV     1   --> A'             
     e( 15 - 15) =      8.13531  eV     1   --> A'             
     e( 16 - 16) =      9.07382  eV     1   --> A''            

 **************************************************************************

 **************************************************************************

                    xk=(  -0.06349,   0.10998,   0.00000  )

     Band symmetry, C_s (m)     point group:

     e(  1 -  1) =    -21.57130  eV     1   --> A'             
     e(  2 -  2) =     -9.11508  eV     1   --> A''            
     e(  3 -  3) =     -6.50462  eV     1   --> A'             
     e(  4 -  4) =     -6.05197  eV     1   --> A'             
     e(  5 -  5) =      0.56592  eV     1   --> A'             
     e(  6 -  6) =      1.57179  eV     1   --> A''            
     e(  7 -  7) =      2.14606  eV     1   --> A'             
     e(  8 -  8) =      2.93811  eV     1   --> A''            
     e(  9 -  9) =      3.43655  eV     1   --> A'             
     e( 10 - 10) =      4.95711  eV     1   --> A''            
     e( 11 - 11) =      5.52666  eV     1   --> A'             
     e( 12 - 12) =      7.23858  eV     1   --> A''            
     e( 13 - 13) =      7.34538  eV     1   --> A'             
     e( 14 - 14) =      8.04494  eV     1   --> A'             
     e( 15 - 15) =      8.52395  eV     1   --> A'             
     e( 16 - 16) =      9.00433  eV     1   --> A''            

 **************************************************************************

 **************************************************************************

                    xk=(  -0.07936,   0.13747,   0.00000  )

     Band symmetry, C_s (m)     point group:

     e(  1 -  1) =    -21.44378  eV     1   --> A'             
     e(  2 -  2) =     -8.94205  eV     1   --> A''            
     e(  3 -  3) =     -6.94093  eV     1   --> A'             
     e(  4 -  4) =     -6.29176  eV     1   --> A'             
     e(  5 -  5) =      0.78310  eV     1   --> A'             
     e(  6 -  6) =      1.77207  eV     1   --> A''            
     e(  7 -  7) =      2.36228  eV     1   --> A'             
     e(  8 -  8) =      3.14405  eV     1   --> A''            
     e(  9 -  9) =      3.65263  eV     1   --> A'             
     e( 10 - 10) =      5.12874  eV     1   --> A''            
     e( 11 - 11) =      5.73952  eV     1   --> A'             
     e( 12 - 12) =      7.17625  eV     1   --> A''            
     e( 13 - 13) =      7.37210  eV     1   --> A'             
     e( 14 - 14) =      8.24032  eV     1   --> A'             
     e( 15 - 15) =      8.98005  eV     1   --> A''            
     e( 16 - 16) =      8.98577  eV     1   --> A'             

 **************************************************************************

 **************************************************************************

                    xk=(  -0.09523,   0.16496,   0.00000  )

     Band symmetry, C_s (m)     point group:

     e(  1 -  1) =    -21.28961  eV     1   --> A'             
     e(  2 -  2) =     -8.73261  eV     1   --> A''            
     e(  3 -  3) =     -7.42126  eV     1   --> A'             
     e(  4 -  4) =     -6.57179  eV     1   --> A'             
     e(  5 -  5) =      1.04563  eV     1   --> A'             
     e(  6 -  6) =      2.01334  eV     1   --> A''            
     e(  7 -  7) =      2.62635  eV     1   --> A'             
     e(  8 -  8) =      3.39288  eV     1   --> A''            
     e(  9 -  9) =      3.91550  eV     1   --> A'             
     e( 10 - 10) =      5.31394  eV     1   --> A''            
     e( 11 - 11) =      5.99630  eV     1   --> A'             
     e( 12 - 12) =      7.04509  eV     1   --> A''            
     e( 13 - 13) =      7.43656  eV     1   --> A'             
     e( 14 - 14) =      8.45946  eV     1   --> A'             
     e( 15 - 15) =      9.04022  eV     1   --> A''            
     e( 16 - 16) =      9.46769  eV     1   --> A'             

 **************************************************************************

 **************************************************************************

                    xk=(  -0.11110,   0.19246,   0.00000  )

     Band symmetry, C_s (m)     point group:

     e(  1 -  1) =    -21.10989  eV     1   --> A'             
     e(  2 -  2) =     -8.48793  eV     1   --> A''            
     e(  3 -  3) =     -7.92825  eV     1   --> A'             
     e(  4 -  4) =     -6.88506  eV     1   --> A'             
     e(  5 -  5) =      1.35317  eV     1   --> A'             
     e(  6 -  6) =      2.29160  eV     1   --> A''            
     e(  7 -  7) =      2.93826  eV     1   --> A'             
     e(  8 -  8) =      3.68076  eV     1   --> A''            
     e(  9 -  9) =      4.22496  eV     1   --> A'             
     e( 10 - 10) =      5.47107  eV     1   --> A''            
     e( 11 - 11) =      6.29642  eV     1   --> A'             
     e( 12 - 12) =      6.89114  eV     1   --> A''            
     e( 13 - 13) =      7.54291  eV     1   --> A'             
     e( 14 - 14) =      8.70387  eV     1   --> A'             
     e( 15 - 15) =      9.19753  eV     1   --> A''            
     e( 16 - 16) =      9.93562  eV     1   --> A'             

 **************************************************************************

 **************************************************************************

                    xk=(  -0.12697,   0.21995,   0.00000  )

     Band symmetry, C_s (m)     point group:

     e(  1 -  1) =    -20.90614  eV     1   --> A'             
     e(  2 -  2) =     -8.44815  eV     1   --> A'             
     e(  3 -  3) =     -8.20977  eV     1   --> A''            
     e(  4 -  4) =     -7.22492  eV     1   --> A'             
     e(  5 -  5) =      1.70556  eV     1   --> A'             
     e(  6 -  6) =      2.59823  eV     1   --> A''            
     e(  7 -  7) =      3.29799  eV     1   --> A'             
     e(  8 -  8) =      3.99785  eV     1   --> A''            
     e(  9 -  9) =      4.58087  eV     1   --> A'             
     e( 10 - 10) =      5.51732  eV     1   --> A''            
     e( 11 - 11) =      6.63920  eV     1   --> A'             
     e( 12 - 12) =      6.83753  eV     1   --> A''            
     e( 13 - 13) =      7.69196  eV     1   --> A'             
     e( 14 - 14) =      8.97126  eV     1   --> A'             
     e( 15 - 15) =      9.44096  eV     1   --> A''            
     e( 16 - 16) =     10.37850  eV     1   --> A'             

 **************************************************************************

 **************************************************************************

                    xk=(  -0.14284,   0.24744,   0.00000  )

     Band symmetry, C_s (m)     point group:

     e(  1 -  1) =    -20.68043  eV     1   --> A'             
     e(  2 -  2) =     -8.96896  eV     1   --> A'             
     e(  3 -  3) =     -7.90007  eV     1   --> A''            
     e(  4 -  4) =     -7.58408  eV     1   --> A'             
     e(  5 -  5) =      2.10251  eV     1   --> A'             
     e(  6 -  6) =      2.91232  eV     1   --> A''            
     e(  7 -  7) =      3.70550  eV     1   --> A'             
     e(  8 -  8) =      4.31389  eV     1   --> A''            
     e(  9 -  9) =      4.98299  eV     1   --> A'             
     e( 10 - 10) =      5.42831  eV     1   --> A''            
     e( 11 - 11) =      6.98793  eV     1   --> A''            
     e( 12 - 12) =      7.02351  eV     1   --> A'             
     e( 13 - 13) =      7.88328  eV     1   --> A'             
     e( 14 - 14) =      9.25796  eV     1   --> A'             
     e( 15 - 15) =      9.75305  eV     1   --> A''            
     e( 16 - 16) =     10.80663  eV     1   --> A'             

 **************************************************************************

 **************************************************************************

                    xk=(  -0.15871,   0.27494,   0.00000  )

     Band symmetry, C_s (m)     point group:

     e(  1 -  1) =    -20.43497  eV     1   --> A'             
     e(  2 -  2) =     -9.47975  eV     1   --> A'             
     e(  3 -  3) =     -7.95606  eV     1   --> A'             
     e(  4 -  4) =     -7.56114  eV     1   --> A''            
     e(  5 -  5) =      2.54400  eV     1   --> A'             
     e(  6 -  6) =      3.17561  eV     1   --> A''            
     e(  7 -  7) =      4.16079  eV     1   --> A'             
     e(  8 -  8) =      4.54182  eV     1   --> A''            
     e(  9 -  9) =      5.40915  eV     1   --> A''            
     e( 10 - 10) =      5.43115  eV     1   --> A'             
     e( 11 - 11) =      7.30454  eV     1   --> A''            
     e( 12 - 12) =      7.44806  eV     1   --> A'             
     e( 13 - 13) =      8.11356  eV     1   --> A'             
     e( 14 - 14) =      9.56034  eV     1   --> A'             
     e( 15 - 15) =     10.11700  eV     1   --> A''            
     e( 16 - 16) =     11.23710  eV     1   --> A'             

 **************************************************************************

 **************************************************************************

                    xk=(  -0.17459,   0.30243,   0.00000  )

     Band symmetry, C_s (m)     point group:

     e(  1 -  1) =    -20.17320  eV     1   --> A'             
     e(  2 -  2) =     -9.97210  eV     1   --> A'             
     e(  3 -  3) =     -8.33503  eV     1   --> A'             
     e(  4 -  4) =     -7.19746  eV     1   --> A''            
     e(  5 -  5) =      3.02959  eV     1   --> A'             
     e(  6 -  6) =      3.25118  eV     1   --> A''            
     e(  7 -  7) =      4.66383  eV     1   --> A'             
     e(  8 -  8) =      4.68518  eV     1   --> A''            
     e(  9 -  9) =      5.67572  eV     1   --> A''            
     e( 10 - 10) =      5.92489  eV     1   --> A'             
     e( 11 - 11) =      7.72009  eV     1   --> A''            
     e( 12 - 12) =      7.91039  eV     1   --> A'             
     e( 13 - 13) =      8.37686  eV     1   --> A'             
     e( 14 - 14) =      9.87604  eV     1   --> A'             
     e( 15 - 15) =     10.51292  eV     1   --> A''            
     e( 16 - 16) =     11.68620  eV     1   --> A'             

 **************************************************************************

 **************************************************************************

                    xk=(  -0.19046,   0.32993,   0.00000  )

     Band symmetry, C_s (m)     point group:

     e(  1 -  1) =    -19.89937  eV     1   --> A'             
     e(  2 -  2) =    -10.43725  eV     1   --> A'             
     e(  3 -  3) =     -8.71549  eV     1   --> A'             
     e(  4 -  4) =     -6.81361  eV     1   --> A''            
     e(  5 -  5) =      3.04753  eV     1   --> A''            
     e(  6 -  6) =      3.55868  eV     1   --> A'             
     e(  7 -  7) =      4.97776  eV     1   --> A''            
     e(  8 -  8) =      5.21455  eV     1   --> A'             
     e(  9 -  9) =      6.13075  eV     1   --> A''            
     e( 10 - 10) =      6.46346  eV     1   --> A'             
     e( 11 - 11) =      8.19852  eV     1   --> A''            
     e( 12 - 12) =      8.40630  eV     1   --> A'             
     e( 13 - 13) =      8.66421  eV     1   --> A'             
     e( 14 - 14) =     10.20646  eV     1   --> A'             
     e( 15 - 15) =     10.90444  eV     1   --> A''            
     e( 16 - 16) =     12.16550  eV     1   --> A'             

 **************************************************************************

 **************************************************************************

                    xk=(  -0.20633,   0.35742,   0.00000  )

     Band symmetry, C_s (m)     point group:

     e(  1 -  1) =    -19.61876  eV     1   --> A'             
     e(  2 -  2) =    -10.86663  eV     1   --> A'             
     e(  3 -  3) =     -9.09242  eV     1   --> A'             
     e(  4 -  4) =     -6.41558  eV     1   --> A''            
     e(  5 -  5) =      2.67627  eV     1   --> A''            
     e(  6 -  6) =      4.13044  eV     1   --> A'             
     e(  7 -  7) =      5.43016  eV     1   --> A''            
     e(  8 -  8) =      5.81286  eV     1   --> A'             
     e(  9 -  9) =      6.67447  eV     1   --> A''            
     e( 10 - 10) =      7.04562  eV     1   --> A'             
     e( 11 - 11) =      8.71696  eV     1   --> A''            
     e( 12 - 12) =      8.91687  eV     1   --> A'             
     e( 13 - 13) =      8.97595  eV     1   --> A'             
     e( 14 - 14) =     10.55884  eV     1   --> A'             
     e( 15 - 15) =     11.20328  eV     1   --> A''            
     e( 16 - 16) =     12.68115  eV     1   --> A'             

 **************************************************************************

 **************************************************************************

                    xk=(  -0.22220,   0.38491,   0.00000  )

     Band symmetry, C_s (m)     point group:

     e(  1 -  1) =    -19.33842  eV     1   --> A'             
     e(  2 -  2) =    -11.25083  eV     1   --> A'             
     e(  3 -  3) =     -9.46177  eV     1   --> A'             
     e(  4 -  4) =     -6.01150  eV     1   --> A''            
     e(  5 -  5) =      2.25081  eV     1   --> A''            
     e(  6 -  6) =      4.74331  eV     1   --> A'             
     e(  7 -  7) =      5.97096  eV     1   --> A''            
     e(  8 -  8) =      6.45858  eV     1   --> A'             
     e(  9 -  9) =      7.27391  eV     1   --> A''            
     e( 10 - 10) =      7.66868  eV     1   --> A'             
     e( 11 - 11) =      9.24181  eV     1   --> A'             
     e( 12 - 12) =      9.24422  eV     1   --> A''            
     e( 13 - 13) =      9.48597  eV     1   --> A'             
     e( 14 - 14) =     10.94631  eV     1   --> A'             
     e( 15 - 15) =     11.27450  eV     1   --> A''            
     e( 16 - 16) =     13.03161  eV     1   --> A''            

 **************************************************************************

 **************************************************************************

                    xk=(  -0.23807,   0.41241,   0.00000  )

     Band symmetry, C_s (m)     point group:

     e(  1 -  1) =    -19.06692  eV     1   --> A'             
     e(  2 -  2) =    -11.57990  eV     1   --> A'             
     e(  3 -  3) =     -9.81951  eV     1   --> A'             
     e(  4 -  4) =     -5.61211  eV     1   --> A''            
     e(  5 -  5) =      1.82666  eV     1   --> A''            
     e(  6 -  6) =      5.39504  eV     1   --> A'             
     e(  7 -  7) =      6.55748  eV     1   --> A''            
     e(  8 -  8) =      7.15137  eV     1   --> A'             
     e(  9 -  9) =      7.91116  eV     1   --> A''            
     e( 10 - 10) =      8.32627  eV     1   --> A'             
     e( 11 - 11) =      9.50698  eV     1   --> A'             
     e( 12 - 12) =      9.70387  eV     1   --> A''            
     e( 13 - 13) =     10.03969  eV     1   --> A'             
     e( 14 - 14) =     11.22243  eV     1   --> A''            
     e( 15 - 15) =     11.38378  eV     1   --> A'             
     e( 16 - 16) =     13.38865  eV     1   --> A''            

 **************************************************************************

 **************************************************************************

                    xk=(  -0.25394,   0.43990,   0.00000  )

     Band symmetry, C_s (m)     point group:

     e(  1 -  1) =    -18.81471  eV     1   --> A'             
     e(  2 -  2) =    -11.84393  eV     1   --> A'             
     e(  3 -  3) =    -10.16203  eV     1   --> A'             
     e(  4 -  4) =     -5.23141  eV     1   --> A''            
     e(  5 -  5) =      1.43349  eV     1   --> A''            
     e(  6 -  6) =      6.08148  eV     1   --> A'             
     e(  7 -  7) =      7.14910  eV     1   --> A''            
     e(  8 -  8) =      7.89042  eV     1   --> A'             
     e(  9 -  9) =      8.55892  eV     1   --> A''            
     e( 10 - 10) =      8.99566  eV     1   --> A'             
     e( 11 - 11) =      9.74738  eV     1   --> A'             
     e( 12 - 12) =      9.96453  eV     1   --> A''            
     e( 13 - 13) =     10.58220  eV     1   --> A'             
     e( 14 - 14) =     11.40285  eV     1   --> A''            
     e( 15 - 15) =     11.87658  eV     1   --> A'             
     e( 16 - 16) =     13.85678  eV     1   --> A''            

 **************************************************************************

 **************************************************************************

                    xk=(  -0.26981,   0.46739,   0.00000  )

     Band symmetry, C_s (m)     point group:

     e(  1 -  1) =    -18.59309  eV     1   --> A'             
     e(  2 -  2) =    -12.03182  eV     1   --> A'             
     e(  3 -  3) =    -10.48563  eV     1   --> A'             
     e(  4 -  4) =     -4.88621  eV     1   --> A''            
     e(  5 -  5) =      1.09385  eV     1   --> A''            
     e(  6 -  6) =      6.79502  eV     1   --> A'             
     e(  7 -  7) =      7.66891  eV     1   --> A''            
     e(  8 -  8) =      8.67298  eV     1   --> A'             
     e(  9 -  9) =      9.15211  eV     1   --> A''            
     e( 10 - 10) =      9.55316  eV     1   --> A'             
     e( 11 - 11) =     10.07043  eV     1   --> A'             
     e( 12 - 12) =     10.16025  eV     1   --> A''            
     e( 13 - 13) =     11.07062  eV     1   --> A'             
     e( 14 - 14) =     11.90521  eV     1   --> A''            
     e( 15 - 15) =     12.39199  eV     1   --> A'             
     e( 16 - 16) =     13.41701  eV     1   --> A'             

 **************************************************************************

 **************************************************************************

                    xk=(  -0.28569,   0.49489,   0.00000  )

     Band symmetry, C_s (m)     point group:

     e(  1 -  1) =    -18.41373  eV     1   --> A'             
     e(  2 -  2) =    -12.13618  eV     1   --> A'             
     e(  3 -  3) =    -10.78555  eV     1   --> A'             
     e(  4 -  4) =     -4.59767  eV     1   --> A''            
     e(  5 -  5) =      0.82413  eV     1   --> A''            
     e(  6 -  6) =      7.51863  eV     1   --> A'             
     e(  7 -  7) =      7.98302  eV     1   --> A''            
     e(  8 -  8) =      9.47302  eV     1   --> A'             
     e(  9 -  9) =      9.66736  eV     1   --> A''            
     e( 10 - 10) =      9.80667  eV     1   --> A'             
     e( 11 - 11) =     10.63660  eV     1   --> A''            
     e( 12 - 12) =     10.65840  eV     1   --> A'             
     e( 13 - 13) =     11.40646  eV     1   --> A'             
     e( 14 - 14) =     12.52800  eV     1   --> A''            
     e( 15 - 15) =     12.74852  eV     1   --> A'             
     e( 16 - 16) =     13.33295  eV     1   --> A'             

 **************************************************************************

 **************************************************************************

                    xk=(  -0.30156,   0.52238,   0.00000  )

     Band symmetry, C_s (m)     point group:

     e(  1 -  1) =    -18.28488  eV     1   --> A'             
     e(  2 -  2) =    -12.15633  eV     1   --> A'             
     e(  3 -  3) =    -11.05244  eV     1   --> A'             
     e(  4 -  4) =     -4.38371  eV     1   --> A''            
     e(  5 -  5) =      0.63714  eV     1   --> A''            
     e(  6 -  6) =      8.05498  eV     1   --> A''            
     e(  7 -  7) =      8.20917  eV     1   --> A'             
     e(  8 -  8) =      9.81006  eV     1   --> A'             
     e(  9 -  9) =     10.27149  eV     1   --> A''            
     e( 10 - 10) =     10.41861  eV     1   --> A'             
     e( 11 - 11) =     11.04924  eV     1   --> A'             
     e( 12 - 12) =     11.34639  eV     1   --> A''            
     e( 13 - 13) =     11.70744  eV     1   --> A'             
     e( 14 - 14) =     12.67793  eV     1   --> A''            
     e( 15 - 15) =     12.96210  eV     1   --> A'             
     e( 16 - 16) =     13.19282  eV     1   -->   ?

 **************************************************************************

 **************************************************************************

                    xk=(  -0.31743,   0.54988,   0.00000  )

     Band symmetry, C_s (m)     point group:

     e(  1 -  1) =    -18.21032  eV     1   --> A'             
     e(  2 -  2) =    -12.11300  eV     1   --> A'             
     e(  3 -  3) =    -11.26481  eV     1   --> A'             
     e(  4 -  4) =     -4.25707  eV     1   --> A''            
     e(  5 -  5) =      0.53457  eV     1   --> A''            
     e(  6 -  6) =      8.02190  eV     1   --> A''            
     e(  7 -  7) =      8.73966  eV     1   --> A'             
     e(  8 -  8) =      9.93592  eV     1   --> A'             
     e(  9 -  9) =     10.80389  eV     1   --> A'             
     e( 10 - 10) =     10.96736  eV     1   --> A''            
     e( 11 - 11) =     11.35108  eV     1   --> A'             
     e( 12 - 12) =     12.01347  eV     1   --> A''            
     e( 13 - 13) =     12.32808  eV     1   --> A''            
     e( 14 - 14) =     12.33475  eV     1   --> A'             
     e( 15 - 15) =     12.74410  eV     1   --> A'             
     e( 16 - 16) =     12.85360  eV     1   --> A'             

 **************************************************************************

 **************************************************************************

                    xk=(  -0.33330,   0.57737,   0.00000  )

     Band symmetry, C_s (m)     point group:

     e(  1 -  1) =    -18.18703  eV     1   --> A'             
     e(  2 -  2) =    -12.07320  eV     1   --> A'             
     e(  3 -  3) =    -11.35873  eV     1   --> A'             
     e(  4 -  4) =     -4.21725  eV     1   --> A''            
     e(  5 -  5) =      0.50522  eV     1   --> A''            
     e(  6 -  6) =      7.99748  eV     1   --> A''            
     e(  7 -  7) =      8.91660  eV     1   --> A'             
     e(  8 -  8) =     10.11901  eV     1   --> A'             
     e(  9 -  9) =     10.57877  eV     1   --> A'             
     e( 10 - 10) =     11.42728  eV     1   --> A''            
     e( 11 - 11) =     11.88289  eV     1   --> A''            
     e( 12 - 12) =     12.20115  eV     1   --> A'             
     e( 13 - 13) =     12.29274  eV     1   --> A'             
     e( 14 - 14) =     12.34870  eV     1   --> A'             
     e( 15 - 15) =     12.49337  eV     1   --> A''            
     e( 16 - 16) =     12.81193  eV     1   --> A'             

 **************************************************************************

 **************************************************************************

                    xk=(  -0.30300,   0.57737,   0.00000  )

     Band symmetry, C_s (m)     point group:

     e(  1 -  1) =    -18.20522  eV     1   --> A'             
     e(  2 -  2) =    -12.12760  eV     1   --> A'             
     e(  3 -  3) =    -11.25905  eV     1   --> A'             
     e(  4 -  4) =     -4.24789  eV     1   --> A''            
     e(  5 -  5) =      0.52389  eV     1   --> A''            
     e(  6 -  6) =      8.02768  eV     1   --> A''            
     e(  7 -  7) =      8.81669  eV     1   --> A'             
     e(  8 -  8) =      9.88667  eV     1   --> A'             
     e(  9 -  9) =     10.74144  eV     1   --> A'             
     e( 10 - 10) =     11.16236  eV     1   --> A''            
     e( 11 - 11) =     11.78854  eV     1   --> A''            
     e( 12 - 12) =     11.82429  eV     1   --> A'             
     e( 13 - 13) =     11.88332  eV     1   --> A'             
     e( 14 - 14) =     12.55338  eV     1   --> A''            
     e( 15 - 15) =     12.60998  eV     1   --> A'             
     e( 16 - 16) =     12.77590  eV     1   --> A''            

 **************************************************************************

 **************************************************************************

                    xk=(  -0.27270,   0.57737,   0.00000  )

     Band symmetry, C_s (m)     point group:

     e(  1 -  1) =    -18.25317  eV     1   --> A'             
     e(  2 -  2) =    -12.25599  eV     1   --> A'             
     e(  3 -  3) =    -11.00488  eV     1   --> A'             
     e(  4 -  4) =     -4.32829  eV     1   --> A''            
     e(  5 -  5) =      0.56336  eV     1   --> A''            
     e(  6 -  6) =      8.12080  eV     1   --> A''            
     e(  7 -  7) =      8.59212  eV     1   --> A'             
     e(  8 -  8) =      9.53028  eV     1   --> A'             
     e(  9 -  9) =     10.70683  eV     1   --> A'             
     e( 10 - 10) =     10.80199  eV     1   --> A''            
     e( 11 - 11) =     11.43116  eV     1   --> A'             
     e( 12 - 12) =     11.49364  eV     1   --> A'             
     e( 13 - 13) =     11.50178  eV     1   --> A''            
     e( 14 - 14) =     12.22849  eV     1   --> A''            
     e( 15 - 15) =     12.36047  eV     1   --> A'             
     e( 16 - 16) =     12.60136  eV     1   --> A''            

 **************************************************************************

 **************************************************************************

                    xk=(  -0.24240,   0.57736,   0.00000  )

     Band symmetry, C_s (m)     point group:

     e(  1 -  1) =    -18.32072  eV     1   --> A'             
     e(  2 -  2) =    -12.40425  eV     1   --> A'             
     e(  3 -  3) =    -10.66683  eV     1   --> A'             
     e(  4 -  4) =     -4.43876  eV     1   --> A''            
     e(  5 -  5) =      0.60383  eV     1   --> A''            
     e(  6 -  6) =      8.26511  eV     1   --> A''            
     e(  7 -  7) =      8.28974  eV     1   --> A'             
     e(  8 -  8) =      9.18741  eV     1   --> A'             
     e(  9 -  9) =     10.37578  eV     1   --> A'             
     e( 10 - 10) =     10.46919  eV     1   --> A''            
     e( 11 - 11) =     11.06771  eV     1   --> A'             
     e( 12 - 12) =     11.13309  eV     1   --> A'             
     e( 13 - 13) =     11.22058  eV     1   --> A''            
     e( 14 - 14) =     11.87844  eV     1   --> A''            
     e( 15 - 15) =     12.06699  eV     1   --> A'             
     e( 16 - 16) =     12.36083  eV     1   --> A''            

 **************************************************************************

 **************************************************************************

                    xk=(  -0.21210,   0.57736,   0.00000  )

     Band symmetry, C_s (m)     point group:

     e(  1 -  1) =    -18.39877  eV     1   --> A'             
     e(  2 -  2) =    -12.54822  eV     1   --> A'             
     e(  3 -  3) =    -10.28624  eV     1   --> A'             
     e(  4 -  4) =     -4.56423  eV     1   --> A''            
     e(  5 -  5) =      0.63292  eV     1   --> A''            
     e(  6 -  6) =      7.91852  eV     1   --> A'             
     e(  7 -  7) =      8.43030  eV     1   --> A''            
     e(  8 -  8) =      8.88160  eV     1   --> A'             
     e(  9 -  9) =      9.93819  eV     1   --> A'             
     e( 10 - 10) =     10.17711  eV     1   --> A''            
     e( 11 - 11) =     10.74497  eV     1   --> A'             
     e( 12 - 12) =     10.80331  eV     1   --> A'             
     e( 13 - 13) =     10.98503  eV     1   --> A''            
     e( 14 - 14) =     11.56616  eV     1   --> A''            
     e( 15 - 15) =     11.79547  eV     1   --> A'             
     e( 16 - 16) =     12.12680  eV     1   -->   ?

 **************************************************************************

 **************************************************************************

                    xk=(  -0.18180,   0.57736,   0.00000  )

     Band symmetry, C_s (m)     point group:

     e(  1 -  1) =    -18.47898  eV     1   --> A'             
     e(  2 -  2) =    -12.67805  eV     1   --> A'             
     e(  3 -  3) =     -9.88893  eV     1   --> A'             
     e(  4 -  4) =     -4.69021  eV     1   --> A''            
     e(  5 -  5) =      0.64690  eV     1   --> A''            
     e(  6 -  6) =      7.48580  eV     1   --> A'             
     e(  7 -  7) =      8.57551  eV     1   --> A''            
     e(  8 -  8) =      8.62105  eV     1   --> A'             
     e(  9 -  9) =      9.51517  eV     1   --> A'             
     e( 10 - 10) =      9.92926  eV     1   --> A''            
     e( 11 - 11) =     10.46505  eV     1   --> A'             
     e( 12 - 12) =     10.51542  eV     1   --> A'             
     e( 13 - 13) =     10.80089  eV     1   --> A''            
     e( 14 - 14) =     11.29698  eV     1   --> A''            
     e( 15 - 15) =     11.55597  eV     1   --> A'             
     e( 16 - 16) =     11.84917  eV     1   --> A'             

 **************************************************************************

 **************************************************************************

                    xk=(  -0.15150,   0.57736,   0.00000  )

     Band symmetry, C_s (m)     point group:

     e(  1 -  1) =    -18.55575  eV     1   --> A'             
     e(  2 -  2) =    -12.79074  eV     1   --> A'             
     e(  3 -  3) =     -9.49791  eV     1   --> A'             
     e(  4 -  4) =     -4.80865  eV     1   --> A''            
     e(  5 -  5) =      0.64687  eV     1   --> A''            
     e(  6 -  6) =      7.01542  eV     1   --> A'             
     e(  7 -  7) =      8.40556  eV     1   --> A'             
     e(  8 -  8) =      8.66711  eV     1   --> A''            
     e(  9 -  9) =      9.15856  eV     1   --> A'             
     e( 10 - 10) =      9.72547  eV     1   --> A''            
     e( 11 - 11) =     10.22807  eV     1   --> A'             
     e( 12 - 12) =     10.27219  eV     1   --> A'             
     e( 13 - 13) =     10.65855  eV     1   --> A''            
     e( 14 - 14) =     11.07202  eV     1   --> A''            
     e( 15 - 15) =     11.35006  eV     1   --> A'             
     e( 16 - 16) =     11.61152  eV     1   --> A'             

 **************************************************************************

 **************************************************************************

                    xk=(  -0.12120,   0.57736,   0.00000  )

     Band symmetry, C_s (m)     point group:

     e(  1 -  1) =    -18.62434  eV     1   --> A'             
     e(  2 -  2) =    -12.88435  eV     1   --> A'             
     e(  3 -  3) =     -9.13467  eV     1   --> A'             
     e(  4 -  4) =     -4.91320  eV     1   --> A''            
     e(  5 -  5) =      0.63718  eV     1   --> A''            
     e(  6 -  6) =      6.54883  eV     1   --> A'             
     e(  7 -  7) =      8.23245  eV     1   --> A'             
     e(  8 -  8) =      8.69858  eV     1   --> A''            
     e(  9 -  9) =      8.87979  eV     1   --> A'             
     e( 10 - 10) =      9.56329  eV     1   --> A''            
     e( 11 - 11) =     10.03408  eV     1   --> A'             
     e( 12 - 12) =     10.07363  eV     1   --> A'             
     e( 13 - 13) =     10.54291  eV     1   --> A''            
     e( 14 - 14) =     10.89093  eV     1   --> A''            
     e( 15 - 15) =     11.17935  eV     1   --> A'             
     e( 16 - 16) =     11.41626  eV     1   --> A'             

 **************************************************************************

 **************************************************************************

                    xk=(  -0.09090,   0.57736,   0.00000  )

     Band symmetry, C_s (m)     point group:

     e(  1 -  1) =    -18.68078  eV     1   --> A'             
     e(  2 -  2) =    -12.95750  eV     1   --> A'             
     e(  3 -  3) =     -8.82048  eV     1   --> A'             
     e(  4 -  4) =     -4.99818  eV     1   --> A''            
     e(  5 -  5) =      0.62325  eV     1   --> A''            
     e(  6 -  6) =      6.13159  eV     1   --> A'             
     e(  7 -  7) =      8.09949  eV     1   --> A'             
     e(  8 -  8) =      8.67355  eV     1   --> A'             
     e(  9 -  9) =      8.68901  eV     1   --> A''            
     e( 10 - 10) =      9.43954  eV     1   --> A''            
     e( 11 - 11) =      9.88312  eV     1   --> A'             
     e( 12 - 12) =      9.91946  eV     1   --> A'             
     e( 13 - 13) =     10.44693  eV     1   --> A''            
     e( 14 - 14) =     10.75230  eV     1   --> A''            
     e( 15 - 15) =     11.04530  eV     1   --> A'             
     e( 16 - 16) =     11.26416  eV     1   --> A'             

 **************************************************************************

 **************************************************************************

                    xk=(  -0.06060,   0.57735,   0.00000  )

     Band symmetry, C_s (m)     point group:

     e(  1 -  1) =    -18.72272  eV     1   --> A'             
     e(  2 -  2) =    -13.01011  eV     1   --> A'             
     e(  3 -  3) =     -8.57663  eV     1   --> A'             
     e(  4 -  4) =     -5.06049  eV     1   --> A''            
     e(  5 -  5) =      0.60983  eV     1   --> A''            
     e(  6 -  6) =      5.80277  eV     1   --> A'             
     e(  7 -  7) =      8.00511  eV     1   --> A'             
     e(  8 -  8) =      8.53189  eV     1   --> A'             
     e(  9 -  9) =      8.66378  eV     1   --> A''            
     e( 10 - 10) =      9.35189  eV     1   --> A''            
     e( 11 - 11) =      9.77525  eV     1   --> A'             
     e( 12 - 12) =      9.80946  eV     1   --> A'             
     e( 13 - 13) =     10.37298  eV     1   --> A''            
     e( 14 - 14) =     10.65445  eV     1   --> A''            
     e( 15 - 15) =     10.94886  eV     1   --> A'             
     e( 16 - 16) =     11.15545  eV     1   --> A'             

 **************************************************************************

 **************************************************************************

                    xk=(  -0.03030,   0.57735,   0.00000  )

     Band symmetry, C_s (m)     point group:

     e(  1 -  1) =    -18.74855  eV     1   --> A'             
     e(  2 -  2) =    -13.04164  eV     1   --> A'             
     e(  3 -  3) =     -8.42151  eV     1   --> A'             
     e(  4 -  4) =     -5.09864  eV     1   --> A''            
     e(  5 -  5) =      0.60017  eV     1   --> A''            
     e(  6 -  6) =      5.59283  eV     1   --> A'             
     e(  7 -  7) =      7.94866  eV     1   --> A'             
     e(  8 -  8) =      8.44903  eV     1   --> A'             
     e(  9 -  9) =      8.64172  eV     1   --> A''            
     e( 10 - 10) =      9.29937  eV     1   --> A''            
     e( 11 - 11) =      9.71051  eV     1   --> A'             
     e( 12 - 12) =      9.74350  eV     1   --> A'             
     e( 13 - 13) =     10.32614  eV     1   --> A''            
     e( 14 - 14) =     10.59612  eV     1   --> A''            
     e( 15 - 15) =     10.89072  eV     1   --> A'             
     e( 16 - 16) =     11.09021  eV     1   --> A'             

 **************************************************************************

 **************************************************************************

                    xk=(   0.00000,   0.57735,   0.00000  )

     point group C_2v (mm2) 
     there are  4 classes
     the character table:

       E     C2    s_v   s_v' 
A_1    1.00  1.00  1.00  1.00
A_2    1.00  1.00 -1.00 -1.00
B_1    1.00 -1.00  1.00 -1.00
B_2    1.00 -1.00 -1.00  1.00

     the symmetry operations in each class and the name of the first element:

     E        1
                                                                 
     C2       2
                                                                 
     s_v      3
                                                                 
     s_v'     4
                                                                 

     Band symmetry, C_2v (mm2)  point group:

     e(  1 -  1) =    -18.75733  eV     1   --> A_1  D_1  S_1  
     e(  2 -  2) =    -13.05225  eV     1   --> A_1  D_1  S_1  
     e(  3 -  3) =     -8.36861  eV     1   --> B_1  D_3  S_3  
     e(  4 -  4) =     -5.11173  eV     1   --> B_2  D_4  S_4  
     e(  5 -  5) =      0.59653  eV     1   --> B_2  D_4  S_4  
     e(  6 -  6) =      5.52054  eV     1   --> A_1  D_1  S_1  
     e(  7 -  7) =      7.92983  eV     1   --> A_1  D_1  S_1  
     e(  8 -  8) =      8.42173  eV     1   --> A_1  D_1  S_1  
     e(  9 -  9) =      8.63322  eV     1   --> B_2  D_4  S_4  
     e( 10 - 10) =      9.28183  eV     1   --> B_2  D_4  S_4  
     e( 11 - 11) =      9.68892  eV     1   --> A_1  D_1  S_1  
     e( 12 - 12) =      9.72152  eV     1   --> A_1  D_1  S_1  
     e( 13 - 13) =     10.31009  eV     1   --> B_2  D_4  S_4  
     e( 14 - 14) =     10.57672  eV     1   --> B_2  D_4  S_4  
     e( 15 - 15) =     10.87127  eV     1   --> A_1  D_1  S_1  
     e( 16 - 16) =     11.06846  eV     1   --> A_1  D_1  S_1  

 **************************************************************************

 **************************************************************************

                    xk=(   0.00000,   0.54528,   0.00000  )

     Band symmetry, C_2v (mm2)  point group:

     e(  1 -  1) =    -18.80137  eV     1   --> A_1  D_1  S_1  
     e(  2 -  2) =    -12.98408  eV     1   --> A_1  D_1  S_1  
     e(  3 -  3) =     -8.35276  eV     1   --> B_1  D_3  S_3  
     e(  4 -  4) =     -5.18212  eV     1   --> B_2  D_4  S_4  
     e(  5 -  5) =      0.68673  eV     1   --> B_2  D_4  S_4  
     e(  6 -  6) =      5.47934  eV     1   --> A_1  D_1  S_1  
     e(  7 -  7) =      7.44262  eV     1   --> A_1  D_1  S_1  
     e(  8 -  8) =      8.13259  eV     1   --> B_2  D_4  S_4  
     e(  9 -  9) =      8.82610  eV     1   --> A_1  D_1  S_1  
     e( 10 - 10) =      9.00120  eV     1   --> A_1  D_1  S_1  
     e( 11 - 11) =      9.47250  eV     1   --> B_2  D_4  S_4  
     e( 12 - 12) =      9.95560  eV     1   --> B_2  D_4  S_4  
     e( 13 - 13) =     10.15326  eV     1   --> A_1  D_1  S_1  
     e( 14 - 14) =     10.60725  eV     1   --> A_1  D_1  S_1  
     e( 15 - 15) =     11.21398  eV     1   --> B_2  D_4  S_4  
     e( 16 - 16) =     11.69712  eV     1   --> B_2  D_4  S_4  

 **************************************************************************

 **************************************************************************

                    xk=(   0.00000,   0.51320,   0.00000  )

     Band symmetry, C_2v (mm2)  point group:

     e(  1 -  1) =    -18.92653  eV     1   --> A_1  D_1  S_1  
     e(  2 -  2) =    -12.78485  eV     1   --> A_1  D_1  S_1  
     e(  3 -  3) =     -8.30541  eV     1   --> B_1  D_3  S_3  
     e(  4 -  4) =     -5.37870  eV     1   --> B_2  D_4  S_4  
     e(  5 -  5) =      0.94219  eV     1   --> B_2  D_4  S_4  
     e(  6 -  6) =      5.33200  eV     1   --> A_1  D_1  S_1  
     e(  7 -  7) =      6.89088  eV     1   --> A_1  D_1  S_1  
     e(  8 -  8) =      7.42664  eV     1   --> B_2  D_4  S_4  
     e(  9 -  9) =      8.04894  eV     1   --> A_1  D_1  S_1  
     e( 10 - 10) =      8.79309  eV     1   --> B_2  D_4  S_4  
     e( 11 - 11) =      9.30938  eV     1   --> A_1  D_1  S_1  
     e( 12 - 12) =      9.82815  eV     1   --> A_1  D_1  S_1  
     e( 13 - 13) =     10.43470  eV     1   --> B_2  D_4  S_4  
     e( 14 - 14) =     11.08500  eV     1   --> B_2  D_4  S_4  
     e( 15 - 15) =     11.44902  eV     1   --> A_1  D_1  S_1  
     e( 16 - 16) =     11.59107  eV     1   --> A_1  D_1  S_1  

 **************************************************************************

 **************************************************************************

                    xk=(   0.00000,   0.48113,   0.00000  )

     Band symmetry, C_2v (mm2)  point group:

     e(  1 -  1) =    -19.11623  eV     1   --> A_1  D_1  S_1  
     e(  2 -  2) =    -12.47263  eV     1   --> A_1  D_1  S_1  
     e(  3 -  3) =     -8.22705  eV     1   --> B_1  D_3  S_3  
     e(  4 -  4) =     -5.66910  eV     1   --> B_2  D_4  S_4  
     e(  5 -  5) =      1.32561  eV     1   --> B_2  D_4  S_4  
     e(  6 -  6) =      5.02737  eV     1   --> A_1  D_1  S_1  
     e(  7 -  7) =      6.50729  eV     1   --> A_1  D_1  S_1  
     e(  8 -  8) =      6.73881  eV     1   --> B_2  D_4  S_4  
     e(  9 -  9) =      7.30429  eV     1   --> A_1  D_1  S_1  
     e( 10 - 10) =      8.07440  eV     1   --> B_2  D_4  S_4  
     e( 11 - 11) =      8.62170  eV     1   --> A_1  D_1  S_1  
     e( 12 - 12) =     10.05703  eV     1   --> B_2  D_4  S_4  
     e( 13 - 13) =     10.42632  eV     1   --> A_1  D_1  S_1  
     e( 14 - 14) =     10.96490  eV     1   --> A_1  D_1  S_1  
     e( 15 - 15) =     11.53241  eV     1   --> B_2  D_4  S_4  
     e( 16 - 16) =     12.54262  eV     1   --> A_1  D_1  S_1  

 **************************************************************************

 **************************************************************************

                    xk=(   0.00000,   0.44905,   0.00000  )

     Band symmetry, C_2v (mm2)  point group:

     e(  1 -  1) =    -19.35050  eV     1   --> A_1  D_1  S_1  
     e(  2 -  2) =    -12.06922  eV     1   --> A_1  D_1  S_1  
     e(  3 -  3) =     -8.11917  eV     1   --> B_1  D_3  S_3  
     e(  4 -  4) =     -6.01812  eV     1   --> B_2  D_4  S_4  
     e(  5 -  5) =      1.79139  eV     1   --> B_2  D_4  S_4  
     e(  6 -  6) =      4.57697  eV     1   --> A_1  D_1  S_1  
     e(  7 -  7) =      6.09466  eV     1   --> B_2  D_4  S_4  
     e(  8 -  8) =      6.26111  eV     1   --> A_1  D_1  S_1  
     e(  9 -  9) =      6.64413  eV     1   --> A_1  D_1  S_1  
     e( 10 - 10) =      7.39594  eV     1   --> B_2  D_4  S_4  
     e( 11 - 11) =      7.95612  eV     1   --> A_1  D_1  S_1  
     e( 12 - 12) =      9.44239  eV     1   --> B_2  D_4  S_4  
     e( 13 - 13) =     10.02411  eV     1   --> A_1  D_1  S_1  
     e( 14 - 14) =     11.44055  eV     1   --> A_1  D_1  S_1  
     e( 15 - 15) =     11.85213  eV     1   --> B_2  D_4  S_4  
     e( 16 - 16) =     12.86176  eV     1   --> B_2  D_4  S_4  

 **************************************************************************

 **************************************************************************

                    xk=(   0.00000,   0.41698,   0.00000  )

     Band symmetry, C_2v (mm2)  point group:

     e(  1 -  1) =    -19.61014  eV     1   --> A_1  D_1  S_1  
     e(  2 -  2) =    -11.59497  eV     1   --> A_1  D_1  S_1  
     e(  3 -  3) =     -7.98236  eV     1   --> B_1  D_3  S_3  
     e(  4 -  4) =     -6.39657  eV     1   --> B_2  D_4  S_4  
     e(  5 -  5) =      2.29299  eV     1   --> B_2  D_4  S_4  
     e(  6 -  6) =      4.05988  eV     1   --> A_1  D_1  S_1  
     e(  7 -  7) =      5.50989  eV     1   --> B_2  D_4  S_4  
     e(  8 -  8) =      5.84442  eV     1   --> A_1  D_1  S_1  
     e(  9 -  9) =      6.28656  eV     1   --> A_1  D_1  S_1  
     e( 10 - 10) =      6.76731  eV     1   --> B_2  D_4  S_4  
     e( 11 - 11) =      7.36119  eV     1   --> A_1  D_1  S_1  
     e( 12 - 12) =      8.84324  eV     1   --> B_2  D_4  S_4  
     e( 13 - 13) =      9.42281  eV     1   --> A_1  D_1  S_1  
     e( 14 - 14) =     11.53681  eV     1   --> B_2  D_4  S_4  
     e( 15 - 15) =     11.77322  eV     1   --> A_1  D_1  S_1  
     e( 16 - 16) =     12.78648  eV     1   --> A_1  D_1  S_1  

 **************************************************************************

 **************************************************************************

                    xk=(   0.00000,   0.38490,   0.00000  )

     Band symmetry, C_2v (mm2)  point group:

     e(  1 -  1) =    -19.88083  eV     1   --> A_1  D_1  S_1  
     e(  2 -  2) =    -11.06786  eV     1   --> A_1  D_1  S_1  
     e(  3 -  3) =     -7.81895  eV     1   --> B_1  D_3  S_3  
     e(  4 -  4) =     -6.78349  eV     1   --> B_2  D_4  S_4  
     e(  5 -  5) =      2.76860  eV     1   --> B_2  D_4  S_4  
     e(  6 -  6) =      3.53478  eV     1   --> A_1  D_1  S_1  
     e(  7 -  7) =      5.01126  eV     1   --> B_2  D_4  S_4  
     e(  8 -  8) =      5.26825  eV     1   --> A_1  D_1  S_1  
     e(  9 -  9) =      6.11037  eV     1   --> A_1  D_1  S_1  
     e( 10 - 10) =      6.19777  eV     1   --> B_2  D_4  S_4  
     e( 11 - 11) =      6.89211  eV     1   --> A_1  D_1  S_1  
     e( 12 - 12) =      8.28519  eV     1   --> B_2  D_4  S_4  
     e( 13 - 13) =      8.85241  eV     1   --> A_1  D_1  S_1  
     e( 14 - 14) =     11.07169  eV     1   --> B_2  D_4  S_4  
     e( 15 - 15) =     11.46788  eV     1   --> A_1  D_1  S_1  
     e( 16 - 16) =     12.97360  eV     1   --> A_1  D_1  S_1  

 **************************************************************************

 **************************************************************************

                    xk=(   0.00000,   0.35283,   0.00000  )

     Band symmetry, C_2v (mm2)  point group:

     e(  1 -  1) =    -20.15114  eV     1   --> A_1  D_1  S_1  
     e(  2 -  2) =    -10.50254  eV     1   --> A_1  D_1  S_1  
     e(  3 -  3) =     -7.63129  eV     1   --> B_1  D_3  S_3  
     e(  4 -  4) =     -7.16467  eV     1   --> B_2  D_4  S_4  
     e(  5 -  5) =      3.02912  eV     1   --> A_1  D_1  S_1  
     e(  6 -  6) =      3.10700  eV     1   --> B_2  D_4  S_4  
     e(  7 -  7) =      4.66138  eV     1   --> B_2  D_4  S_4  
     e(  8 -  8) =      4.71536  eV     1   --> A_1  D_1  S_1  
     e(  9 -  9) =      5.71034  eV     1   --> B_2  D_4  S_4  
     e( 10 - 10) =      5.81294  eV     1   --> A_1  D_1  S_1  
     e( 11 - 11) =      6.63941  eV     1   --> A_1  D_1  S_1  
     e( 12 - 12) =      7.77982  eV     1   --> B_2  D_4  S_4  
     e( 13 - 13) =      8.33105  eV     1   --> A_1  D_1  S_1  
     e( 14 - 14) =     10.60704  eV     1   --> B_2  D_4  S_4  
     e( 15 - 15) =     10.98845  eV     1   --> A_1  D_1  S_1  
     e( 16 - 16) =     12.97069  eV     1   --> A_1  D_1  S_1  

 **************************************************************************

 **************************************************************************

                    xk=(   0.00000,   0.32075,   0.00000  )

     Band symmetry, C_2v (mm2)  point group:

     e(  1 -  1) =    -20.41301  eV     1   --> A_1  D_1  S_1  
     e(  2 -  2) =     -9.91251  eV     1   --> A_1  D_1  S_1  
     e(  3 -  3) =     -7.52971  eV     1   --> B_2  D_4  S_4  
     e(  4 -  4) =     -7.42289  eV     1   --> B_1  D_3  S_3  
     e(  5 -  5) =      2.55513  eV     1   --> A_1  D_1  S_1  
     e(  6 -  6) =      3.14783  eV     1   --> B_2  D_4  S_4  
     e(  7 -  7) =      4.20586  eV     1   --> A_1  D_1  S_1  
     e(  8 -  8) =      4.50848  eV     1   --> B_2  D_4  S_4  
     e(  9 -  9) =      5.38625  eV     1   --> B_2  D_4  S_4  
     e( 10 - 10) =      5.40596  eV     1   --> A_1  D_1  S_1  
     e( 11 - 11) =      6.55059  eV     1   --> A_1  D_1  S_1  
     e( 12 - 12) =      7.34165  eV     1   --> B_2  D_4  S_4  
     e( 13 - 13) =      7.87107  eV     1   --> A_1  D_1  S_1  
     e( 14 - 14) =     10.17512  eV     1   --> B_2  D_4  S_4  
     e( 15 - 15) =     10.50313  eV     1   --> A_1  D_1  S_1  
     e( 16 - 16) =     12.65849  eV     1   --> B_1  D_3  S_3  

 **************************************************************************

 **************************************************************************

                    xk=(   0.00000,   0.28868,   0.00000  )

     Band symmetry, C_2v (mm2)  point group:

     e(  1 -  1) =    -20.66047  eV     1   --> A_1  D_1  S_1  
     e(  2 -  2) =     -9.30964  eV     1   --> A_1  D_1  S_1  
     e(  3 -  3) =     -7.87182  eV     1   --> B_2  D_4  S_4  
     e(  4 -  4) =     -7.19746  eV     1   --> B_1  D_3  S_3  
     e(  5 -  5) =      2.11870  eV     1   --> A_1  D_1  S_1  
     e(  6 -  6) =      2.92737  eV     1   --> B_2  D_4  S_4  
     e(  7 -  7) =      3.74320  eV     1   --> A_1  D_1  S_1  
     e(  8 -  8) =      4.32505  eV     1   --> B_2  D_4  S_4  
     e(  9 -  9) =      4.98690  eV     1   --> A_1  D_1  S_1  
     e( 10 - 10) =      5.36904  eV     1   --> B_2  D_4  S_4  
     e( 11 - 11) =      6.49708  eV     1   --> A_1  D_1  S_1  
     e( 12 - 12) =      7.00109  eV     1   --> B_2  D_4  S_4  
     e( 13 - 13) =      7.49519  eV     1   --> A_1  D_1  S_1  
     e( 14 - 14) =      9.79024  eV     1   --> B_2  D_4  S_4  
     e( 15 - 15) =     10.04192  eV     1   --> A_1  D_1  S_1  
     e( 16 - 16) =     11.83368  eV     1   --> B_1  D_3  S_3  

 **************************************************************************

 **************************************************************************

                    xk=(   0.00000,   0.25660,   0.00000  )

     Band symmetry, C_2v (mm2)  point group:

     e(  1 -  1) =    -20.88925  eV     1   --> A_1  D_1  S_1  
     e(  2 -  2) =     -8.70507  eV     1   --> A_1  D_1  S_1  
     e(  3 -  3) =     -8.18622  eV     1   --> B_2  D_4  S_4  
     e(  4 -  4) =     -6.95984  eV     1   --> B_1  D_3  S_3  
     e(  5 -  5) =      1.72294  eV     1   --> A_1  D_1  S_1  
     e(  6 -  6) =      2.62066  eV     1   --> B_2  D_4  S_4  
     e(  7 -  7) =      3.32842  eV     1   --> A_1  D_1  S_1  
     e(  8 -  8) =      4.02098  eV     1   --> B_2  D_4  S_4  
     e(  9 -  9) =      4.59435  eV     1   --> A_1  D_1  S_1  
     e( 10 - 10) =      5.48677  eV     1   --> B_2  D_4  S_4  
     e( 11 - 11) =      6.39441  eV     1   --> A_1  D_1  S_1  
     e( 12 - 12) =      6.82434  eV     1   --> B_2  D_4  S_4  
     e( 13 - 13) =      7.24509  eV     1   --> A_1  D_1  S_1  
     e( 14 - 14) =      9.46395  eV     1   --> B_2  D_4  S_4  
     e( 15 - 15) =      9.61313  eV     1   --> A_1  D_1  S_1  
     e( 16 - 16) =     11.03840  eV     1   --> B_1  D_3  S_3  

 **************************************************************************

 **************************************************************************

                    xk=(   0.00000,   0.22453,   0.00000  )

     Band symmetry, C_2v (mm2)  point group:

     e(  1 -  1) =    -21.09637  eV     1   --> A_1  D_1  S_1  
     e(  2 -  2) =     -8.46949  eV     1   --> B_2  D_4  S_4  
     e(  3 -  3) =     -8.11230  eV     1   --> A_1  D_1  S_1  
     e(  4 -  4) =     -6.71669  eV     1   --> B_1  D_3  S_3  
     e(  5 -  5) =      1.36953  eV     1   --> A_1  D_1  S_1  
     e(  6 -  6) =      2.31183  eV     1   --> B_2  D_4  S_4  
     e(  7 -  7) =      2.96194  eV     1   --> A_1  D_1  S_1  
     e(  8 -  8) =      3.70190  eV     1   --> B_2  D_4  S_4  
     e(  9 -  9) =      4.24031  eV     1   --> A_1  D_1  S_1  
     e( 10 - 10) =      5.47082  eV     1   --> B_2  D_4  S_4  
     e( 11 - 11) =      6.20514  eV     1   --> A_1  D_1  S_1  
     e( 12 - 12) =      6.86557  eV     1   --> B_2  D_4  S_4  
     e( 13 - 13) =      7.14251  eV     1   --> A_1  D_1  S_1  
     e( 14 - 14) =      9.20984  eV     1   --> B_2  D_4  S_4  
     e( 15 - 15) =      9.21960  eV     1   --> A_1  D_1  S_1  
     e( 16 - 16) =     10.28728  eV     1   --> B_1  D_3  S_3  

 **************************************************************************

 **************************************************************************

                    xk=(   0.00000,   0.19245,   0.00000  )

     Band symmetry, C_2v (mm2)  point group:

     e(  1 -  1) =    -21.27930  eV     1   --> A_1  D_1  S_1  
     e(  2 -  2) =     -8.71870  eV     1   --> B_2  D_4  S_4  
     e(  3 -  3) =     -7.54420  eV     1   --> A_1  D_1  S_1  
     e(  4 -  4) =     -6.47494  eV     1   --> B_1  D_3  S_3  
     e(  5 -  5) =      1.05960  eV     1   --> A_1  D_1  S_1  
     e(  6 -  6) =      2.02924  eV     1   --> B_2  D_4  S_4  
     e(  7 -  7) =      2.64397  eV     1   --> A_1  D_1  S_1  
     e(  8 -  8) =      3.40939  eV     1   --> B_2  D_4  S_4  
     e(  9 -  9) =      3.92933  eV     1   --> A_1  D_1  S_1  
     e( 10 - 10) =      5.32307  eV     1   --> B_2  D_4  S_4  
     e( 11 - 11) =      5.96918  eV     1   --> A_1  D_1  S_1  
     e( 12 - 12) =      7.02637  eV     1   --> B_2  D_4  S_4  
     e( 13 - 13) =      7.13996  eV     1   --> A_1  D_1  S_1  
     e( 14 - 14) =      8.86388  eV     1   --> A_1  D_1  S_1  
     e( 15 - 15) =      9.04434  eV     1   --> B_2  D_4  S_4  
     e( 16 - 16) =      9.59555  eV     1   --> B_1  D_3  S_3  

 **************************************************************************

 **************************************************************************

                    xk=(   0.00000,   0.16038,   0.00000  )

     Band symmetry, C_2v (mm2)  point group:

     e(  1 -  1) =    -21.43646  eV     1   --> A_1  D_1  S_1  
     e(  2 -  2) =     -8.93241  eV     1   --> B_2  D_4  S_4  
     e(  3 -  3) =     -7.01630  eV     1   --> A_1  D_1  S_1  
     e(  4 -  4) =     -6.24380  eV     1   --> B_1  D_3  S_3  
     e(  5 -  5) =      0.79396  eV     1   --> A_1  D_1  S_1  
     e(  6 -  6) =      1.78344  eV     1   --> B_2  D_4  S_4  
     e(  7 -  7) =      2.37463  eV     1   --> A_1  D_1  S_1  
     e(  8 -  8) =      3.15580  eV     1   --> B_2  D_4  S_4  
     e(  9 -  9) =      3.66351  eV     1   --> A_1  D_1  S_1  
     e( 10 - 10) =      5.13769  eV     1   --> B_2  D_4  S_4  
     e( 11 - 11) =      5.73602  eV     1   --> A_1  D_1  S_1  
     e( 12 - 12) =      7.16784  eV     1   --> B_2  D_4  S_4  
     e( 13 - 13) =      7.18290  eV     1   --> A_1  D_1  S_1  
     e( 14 - 14) =      8.54822  eV     1   --> A_1  D_1  S_1  
     e( 15 - 15) =      8.97561  eV     1   --> B_1  D_3  S_3  
     e( 16 - 16) =      8.97890  eV     1   --> B_2  D_4  S_4  

 **************************************************************************

 **************************************************************************

                    xk=(   0.00000,   0.12830,   0.00000  )

     Band symmetry, C_2v (mm2)  point group:

     e(  1 -  1) =    -21.56663  eV     1   --> A_1  D_1  S_1  
     e(  2 -  2) =     -9.10861  eV     1   --> B_2  D_4  S_4  
     e(  3 -  3) =     -6.54609  eV     1   --> A_1  D_1  S_1  
     e(  4 -  4) =     -6.03427  eV     1   --> B_1  D_3  S_3  
     e(  5 -  5) =      0.57345  eV     1   --> A_1  D_1  S_1  
     e(  6 -  6) =      1.57923  eV     1   --> B_2  D_4  S_4  
     e(  7 -  7) =      2.15402  eV     1   --> A_1  D_1  S_1  
     e(  8 -  8) =      2.94575  eV     1   --> B_2  D_4  S_4  
     e(  9 -  9) =      3.44407  eV     1   --> A_1  D_1  S_1  
     e( 10 - 10) =      4.96362  eV     1   --> B_2  D_4  S_4  
     e( 11 - 11) =      5.52998  eV     1   --> A_1  D_1  S_1  
     e( 12 - 12) =      7.23664  eV     1   --> B_2  D_4  S_4  
     e( 13 - 13) =      7.24291  eV     1   --> A_1  D_1  S_1  
     e( 14 - 14) =      8.27568  eV     1   --> A_1  D_1  S_1  
     e( 15 - 15) =      8.44210  eV     1   --> B_1  D_3  S_3  
     e( 16 - 16) =      9.00133  eV     1   --> B_2  D_4  S_4  

 **************************************************************************

 **************************************************************************

                    xk=(   0.00000,   0.09623,   0.00000  )

     Band symmetry, C_2v (mm2)  point group:

     e(  1 -  1) =    -21.66867  eV     1   --> A_1  D_1  S_1  
     e(  2 -  2) =     -9.24677  eV     1   --> B_2  D_4  S_4  
     e(  3 -  3) =     -6.15137  eV     1   --> A_1  D_1  S_1  
     e(  4 -  4) =     -5.85471  eV     1   --> B_1  D_3  S_3  
     e(  5 -  5) =      0.39924  eV     1   --> A_1  D_1  S_1  
     e(  6 -  6) =      1.41888  eV     1   --> B_2  D_4  S_4  
     e(  7 -  7) =      1.98224  eV     1   --> A_1  D_1  S_1  
     e(  8 -  8) =      2.78121  eV     1   --> B_2  D_4  S_4  
     e(  9 -  9) =      3.27200  eV     1   --> A_1  D_1  S_1  
     e( 10 - 10) =      4.81961  eV     1   --> B_2  D_4  S_4  
     e( 11 - 11) =      5.36208  eV     1   --> A_1  D_1  S_1  
     e( 12 - 12) =      7.24515  eV     1   --> B_2  D_4  S_4  
     e( 13 - 13) =      7.30605  eV     1   --> A_1  D_1  S_1  
     e( 14 - 14) =      8.00896  eV     1   --> B_1  D_3  S_3  
     e( 15 - 15) =      8.05070  eV     1   --> A_1  D_1  S_1  
     e( 16 - 16) =      9.07141  eV     1   --> B_2  D_4  S_4  

 **************************************************************************

 **************************************************************************

                    xk=(   0.00000,   0.06415,   0.00000  )

     Band symmetry, C_2v (mm2)  point group:

     e(  1 -  1) =    -21.74201  eV     1   --> A_1  D_1  S_1  
     e(  2 -  2) =     -9.34572  eV     1   --> B_2  D_4  S_4  
     e(  3 -  3) =     -5.85235  eV     1   --> A_1  D_1  S_1  
     e(  4 -  4) =     -5.71681  eV     1   --> B_1  D_3  S_3  
     e(  5 -  5) =      0.27282  eV     1   --> A_1  D_1  S_1  
     e(  6 -  6) =      1.30373  eV     1   --> B_2  D_4  S_4  
     e(  7 -  7) =      1.85942  eV     1   --> A_1  D_1  S_1  
     e(  8 -  8) =      2.66321  eV     1   --> B_2  D_4  S_4  
     e(  9 -  9) =      3.14819  eV     1   --> A_1  D_1  S_1  
     e( 10 - 10) =      4.71357  eV     1   --> B_2  D_4  S_4  
     e( 11 - 11) =      5.23822  eV     1   --> A_1  D_1  S_1  
     e( 12 - 12) =      7.22678  eV     1   --> B_2  D_4  S_4  
     e( 13 - 13) =      7.36332  eV     1   --> A_1  D_1  S_1  
     e( 14 - 14) =      7.68856  eV     1   --> B_1  D_3  S_3  
     e( 15 - 15) =      7.87840  eV     1   --> A_1  D_1  S_1  
     e( 16 - 16) =      9.14648  eV     1   --> B_2  D_4  S_4  

 **************************************************************************

 **************************************************************************

                    xk=(   0.00000,   0.03208,   0.00000  )

     Band symmetry, C_2v (mm2)  point group:

     e(  1 -  1) =    -21.78614  eV     1   --> A_1  D_1  S_1  
     e(  2 -  2) =     -9.40526  eV     1   --> B_2  D_4  S_4  
     e(  3 -  3) =     -5.66447  eV     1   --> A_1  D_1  S_1  
     e(  4 -  4) =     -5.62956  eV     1   --> B_1  D_3  S_3  
     e(  5 -  5) =      0.19596  eV     1   --> A_1  D_1  S_1  
     e(  6 -  6) =      1.23441  eV     1   --> B_2  D_4  S_4  
     e(  7 -  7) =      1.78566  eV     1   --> A_1  D_1  S_1  
     e(  8 -  8) =      2.59224  eV     1   --> B_2  D_4  S_4  
     e(  9 -  9) =      3.07348  eV     1   --> A_1  D_1  S_1  
     e( 10 - 10) =      4.64893  eV     1   --> B_2  D_4  S_4  
     e( 11 - 11) =      5.16228  eV     1   --> A_1  D_1  S_1  
     e( 12 - 12) =      7.20683  eV     1   --> B_2  D_4  S_4  
     e( 13 - 13) =      7.40716  eV     1   --> A_1  D_1  S_1  
     e( 14 - 14) =      7.49163  eV     1   --> B_1  D_3  S_3  
     e( 15 - 15) =      7.76574  eV     1   --> A_1  D_1  S_1  
     e( 16 - 16) =      9.19927  eV     1   --> B_2  D_4  S_4  

 **************************************************************************

 **************************************************************************

                    xk=(   0.00000,   0.00000,   0.00000  )

     point group D_3h (-62m)
     there are  6 classes
     the character table:

       E     2C3   3C2   s_h   2S3   3s_v 
A'_1   1.00  1.00  1.00  1.00  1.00  1.00
A'_2   1.00  1.00 -1.00  1.00  1.00 -1.00
E'     2.00 -1.00  0.00  2.00 -1.00  0.00
A''1   1.00  1.00  1.00 -1.00 -1.00 -1.00
A''2   1.00  1.00 -1.00 -1.00 -1.00  1.00
E''    2.00 -1.00  0.00 -2.00  1.00  0.00

     the symmetry operations in each class and the name of the first element:

     E        1
                                                                 
     2C3      3    4
                                                                 
     3C2      2    6    5
                                                                 
     s_h      7
                                                                 
     2S3      9   10
                                                                 
     3s_v     8   11   12
                                                                 

     Band symmetry, D_3h (-62m) point group:

     e(  1 -  1) =    -21.80075  eV     1   --> A'_1           
     e(  2 -  2) =     -9.42489  eV     1   --> A''2           
     e(  3 -  4) =     -5.59947  eV     2   --> E'             
     e(  5 -  5) =      0.17016  eV     1   --> A'_1           
     e(  6 -  6) =      1.21132  eV     1   --> A''2           
     e(  7 -  7) =      1.76106  eV     1   --> A'_1           
     e(  8 -  8) =      2.56859  eV     1   --> A''2           
     e(  9 -  9) =      3.04851  eV     1   --> A'_1           
     e( 10 - 10) =      4.62731  eV     1   --> A''2           
     e( 11 - 11) =      5.13672  eV     1   --> A'_1           
     e( 12 - 12) =      7.19912  eV     1   --> A''2           
     e( 13 - 14) =      7.42560  eV     2   --> E'             
     e( 15 - 15) =      7.72502  eV     1   --> A'_1           
     e( 16 - 16) =      9.21839  eV     1   --> A''2           

 **************************************************************************

     BANDS        :     11.55s CPU     11.63s WALL


   This run was terminated on:  10:25:48   5Apr2024            

=------------------------------------------------------------------------------=
   JOB DONE.
=------------------------------------------------------------------------------=
