
     Program BANDS v.7.2 starts on 16Apr2024 at 10:40:44 

     This program is part of the open-source Quantum ESPRESSO suite
     for quantum simulation of materials; please cite
         "P. Giannozzi et al., J. Phys.:Condens. Matter 21 395502 (2009);
         "P. Giannozzi et al., J. Phys.:Condens. Matter 29 465901 (2017);
         "P. Giannozzi et al., J. Chem. Phys. 152 154105 (2020);
          URL http://www.quantum-espresso.org", 
     in publications or presentations arising from this work. More details at
     http://www.quantum-espresso.org/quote

     Parallel version (MPI & OpenMP), running on       8 processor cores
     Number of MPI processes:                 8
     Threads/MPI process:                     1

     MPI processes distributed on     1 nodes
     R & G space division:  proc/nbgrp/npool/nimage =       8
     0 MiB available memory on the printing compute node when the environment starts


     Reading xml data from directory:

     ./tmp/hBN_1L_PBE_vdW.save/

     IMPORTANT: XC functional enforced from input :
     Exchange-correlation= VDW-DF2-B86R
                           (   1   4  26   0   2   0   0)
     Any further DFT definition will be discarded
     Please, verify this is what you really want


     Parallelization info
     --------------------
     sticks:   dense  smooth     PW     G-vecs:    dense   smooth      PW
     Min          45      45     15                 4333     4333     755
     Max          46      46     16                 4356     4356     767
     Sum         367     367    121                34803    34803    6103

     Using Slab Decomposition



     %%%%%%%%%%%%%%%%%%%%%%%%%%%%%%%%%%%%%%%%%%%%%%%%%%%%%%%%%%%%%%%%%%%%%%%%
     %                                                                      %
     % You are using vdW-DF, which was implemented by the Thonhauser group. %
     % Please cite the following two papers that made this development      %
     % possible and the two reviews that describe the various versions:     %
     %                                                                      %
     %   T. Thonhauser et al., PRL 115, 136402 (2015).                      %
     %   T. Thonhauser et al., PRB 76, 125112 (2007).                       %
     %   K. Berland et al., Rep. Prog. Phys. 78, 066501 (2015).             %
     %   D.C. Langreth et al., J. Phys.: Condens. Matter 21, 084203 (2009). %
     %                                                                      %
     % If you are calculating stress with vdW-DF, please also cite:         %
     %                                                                      %
     %   R. Sabatini et al., J. Phys.: Condens. Matter 24, 424209 (2012).   %
     %                                                                      %
     %%%%%%%%%%%%%%%%%%%%%%%%%%%%%%%%%%%%%%%%%%%%%%%%%%%%%%%%%%%%%%%%%%%%%%%%

     %%%%%%%%%%%%%%%%%%%%%%%%%%%%%%%%%%%%%%%%%%%%%%%%%%%%%%%%%%%%%%%%%%%%%%%%
     %                                                                      %
     %  vdW-DF NEWS:                                                        %
     %                                                                      %
     %  * vdW-DF3 is now available. DOI: 10.1021/acs.jctc.0c00471           %
     %    use with input_dft = 'vdW-DF3-opt1' or 'vdW-DF3-opt2'             %
     %                                                                      %
     %  * Unscreened and range-separated hybrid vdW-DF-cx functionals       %
     %    DOI: 10.1063/1.4986522 and 10.1088/1361-648X/ac2ad2               %
     %    use with input_dft = 'vdW-DF-cx0'    and 'vdW-DF-ahcx'            %
     %  * Unscreened and range-separated hybrid vdW-DF2-b86r functionals    %
     %    DOI: 10.1063/1.4986522 and DOI: 10.1103/PhysRevX.12.041003        %
     %    use with input_dft = 'vdW-DF2-br0' and 'vdW-DF2-ahbr'             %
     %                                                                      %
     %%%%%%%%%%%%%%%%%%%%%%%%%%%%%%%%%%%%%%%%%%%%%%%%%%%%%%%%%%%%%%%%%%%%%%%%


     Reading collected, re-writing distributed wavefunctions
     high-symmetry point:  0.0000 0.0000 0.0000   x coordinate   0.0000
     high-symmetry point: -0.3333 0.5774 0.0000   x coordinate   0.6667
     high-symmetry point:  0.0000 0.5774 0.0000   x coordinate   1.0000
     high-symmetry point:  0.0000 0.0000 0.0000   x coordinate   1.5773

     Plottable bands (eV) written to file Bande_hBN_1L_PBE_vdW.dat.gnu
     Bands written to file Bande_hBN_1L_PBE_vdW.dat

 **************************************************************************

                    xk=(   0.00000,   0.00000,   0.00000  )

     point group D_3h (-62m)
     there are  6 classes
     the character table:

       E     2C3   3C2   s_h   2S3   3s_v 
A'_1   1.00  1.00  1.00  1.00  1.00  1.00
A'_2   1.00  1.00 -1.00  1.00  1.00 -1.00
E'     2.00 -1.00  0.00  2.00 -1.00  0.00
A''1   1.00  1.00  1.00 -1.00 -1.00 -1.00
A''2   1.00  1.00 -1.00 -1.00 -1.00  1.00
E''    2.00 -1.00  0.00 -2.00  1.00  0.00

     the symmetry operations in each class and the name of the first element:

     E        1
                                                                 
     2C3      3    4
                                                                 
     3C2      2    6    5
                                                                 
     s_h      7
                                                                 
     2S3      9   10
                                                                 
     3s_v     8   11   12
                                                                 

     Band symmetry, D_3h (-62m) point group:

     e(  1 -  1) =    -21.21542  eV     1   --> A'_1           
     e(  2 -  2) =     -8.83950  eV     1   --> A''2           
     e(  3 -  4) =     -5.01412  eV     2   --> E'             
     e(  5 -  5) =      0.75084  eV     1   --> A'_1           
     e(  6 -  6) =      1.84709  eV     1   --> A''2           
     e(  7 -  7) =      2.58235  eV     1   --> A'_1           
     e(  8 -  8) =      4.28862  eV     1   --> A''2           
     e(  9 -  9) =      5.00818  eV     1   --> A'_1           
     e( 10 - 10) =      7.69126  eV     1   --> A''2           
     e( 11 - 12) =      8.01152  eV     2   --> E'             
     e( 13 - 13) =      8.36112  eV     1   --> A'_1           
     e( 14 - 14) =     10.10156  eV     1   --> A''2           
     e( 15 - 15) =     11.06452  eV     1   --> A'_1           
     e( 16 - 16) =     14.15167  eV     1   --> A''2           

 **************************************************************************

 **************************************************************************

                    xk=(  -0.01587,   0.02749,   0.00000  )

     point group C_s (m)    
     there are  2 classes
     the character table:

       E     s    
A'     1.00  1.00
A''    1.00 -1.00

     the symmetry operations in each class and the name of the first element:

     E        1
                                                                 
     s        2
                                                                 

     Band symmetry, C_s (m)     point group:

     e(  1 -  1) =    -21.20119  eV     1   --> A'             
     e(  2 -  2) =     -8.82064  eV     1   --> A''            
     e(  3 -  3) =     -5.07767  eV     1   --> A'             
     e(  4 -  4) =     -5.04413  eV     1   --> A'             
     e(  5 -  5) =      0.77609  eV     1   --> A'             
     e(  6 -  6) =      1.86944  eV     1   --> A''            
     e(  7 -  7) =      2.60660  eV     1   --> A'             
     e(  8 -  8) =      4.31017  eV     1   --> A''            
     e(  9 -  9) =      5.03330  eV     1   --> A'             
     e( 10 - 10) =      7.69535  eV     1   --> A''            
     e( 11 - 11) =      7.99313  eV     1   --> A'             
     e( 12 - 12) =      8.07472  eV     1   --> A'             
     e( 13 - 13) =      8.40420  eV     1   --> A'             
     e( 14 - 14) =     10.07837  eV     1   --> A''            
     e( 15 - 15) =     11.10106  eV     1   --> A'             
     e( 16 - 16) =     14.16219  eV     1   --> A''            

 **************************************************************************

 **************************************************************************

                    xk=(  -0.03174,   0.05499,   0.00000  )

     Band symmetry, C_s (m)     point group:

     e(  1 -  1) =    -21.15796  eV     1   --> A'             
     e(  2 -  2) =     -8.76229  eV     1   --> A''            
     e(  3 -  3) =     -5.26047  eV     1   --> A'             
     e(  4 -  4) =     -5.13121  eV     1   --> A'             
     e(  5 -  5) =      0.85139  eV     1   --> A'             
     e(  6 -  6) =      1.93681  eV     1   --> A''            
     e(  7 -  7) =      2.67926  eV     1   --> A'             
     e(  8 -  8) =      4.37501  eV     1   --> A''            
     e(  9 -  9) =      5.10819  eV     1   --> A'             
     e( 10 - 10) =      7.70558  eV     1   --> A''            
     e( 11 - 11) =      7.95771  eV     1   --> A'             
     e( 12 - 12) =      8.24679  eV     1   --> A'             
     e( 13 - 13) =      8.53338  eV     1   --> A'             
     e( 14 - 14) =     10.01547  eV     1   --> A''            
     e( 15 - 15) =     11.20989  eV     1   --> A'             
     e( 16 - 16) =     14.19575  eV     1   --> A''            

 **************************************************************************

 **************************************************************************

                    xk=(  -0.04761,   0.08248,   0.00000  )

     Band symmetry, C_s (m)     point group:

     e(  1 -  1) =    -21.08606  eV     1   --> A'             
     e(  2 -  2) =     -8.66511  eV     1   --> A''            
     e(  3 -  3) =     -5.54687  eV     1   --> A'             
     e(  4 -  4) =     -5.27324  eV     1   --> A'             
     e(  5 -  5) =      0.97533  eV     1   --> A'             
     e(  6 -  6) =      2.04874  eV     1   --> A''            
     e(  7 -  7) =      2.80006  eV     1   --> A'             
     e(  8 -  8) =      4.48214  eV     1   --> A''            
     e(  9 -  9) =      5.23117  eV     1   --> A'             
     e( 10 - 10) =      7.70914  eV     1   --> A''            
     e( 11 - 11) =      7.92982  eV     1   --> A'             
     e( 12 - 12) =      8.45585  eV     1   --> A'             
     e( 13 - 13) =      8.78516  eV     1   --> A'             
     e( 14 - 14) =      9.92680  eV     1   --> A''            
     e( 15 - 15) =     11.38815  eV     1   --> A'             
     e( 16 - 16) =     14.25590  eV     1   --> A''            

 **************************************************************************

 **************************************************************************

                    xk=(  -0.06349,   0.10998,   0.00000  )

     Band symmetry, C_s (m)     point group:

     e(  1 -  1) =    -20.98603  eV     1   --> A'             
     e(  2 -  2) =     -8.52964  eV     1   --> A''            
     e(  3 -  3) =     -5.91944  eV     1   --> A'             
     e(  4 -  4) =     -5.46684  eV     1   --> A'             
     e(  5 -  5) =      1.14646  eV     1   --> A'             
     e(  6 -  6) =      2.20452  eV     1   --> A''            
     e(  7 -  7) =      2.96871  eV     1   --> A'             
     e(  8 -  8) =      4.62968  eV     1   --> A''            
     e(  9 -  9) =      5.40053  eV     1   --> A'             
     e( 10 - 10) =      7.68346  eV     1   --> A''            
     e( 11 - 11) =      7.92392  eV     1   --> A'             
     e( 12 - 12) =      8.64803  eV     1   --> A'             
     e( 13 - 13) =      9.18106  eV     1   --> A'             
     e( 14 - 14) =      9.83950  eV     1   --> A''            
     e( 15 - 15) =     11.63535  eV     1   --> A'             
     e( 16 - 16) =     14.34658  eV     1   --> A''            

 **************************************************************************

 **************************************************************************

                    xk=(  -0.07936,   0.13747,   0.00000  )

     Band symmetry, C_s (m)     point group:

     e(  1 -  1) =    -20.85851  eV     1   --> A'             
     e(  2 -  2) =     -8.35685  eV     1   --> A''            
     e(  3 -  3) =     -6.35570  eV     1   --> A'             
     e(  4 -  4) =     -5.70652  eV     1   --> A'             
     e(  5 -  5) =      1.36364  eV     1   --> A'             
     e(  6 -  6) =      2.40280  eV     1   --> A''            
     e(  7 -  7) =      3.18496  eV     1   --> A'             
     e(  8 -  8) =      4.81369  eV     1   --> A''            
     e(  9 -  9) =      5.61494  eV     1   --> A'             
     e( 10 - 10) =      7.59859  eV     1   --> A''            
     e( 11 - 11) =      7.94976  eV     1   --> A'             
     e( 12 - 12) =      8.84282  eV     1   --> A'             
     e( 13 - 13) =      9.66634  eV     1   --> A'             
     e( 14 - 14) =      9.79204  eV     1   --> A''            
     e( 15 - 15) =     11.95528  eV     1   --> A'             
     e( 16 - 16) =     14.46968  eV     1   --> A''            

 **************************************************************************

 **************************************************************************

                    xk=(  -0.09523,   0.16496,   0.00000  )

     Band symmetry, C_s (m)     point group:

     e(  1 -  1) =    -20.70434  eV     1   --> A'             
     e(  2 -  2) =     -8.14746  eV     1   --> A''            
     e(  3 -  3) =     -6.83587  eV     1   --> A'             
     e(  4 -  4) =     -5.98649  eV     1   --> A'             
     e(  5 -  5) =      1.62620  eV     1   --> A'             
     e(  6 -  6) =      2.64136  eV     1   --> A''            
     e(  7 -  7) =      3.44867  eV     1   --> A'             
     e(  8 -  8) =      5.02616  eV     1   --> A''            
     e(  9 -  9) =      5.87355  eV     1   --> A'             
     e( 10 - 10) =      7.43517  eV     1   --> A''            
     e( 11 - 11) =      8.01366  eV     1   --> A'             
     e( 12 - 12) =      9.05476  eV     1   --> A'             
     e( 13 - 13) =      9.82172  eV     1   --> A''            
     e( 14 - 14) =     10.18882  eV     1   --> A'             
     e( 15 - 15) =     12.35707  eV     1   --> A'             
     e( 16 - 16) =     14.62290  eV     1   --> A''            

 **************************************************************************

 **************************************************************************

                    xk=(  -0.11110,   0.19246,   0.00000  )

     Band symmetry, C_s (m)     point group:

     e(  1 -  1) =    -20.52458  eV     1   --> A'             
     e(  2 -  2) =     -7.90276  eV     1   --> A''            
     e(  3 -  3) =     -7.34276  eV     1   --> A'             
     e(  4 -  4) =     -6.29966  eV     1   --> A'             
     e(  5 -  5) =      1.93382  eV     1   --> A'             
     e(  6 -  6) =      2.91584  eV     1   --> A''            
     e(  7 -  7) =      3.75974  eV     1   --> A'             
     e(  8 -  8) =      5.24837  eV     1   --> A''            
     e(  9 -  9) =      6.17584  eV     1   --> A'             
     e( 10 - 10) =      7.20986  eV     1   --> A''            
     e( 11 - 11) =      8.11991  eV     1   --> A'             
     e( 12 - 12) =      9.28702  eV     1   --> A'             
     e( 13 - 13) =      9.94486  eV     1   --> A''            
     e( 14 - 14) =     10.70995  eV     1   --> A'             
     e( 15 - 15) =     12.84960  eV     1   --> A'             
     e( 16 - 16) =     14.79559  eV     1   --> A''            

 **************************************************************************

 **************************************************************************

                    xk=(  -0.12697,   0.21995,   0.00000  )

     Band symmetry, C_s (m)     point group:

     e(  1 -  1) =    -20.32091  eV     1   --> A'             
     e(  2 -  2) =     -7.86300  eV     1   --> A'             
     e(  3 -  3) =     -7.62458  eV     1   --> A''            
     e(  4 -  4) =     -6.63955  eV     1   --> A'             
     e(  5 -  5) =      2.28624  eV     1   --> A'             
     e(  6 -  6) =      3.21704  eV     1   --> A''            
     e(  7 -  7) =      4.11811  eV     1   --> A'             
     e(  8 -  8) =      5.43351  eV     1   --> A''            
     e(  9 -  9) =      6.52120  eV     1   --> A'             
     e( 10 - 10) =      6.99462  eV     1   --> A''            
     e( 11 - 11) =      8.26880  eV     1   --> A'             
     e( 12 - 12) =      9.53807  eV     1   --> A'             
     e( 13 - 13) =     10.15475  eV     1   --> A''            
     e( 14 - 14) =     11.20752  eV     1   --> A'             
     e( 15 - 15) =     13.42837  eV     1   --> A'             
     e( 16 - 16) =     14.95994  eV     1   --> A''            

 **************************************************************************

 **************************************************************************

                    xk=(  -0.14284,   0.24744,   0.00000  )

     Band symmetry, C_s (m)     point group:

     e(  1 -  1) =    -20.09515  eV     1   --> A'             
     e(  2 -  2) =     -8.38350  eV     1   --> A'             
     e(  3 -  3) =     -7.31479  eV     1   --> A''            
     e(  4 -  4) =     -6.99879  eV     1   --> A'             
     e(  5 -  5) =      2.68334  eV     1   --> A'             
     e(  6 -  6) =      3.52308  eV     1   --> A''            
     e(  7 -  7) =      4.52373  eV     1   --> A'             
     e(  8 -  8) =      5.49281  eV     1   --> A''            
     e(  9 -  9) =      6.90895  eV     1   --> A'             
     e( 10 - 10) =      6.92608  eV     1   --> A''            
     e( 11 - 11) =      8.46036  eV     1   --> A'             
     e( 12 - 12) =      9.80534  eV     1   --> A'             
     e( 13 - 13) =     10.43470  eV     1   --> A''            
     e( 14 - 14) =     11.68118  eV     1   --> A'             
     e( 15 - 15) =     14.07098  eV     1   --> A'             
     e( 16 - 16) =     15.04876  eV     1   --> A''            

 **************************************************************************

 **************************************************************************

                    xk=(  -0.15871,   0.27494,   0.00000  )

     Band symmetry, C_s (m)     point group:

     e(  1 -  1) =    -19.84978  eV     1   --> A'             
     e(  2 -  2) =     -8.89467  eV     1   --> A'             
     e(  3 -  3) =     -7.37103  eV     1   --> A'             
     e(  4 -  4) =     -6.97622  eV     1   --> A''            
     e(  5 -  5) =      3.12498  eV     1   --> A'             
     e(  6 -  6) =      3.77469  eV     1   --> A''            
     e(  7 -  7) =      4.97654  eV     1   --> A'             
     e(  8 -  8) =      5.41463  eV     1   --> A''            
     e(  9 -  9) =      7.09701  eV     1   --> A''            
     e( 10 - 10) =      7.33809  eV     1   --> A'             
     e( 11 - 11) =      8.69121  eV     1   --> A'             
     e( 12 - 12) =     10.08547  eV     1   --> A'             
     e( 13 - 13) =     10.76535  eV     1   --> A''            
     e( 14 - 14) =     12.14323  eV     1   --> A'             
     e( 15 - 15) =     14.73639  eV     1   --> A'             
     e( 16 - 16) =     14.93869  eV     1   --> A''            

 **************************************************************************

 **************************************************************************

                    xk=(  -0.17459,   0.30243,   0.00000  )

     Band symmetry, C_s (m)     point group:

     e(  1 -  1) =    -19.58801  eV     1   --> A'             
     e(  2 -  2) =     -9.38680  eV     1   --> A'             
     e(  3 -  3) =     -7.74994  eV     1   --> A'             
     e(  4 -  4) =     -6.61247  eV     1   --> A''            
     e(  5 -  5) =      3.61074  eV     1   --> A'             
     e(  6 -  6) =      3.83988  eV     1   --> A''            
     e(  7 -  7) =      5.41020  eV     1   --> A''            
     e(  8 -  8) =      5.47642  eV     1   --> A'             
     e(  9 -  9) =      7.44636  eV     1   --> A''            
     e( 10 - 10) =      7.80669  eV     1   --> A'             
     e( 11 - 11) =      8.95624  eV     1   --> A'             
     e( 12 - 12) =     10.37637  eV     1   --> A'             
     e( 13 - 13) =     11.12208  eV     1   --> A''            
     e( 14 - 14) =     12.61014  eV     1   --> A'             
     e( 15 - 15) =     14.58141  eV     1   --> A''            
     e( 16 - 16) =     15.36236  eV     1   --> A'             

 **************************************************************************

 **************************************************************************

                    xk=(  -0.19046,   0.32993,   0.00000  )

     Band symmetry, C_s (m)     point group:

     e(  1 -  1) =    -19.31409  eV     1   --> A'             
     e(  2 -  2) =     -9.85201  eV     1   --> A'             
     e(  3 -  3) =     -8.13024  eV     1   --> A'             
     e(  4 -  4) =     -6.22854  eV     1   --> A''            
     e(  5 -  5) =      3.63320  eV     1   --> A''            
     e(  6 -  6) =      4.14009  eV     1   --> A'             
     e(  7 -  7) =      5.65401  eV     1   --> A''            
     e(  8 -  8) =      6.02318  eV     1   --> A'             
     e(  9 -  9) =      7.89583  eV     1   --> A''            
     e( 10 - 10) =      8.31151  eV     1   --> A'             
     e( 11 - 11) =      9.24719  eV     1   --> A'             
     e( 12 - 12) =     10.67787  eV     1   --> A'             
     e( 13 - 13) =     11.46097  eV     1   --> A''            
     e( 14 - 14) =     13.09420  eV     1   --> A'             
     e( 15 - 15) =     14.13610  eV     1   --> A''            
     e( 16 - 16) =     15.83528  eV     1   --> A'             

 **************************************************************************

 **************************************************************************

                    xk=(  -0.20633,   0.35742,   0.00000  )

     Band symmetry, C_s (m)     point group:

     e(  1 -  1) =    -19.03356  eV     1   --> A'             
     e(  2 -  2) =    -10.28099  eV     1   --> A'             
     e(  3 -  3) =     -8.50724  eV     1   --> A'             
     e(  4 -  4) =     -5.83026  eV     1   --> A''            
     e(  5 -  5) =      3.26181  eV     1   --> A''            
     e(  6 -  6) =      4.71202  eV     1   --> A'             
     e(  7 -  7) =      6.08413  eV     1   --> A''            
     e(  8 -  8) =      6.61648  eV     1   --> A'             
     e(  9 -  9) =      8.40473  eV     1   --> A''            
     e( 10 - 10) =      8.84544  eV     1   --> A'             
     e( 11 - 11) =      9.55436  eV     1   --> A'             
     e( 12 - 12) =     10.99437  eV     1   --> A'             
     e( 13 - 13) =     11.69025  eV     1   --> A''            
     e( 14 - 14) =     13.60302  eV     1   --> A'             
     e( 15 - 15) =     13.81962  eV     1   --> A''            
     e( 16 - 16) =     15.93966  eV     1   --> A'             

 **************************************************************************

 **************************************************************************

                    xk=(  -0.22220,   0.38491,   0.00000  )

     Band symmetry, C_s (m)     point group:

     e(  1 -  1) =    -18.75324  eV     1   --> A'             
     e(  2 -  2) =    -10.66536  eV     1   --> A'             
     e(  3 -  3) =     -8.87661  eV     1   --> A'             
     e(  4 -  4) =     -5.42612  eV     1   --> A''            
     e(  5 -  5) =      2.83633  eV     1   --> A''            
     e(  6 -  6) =      5.32521  eV     1   --> A'             
     e(  7 -  7) =      6.61043  eV     1   --> A''            
     e(  8 -  8) =      7.25576  eV     1   --> A'             
     e(  9 -  9) =      8.94452  eV     1   --> A''            
     e( 10 - 10) =      9.38927  eV     1   --> A'             
     e( 11 - 11) =      9.87361  eV     1   --> A'             
     e( 12 - 12) =     11.33481  eV     1   --> A'             
     e( 13 - 13) =     11.69588  eV     1   --> A''            
     e( 14 - 14) =     13.81509  eV     1   --> A''            
     e( 15 - 15) =     14.13596  eV     1   --> A'             
     e( 16 - 16) =     15.59111  eV     1   --> A'             

 **************************************************************************

 **************************************************************************

                    xk=(  -0.23807,   0.41241,   0.00000  )

     Band symmetry, C_s (m)     point group:

     e(  1 -  1) =    -18.48167  eV     1   --> A'             
     e(  2 -  2) =    -10.99459  eV     1   --> A'             
     e(  3 -  3) =     -9.23408  eV     1   --> A'             
     e(  4 -  4) =     -5.02669  eV     1   --> A''            
     e(  5 -  5) =      2.41199  eV     1   --> A''            
     e(  6 -  6) =      5.97729  eV     1   --> A'             
     e(  7 -  7) =      7.18422  eV     1   --> A''            
     e(  8 -  8) =      7.93986  eV     1   --> A'             
     e(  9 -  9) =      9.47210  eV     1   --> A''            
     e( 10 - 10) =      9.86967  eV     1   --> A'             
     e( 11 - 11) =     10.24898  eV     1   --> A'             
     e( 12 - 12) =     11.54769  eV     1   --> A''            
     e( 13 - 13) =     11.70922  eV     1   --> A'             
     e( 14 - 14) =     14.10725  eV     1   --> A''            
     e( 15 - 15) =     14.67461  eV     1   --> A'             
     e( 16 - 16) =     15.03917  eV     1   --> A'             

 **************************************************************************

 **************************************************************************

                    xk=(  -0.25394,   0.43990,   0.00000  )

     Band symmetry, C_s (m)     point group:

     e(  1 -  1) =    -18.22948  eV     1   --> A'             
     e(  2 -  2) =    -11.25854  eV     1   --> A'             
     e(  3 -  3) =     -9.57671  eV     1   --> A'             
     e(  4 -  4) =     -4.64598  eV     1   --> A''            
     e(  5 -  5) =      2.01942  eV     1   --> A''            
     e(  6 -  6) =      6.66415  eV     1   --> A'             
     e(  7 -  7) =      7.76219  eV     1   --> A''            
     e(  8 -  8) =      8.66597  eV     1   --> A'             
     e(  9 -  9) =      9.89590  eV     1   --> A''            
     e( 10 - 10) =     10.17388  eV     1   --> A'             
     e( 11 - 11) =     10.75753  eV     1   --> A'             
     e( 12 - 12) =     11.50661  eV     1   --> A''            
     e( 13 - 13) =     12.11892  eV     1   --> A'             
     e( 14 - 14) =     14.45641  eV     1   --> A'             
     e( 15 - 15) =     14.48907  eV     1   --> A''            
     e( 16 - 16) =     15.10019  eV     1   --> A'             

 **************************************************************************

 **************************************************************************

                    xk=(  -0.26981,   0.46739,   0.00000  )

     Band symmetry, C_s (m)     point group:

     e(  1 -  1) =    -18.00797  eV     1   --> A'             
     e(  2 -  2) =    -11.44641  eV     1   --> A'             
     e(  3 -  3) =     -9.90015  eV     1   --> A'             
     e(  4 -  4) =     -4.30154  eV     1   --> A''            
     e(  5 -  5) =      1.67939  eV     1   --> A''            
     e(  6 -  6) =      7.37811  eV     1   --> A'             
     e(  7 -  7) =      8.26735  eV     1   --> A''            
     e(  8 -  8) =      9.42413  eV     1   --> A'             
     e(  9 -  9) =     10.15020  eV     1   --> A''            
     e( 10 - 10) =     10.35889  eV     1   --> A'             
     e( 11 - 11) =     11.29947  eV     1   --> A'             
     e( 12 - 12) =     11.79399  eV     1   --> A''            
     e( 13 - 13) =     12.53615  eV     1   --> A'             
     e( 14 - 14) =     13.98273  eV     1   --> A'             
     e( 15 - 15) =     14.45962  eV     1   --> A''            
     e( 16 - 16) =     14.75897  eV     1   --> A'             

 **************************************************************************

 **************************************************************************

                    xk=(  -0.28569,   0.49489,   0.00000  )

     Band symmetry, C_s (m)     point group:

     e(  1 -  1) =    -17.82856  eV     1   --> A'             
     e(  2 -  2) =    -11.55057  eV     1   --> A'             
     e(  3 -  3) =    -10.19997  eV     1   --> A'             
     e(  4 -  4) =     -4.01276  eV     1   --> A''            
     e(  5 -  5) =      1.40988  eV     1   --> A''            
     e(  6 -  6) =      8.10238  eV     1   --> A'             
     e(  7 -  7) =      8.57157  eV     1   --> A''            
     e(  8 -  8) =     10.13158  eV     1   --> A'             
     e(  9 -  9) =     10.44396  eV     1   --> A''            
     e( 10 - 10) =     10.55436  eV     1   --> A'             
     e( 11 - 11) =     11.70456  eV     1   --> A'             
     e( 12 - 12) =     12.34590  eV     1   --> A''            
     e( 13 - 13) =     12.87322  eV     1   --> A'             
     e( 14 - 14) =     13.79440  eV     1   --> A'             
     e( 15 - 15) =     13.94734  eV     1   --> A''            
     e( 16 - 16) =     14.27661  eV     1   --> A'             

 **************************************************************************

 **************************************************************************

                    xk=(  -0.30156,   0.52238,   0.00000  )

     Band symmetry, C_s (m)     point group:

     e(  1 -  1) =    -17.69972  eV     1   --> A'             
     e(  2 -  2) =    -11.57088  eV     1   --> A'             
     e(  3 -  3) =    -10.46705  eV     1   --> A'             
     e(  4 -  4) =     -3.79900  eV     1   --> A''            
     e(  5 -  5) =      1.22283  eV     1   --> A''            
     e(  6 -  6) =      8.64086  eV     1   --> A''            
     e(  7 -  7) =      8.79365  eV     1   --> A'             
     e(  8 -  8) =     10.38784  eV     1   --> A'             
     e(  9 -  9) =     10.96242  eV     1   --> A''            
     e( 10 - 10) =     11.17744  eV     1   --> A'             
     e( 11 - 11) =     11.75169  eV     1   --> A'             
     e( 12 - 12) =     12.91311  eV     1   --> A''            
     e( 13 - 13) =     13.16625  eV     1   --> A'             
     e( 14 - 14) =     13.47469  eV     1   --> A''            
     e( 15 - 15) =     13.75089  eV     1   --> A'             
     e( 16 - 16) =     14.04785  eV     1   --> A'             

 **************************************************************************

 **************************************************************************

                    xk=(  -0.31743,   0.54988,   0.00000  )

     Band symmetry, C_s (m)     point group:

     e(  1 -  1) =    -17.62522  eV     1   --> A'             
     e(  2 -  2) =    -11.52776  eV     1   --> A'             
     e(  3 -  3) =    -10.67947  eV     1   --> A'             
     e(  4 -  4) =     -3.67270  eV     1   --> A''            
     e(  5 -  5) =      1.12023  eV     1   --> A''            
     e(  6 -  6) =      8.60742  eV     1   --> A''            
     e(  7 -  7) =      9.32469  eV     1   --> A'             
     e(  8 -  8) =     10.51854  eV     1   --> A'             
     e(  9 -  9) =     11.38415  eV     1   --> A'             
     e( 10 - 10) =     11.61135  eV     1   --> A''            
     e( 11 - 11) =     12.11513  eV     1   --> A'             
     e( 12 - 12) =     12.78805  eV     1   --> A''            
     e( 13 - 13) =     13.25696  eV     1   --> A'             
     e( 14 - 14) =     13.46970  eV     1   --> A'             
     e( 15 - 15) =     13.47396  eV     1   --> A''            
     e( 16 - 16) =     13.93638  eV     1   --> A'             

 **************************************************************************

 **************************************************************************

                    xk=(  -0.33330,   0.57737,   0.00000  )

     Band symmetry, C_s (m)     point group:

     e(  1 -  1) =    -17.60227  eV     1   --> A'             
     e(  2 -  2) =    -11.48822  eV     1   --> A'             
     e(  3 -  3) =    -10.77374  eV     1   --> A'             
     e(  4 -  4) =     -3.63358  eV     1   --> A''            
     e(  5 -  5) =      1.09067  eV     1   --> A''            
     e(  6 -  6) =      8.58297  eV     1   --> A''            
     e(  7 -  7) =      9.50124  eV     1   --> A'             
     e(  8 -  8) =     10.70264  eV     1   --> A'             
     e(  9 -  9) =     11.16088  eV     1   --> A'             
     e( 10 - 10) =     12.03464  eV     1   --> A''            
     e( 11 - 11) =     12.53135  eV     1   --> A''            
     e( 12 - 12) =     12.80278  eV     1   --> A'             
     e( 13 - 13) =     12.99103  eV     1   --> A'             
     e( 14 - 14) =     13.15525  eV     1   --> A'             
     e( 15 - 15) =     13.37307  eV     1   --> A''            
     e( 16 - 16) =     14.00709  eV     1   --> A'             

 **************************************************************************

 **************************************************************************

                    xk=(  -0.30300,   0.57737,   0.00000  )

     Band symmetry, C_s (m)     point group:

     e(  1 -  1) =    -17.62015  eV     1   --> A'             
     e(  2 -  2) =    -11.54223  eV     1   --> A'             
     e(  3 -  3) =    -10.67374  eV     1   --> A'             
     e(  4 -  4) =     -3.66320  eV     1   --> A''            
     e(  5 -  5) =      1.10966  eV     1   --> A''            
     e(  6 -  6) =      8.61319  eV     1   --> A''            
     e(  7 -  7) =      9.40193  eV     1   --> A'             
     e(  8 -  8) =     10.47004  eV     1   --> A'             
     e(  9 -  9) =     11.32166  eV     1   --> A'             
     e( 10 - 10) =     11.78031  eV     1   --> A''            
     e( 11 - 11) =     12.49925  eV     1   --> A''            
     e( 12 - 12) =     12.50766  eV     1   --> A'             
     e( 13 - 13) =     12.67061  eV     1   --> A'             
     e( 14 - 14) =     13.61430  eV     1   --> A'             
     e( 15 - 15) =     13.63535  eV     1   --> A''            
     e( 16 - 16) =     13.98436  eV     1   --> A'             

 **************************************************************************

 **************************************************************************

                    xk=(  -0.27270,   0.57737,   0.00000  )

     Band symmetry, C_s (m)     point group:

     e(  1 -  1) =    -17.66809  eV     1   --> A'             
     e(  2 -  2) =    -11.67079  eV     1   --> A'             
     e(  3 -  3) =    -10.41944  eV     1   --> A'             
     e(  4 -  4) =     -3.74344  eV     1   --> A''            
     e(  5 -  5) =      1.14919  eV     1   --> A''            
     e(  6 -  6) =      8.70636  eV     1   --> A''            
     e(  7 -  7) =      9.17732  eV     1   --> A'             
     e(  8 -  8) =     10.11334  eV     1   --> A'             
     e(  9 -  9) =     11.28102  eV     1   --> A'             
     e( 10 - 10) =     11.42532  eV     1   --> A''            
     e( 11 - 11) =     12.15190  eV     1   --> A'             
     e( 12 - 12) =     12.27827  eV     1   --> A''            
     e( 13 - 13) =     12.32658  eV     1   --> A'             
     e( 14 - 14) =     13.71541  eV     1   --> A'             
     e( 15 - 15) =     13.82410  eV     1   --> A''            
     e( 16 - 16) =     14.02136  eV     1   --> A'             

 **************************************************************************

 **************************************************************************

                    xk=(  -0.24240,   0.57736,   0.00000  )

     Band symmetry, C_s (m)     point group:

     e(  1 -  1) =    -17.73555  eV     1   --> A'             
     e(  2 -  2) =    -11.81892  eV     1   --> A'             
     e(  3 -  3) =    -10.08125  eV     1   --> A'             
     e(  4 -  4) =     -3.85384  eV     1   --> A''            
     e(  5 -  5) =      1.18980  eV     1   --> A''            
     e(  6 -  6) =      8.85084  eV     1   --> A''            
     e(  7 -  7) =      8.87508  eV     1   --> A'             
     e(  8 -  8) =      9.77039  eV     1   --> A'             
     e(  9 -  9) =     10.94788  eV     1   --> A'             
     e( 10 - 10) =     11.09633  eV     1   --> A''            
     e( 11 - 11) =     11.80549  eV     1   --> A'             
     e( 12 - 12) =     11.98735  eV     1   --> A'             
     e( 13 - 13) =     12.05152  eV     1   --> A''            
     e( 14 - 14) =     13.50581  eV     1   --> A'             
     e( 15 - 15) =     13.55982  eV     1   --> A''            
     e( 16 - 16) =     14.21738  eV     1   --> A''            

 **************************************************************************

 **************************************************************************

                    xk=(  -0.21210,   0.57736,   0.00000  )

     Band symmetry, C_s (m)     point group:

     e(  1 -  1) =    -17.81349  eV     1   --> A'             
     e(  2 -  2) =    -11.96279  eV     1   --> A'             
     e(  3 -  3) =     -9.70063  eV     1   --> A'             
     e(  4 -  4) =     -3.97887  eV     1   --> A''            
     e(  5 -  5) =      1.21897  eV     1   --> A''            
     e(  6 -  6) =      8.50397  eV     1   --> A'             
     e(  7 -  7) =      9.01652  eV     1   --> A''            
     e(  8 -  8) =      9.46449  eV     1   --> A'             
     e(  9 -  9) =     10.51136  eV     1   --> A'             
     e( 10 - 10) =     10.80795  eV     1   --> A''            
     e( 11 - 11) =     11.49453  eV     1   --> A'             
     e( 12 - 12) =     11.66067  eV     1   --> A'             
     e( 13 - 13) =     11.88132  eV     1   --> A''            
     e( 14 - 14) =     13.27443  eV     1   --> A''            
     e( 15 - 15) =     13.31706  eV     1   --> A'             
     e( 16 - 16) =     14.08832  eV     1   --> A''            

 **************************************************************************

 **************************************************************************

                    xk=(  -0.18180,   0.57736,   0.00000  )

     Band symmetry, C_s (m)     point group:

     e(  1 -  1) =    -17.89378  eV     1   --> A'             
     e(  2 -  2) =    -12.09253  eV     1   --> A'             
     e(  3 -  3) =     -9.30346  eV     1   --> A'             
     e(  4 -  4) =     -4.10482  eV     1   --> A''            
     e(  5 -  5) =      1.23296  eV     1   --> A''            
     e(  6 -  6) =      8.07139  eV     1   --> A'             
     e(  7 -  7) =      9.16285  eV     1   --> A''            
     e(  8 -  8) =      9.20385  eV     1   --> A'             
     e(  9 -  9) =     10.08995  eV     1   --> A'             
     e( 10 - 10) =     10.56403  eV     1   --> A''            
     e( 11 - 11) =     11.22448  eV     1   --> A'             
     e( 12 - 12) =     11.37122  eV     1   --> A'             
     e( 13 - 13) =     11.78559  eV     1   --> A''            
     e( 14 - 14) =     13.02362  eV     1   --> A''            
     e( 15 - 15) =     13.14968  eV     1   --> A'             
     e( 16 - 16) =     13.87765  eV     1   --> A'             

 **************************************************************************

 **************************************************************************

                    xk=(  -0.15150,   0.57736,   0.00000  )

     Band symmetry, C_s (m)     point group:

     e(  1 -  1) =    -17.97057  eV     1   --> A'             
     e(  2 -  2) =    -12.20521  eV     1   --> A'             
     e(  3 -  3) =     -8.91249  eV     1   --> A'             
     e(  4 -  4) =     -4.22331  eV     1   --> A''            
     e(  5 -  5) =      1.23285  eV     1   --> A''            
     e(  6 -  6) =      7.60103  eV     1   --> A'             
     e(  7 -  7) =      8.98824  eV     1   --> A'             
     e(  8 -  8) =      9.25658  eV     1   --> A''            
     e(  9 -  9) =      9.73447  eV     1   --> A'             
     e( 10 - 10) =     10.36454  eV     1   --> A''            
     e( 11 - 11) =     10.99560  eV     1   --> A'             
     e( 12 - 12) =     11.12604  eV     1   --> A'             
     e( 13 - 13) =     11.75560  eV     1   --> A''            
     e( 14 - 14) =     12.81500  eV     1   --> A''            
     e( 15 - 15) =     13.00198  eV     1   --> A'             
     e( 16 - 16) =     13.66076  eV     1   --> A'             

 **************************************************************************

 **************************************************************************

                    xk=(  -0.12120,   0.57736,   0.00000  )

     Band symmetry, C_s (m)     point group:

     e(  1 -  1) =    -18.03898  eV     1   --> A'             
     e(  2 -  2) =    -12.29863  eV     1   --> A'             
     e(  3 -  3) =     -8.54909  eV     1   --> A'             
     e(  4 -  4) =     -4.32743  eV     1   --> A''            
     e(  5 -  5) =      1.22307  eV     1   --> A''            
     e(  6 -  6) =      7.13441  eV     1   --> A'             
     e(  7 -  7) =      8.81508  eV     1   --> A'             
     e(  8 -  8) =      9.29107  eV     1   --> A''            
     e(  9 -  9) =      9.45644  eV     1   --> A'             
     e( 10 - 10) =     10.20684  eV     1   --> A''            
     e( 11 - 11) =     10.80803  eV     1   --> A'             
     e( 12 - 12) =     10.92602  eV     1   --> A'             
     e( 13 - 13) =     11.75837  eV     1   --> A''            
     e( 14 - 14) =     12.64961  eV     1   --> A''            
     e( 15 - 15) =     12.87641  eV     1   --> A'             
     e( 16 - 16) =     13.47897  eV     1   --> A'             

 **************************************************************************

 **************************************************************************

                    xk=(  -0.09090,   0.57736,   0.00000  )

     Band symmetry, C_s (m)     point group:

     e(  1 -  1) =    -18.09552  eV     1   --> A'             
     e(  2 -  2) =    -12.37209  eV     1   --> A'             
     e(  3 -  3) =     -8.23510  eV     1   --> A'             
     e(  4 -  4) =     -4.41222  eV     1   --> A''            
     e(  5 -  5) =      1.20916  eV     1   --> A''            
     e(  6 -  6) =      6.71719  eV     1   --> A'             
     e(  7 -  7) =      8.68185  eV     1   --> A'             
     e(  8 -  8) =      9.25064  eV     1   --> A'             
     e(  9 -  9) =      9.28459  eV     1   --> A''            
     e( 10 - 10) =     10.08722  eV     1   --> A''            
     e( 11 - 11) =     10.66187  eV     1   --> A'             
     e( 12 - 12) =     10.77089  eV     1   --> A'             
     e( 13 - 13) =     11.76144  eV     1   --> A''            
     e( 14 - 14) =     12.52554  eV     1   --> A''            
     e( 15 - 15) =     12.77538  eV     1   --> A'             
     e( 16 - 16) =     13.33569  eV     1   --> A'             

 **************************************************************************

 **************************************************************************

                    xk=(  -0.06060,   0.57735,   0.00000  )

     Band symmetry, C_s (m)     point group:

     e(  1 -  1) =    -18.13757  eV     1   --> A'             
     e(  2 -  2) =    -12.42483  eV     1   --> A'             
     e(  3 -  3) =     -7.99145  eV     1   --> A'             
     e(  4 -  4) =     -4.47485  eV     1   --> A''            
     e(  5 -  5) =      1.19547  eV     1   --> A''            
     e(  6 -  6) =      6.38835  eV     1   --> A'             
     e(  7 -  7) =      8.58729  eV     1   --> A'             
     e(  8 -  8) =      9.10924  eV     1   --> A'             
     e(  9 -  9) =      9.26166  eV     1   --> A''            
     e( 10 - 10) =     10.00284  eV     1   --> A''            
     e( 11 - 11) =     10.55735  eV     1   --> A'             
     e( 12 - 12) =     10.66032  eV     1   --> A'             
     e( 13 - 13) =     11.75478  eV     1   --> A''            
     e( 14 - 14) =     12.43958  eV     1   --> A''            
     e( 15 - 15) =     12.70153  eV     1   --> A'             
     e( 16 - 16) =     13.23259  eV     1   --> A'             

 **************************************************************************

 **************************************************************************

                    xk=(  -0.03030,   0.57735,   0.00000  )

     Band symmetry, C_s (m)     point group:

     e(  1 -  1) =    -18.16342  eV     1   --> A'             
     e(  2 -  2) =    -12.45627  eV     1   --> A'             
     e(  3 -  3) =     -7.83638  eV     1   --> A'             
     e(  4 -  4) =     -4.51323  eV     1   --> A''            
     e(  5 -  5) =      1.18581  eV     1   --> A''            
     e(  6 -  6) =      6.17840  eV     1   --> A'             
     e(  7 -  7) =      8.53085  eV     1   --> A'             
     e(  8 -  8) =      9.02654  eV     1   --> A'             
     e(  9 -  9) =      9.24105  eV     1   --> A''            
     e( 10 - 10) =      9.95241  eV     1   --> A''            
     e( 11 - 11) =     10.49461  eV     1   --> A'             
     e( 12 - 12) =     10.59406  eV     1   --> A'             
     e( 13 - 13) =     11.74505  eV     1   --> A''            
     e( 14 - 14) =     12.38899  eV     1   --> A''            
     e( 15 - 15) =     12.65673  eV     1   --> A'             
     e( 16 - 16) =     13.17049  eV     1   --> A'             

 **************************************************************************

 **************************************************************************

                    xk=(   0.00000,   0.57735,   0.00000  )

     point group C_2v (mm2) 
     there are  4 classes
     the character table:

       E     C2    s_v   s_v' 
A_1    1.00  1.00  1.00  1.00
A_2    1.00  1.00 -1.00 -1.00
B_1    1.00 -1.00  1.00 -1.00
B_2    1.00 -1.00 -1.00  1.00

     the symmetry operations in each class and the name of the first element:

     E        1
                                                                 
     C2       2
                                                                 
     s_v      3
                                                                 
     s_v'     4
                                                                 

     Band symmetry, C_2v (mm2)  point group:

     e(  1 -  1) =    -18.17195  eV     1   --> A_1  D_1  S_1  
     e(  2 -  2) =    -12.46671  eV     1   --> A_1  D_1  S_1  
     e(  3 -  3) =     -7.78296  eV     1   --> B_1  D_3  S_3  
     e(  4 -  4) =     -4.52593  eV     1   --> B_2  D_4  S_4  
     e(  5 -  5) =      1.18236  eV     1   --> B_2  D_4  S_4  
     e(  6 -  6) =      6.10618  eV     1   --> A_1  D_1  S_1  
     e(  7 -  7) =      8.51210  eV     1   --> A_1  D_1  S_1  
     e(  8 -  8) =      8.99931  eV     1   --> A_1  D_1  S_1  
     e(  9 -  9) =      9.23314  eV     1   --> B_2  D_4  S_4  
     e( 10 - 10) =      9.93561  eV     1   --> B_2  D_4  S_4  
     e( 11 - 11) =     10.47370  eV     1   --> A_1  D_1  S_1  
     e( 12 - 12) =     10.57199  eV     1   --> A_1  D_1  S_1  
     e( 13 - 13) =     11.74074  eV     1   --> B_2  D_4  S_4  
     e( 14 - 14) =     12.37228  eV     1   --> B_2  D_4  S_4  
     e( 15 - 15) =     12.64177  eV     1   --> A_1  D_1  S_1  
     e( 16 - 16) =     13.14977  eV     1   --> A_1  D_1  S_1  

 **************************************************************************

 **************************************************************************

                    xk=(   0.00000,   0.54528,   0.00000  )

     Band symmetry, C_2v (mm2)  point group:

     e(  1 -  1) =    -18.21607  eV     1   --> A_1  D_1  S_1  
     e(  2 -  2) =    -12.39856  eV     1   --> A_1  D_1  S_1  
     e(  3 -  3) =     -7.76748  eV     1   --> B_1  D_3  S_3  
     e(  4 -  4) =     -4.59613  eV     1   --> B_2  D_4  S_4  
     e(  5 -  5) =      1.27254  eV     1   --> B_2  D_4  S_4  
     e(  6 -  6) =      6.06498  eV     1   --> A_1  D_1  S_1  
     e(  7 -  7) =      8.02233  eV     1   --> A_1  D_1  S_1  
     e(  8 -  8) =      8.74956  eV     1   --> B_2  D_4  S_4  
     e(  9 -  9) =      9.50007  eV     1   --> A_1  D_1  S_1  
     e( 10 - 10) =      9.74611  eV     1   --> A_1  D_1  S_1  
     e( 11 - 11) =     10.37787  eV     1   --> B_2  D_4  S_4  
     e( 12 - 12) =     11.32296  eV     1   --> B_2  D_4  S_4  
     e( 13 - 13) =     11.39353  eV     1   --> A_1  D_1  S_1  
     e( 14 - 14) =     12.10775  eV     1   --> A_1  D_1  S_1  
     e( 15 - 15) =     12.84340  eV     1   --> B_2  D_4  S_4  
     e( 16 - 16) =     13.69632  eV     1   --> A_1  D_1  S_1  

 **************************************************************************

 **************************************************************************

                    xk=(   0.00000,   0.51320,   0.00000  )

     Band symmetry, C_2v (mm2)  point group:

     e(  1 -  1) =    -18.34132  eV     1   --> A_1  D_1  S_1  
     e(  2 -  2) =    -12.19933  eV     1   --> A_1  D_1  S_1  
     e(  3 -  3) =     -7.72034  eV     1   --> B_1  D_3  S_3  
     e(  4 -  4) =     -4.79287  eV     1   --> B_2  D_4  S_4  
     e(  5 -  5) =      1.52801  eV     1   --> B_2  D_4  S_4  
     e(  6 -  6) =      5.91744  eV     1   --> A_1  D_1  S_1  
     e(  7 -  7) =      7.46818  eV     1   --> A_1  D_1  S_1  
     e(  8 -  8) =      8.05390  eV     1   --> B_2  D_4  S_4  
     e(  9 -  9) =      8.88486  eV     1   --> A_1  D_1  S_1  
     e( 10 - 10) =     10.33251  eV     1   --> A_1  D_1  S_1  
     e( 11 - 11) =     10.36320  eV     1   --> B_2  D_4  S_4  
     e( 12 - 12) =     11.39592  eV     1   --> A_1  D_1  S_1  
     e( 13 - 13) =     11.40338  eV     1   --> B_2  D_4  S_4  
     e( 14 - 14) =     12.34822  eV     1   --> A_1  D_1  S_1  
     e( 15 - 15) =     13.38137  eV     1   --> B_2  D_4  S_4  
     e( 16 - 16) =     14.30351  eV     1   --> A_1  D_1  S_1  

 **************************************************************************

 **************************************************************************

                    xk=(   0.00000,   0.48113,   0.00000  )

     Band symmetry, C_2v (mm2)  point group:

     e(  1 -  1) =    -18.53115  eV     1   --> A_1  D_1  S_1  
     e(  2 -  2) =    -11.88730  eV     1   --> A_1  D_1  S_1  
     e(  3 -  3) =     -7.64225  eV     1   --> B_1  D_3  S_3  
     e(  4 -  4) =     -5.08381  eV     1   --> B_2  D_4  S_4  
     e(  5 -  5) =      1.91095  eV     1   --> B_2  D_4  S_4  
     e(  6 -  6) =      5.61208  eV     1   --> A_1  D_1  S_1  
     e(  7 -  7) =      7.08044  eV     1   --> A_1  D_1  S_1  
     e(  8 -  8) =      7.37432  eV     1   --> B_2  D_4  S_4  
     e(  9 -  9) =      8.16309  eV     1   --> A_1  D_1  S_1  
     e( 10 - 10) =      9.75012  eV     1   --> B_2  D_4  S_4  
     e( 11 - 11) =     10.53150  eV     1   --> A_1  D_1  S_1  
     e( 12 - 12) =     11.31786  eV     1   --> A_1  D_1  S_1  
     e( 13 - 13) =     12.04347  eV     1   --> B_2  D_4  S_4  
     e( 14 - 14) =     13.28377  eV     1   --> A_1  D_1  S_1  
     e( 15 - 15) =     13.43664  eV     1   --> B_2  D_4  S_4  
     e( 16 - 16) =     14.28299  eV     1   --> A_1  D_1  S_1  

 **************************************************************************

 **************************************************************************

                    xk=(   0.00000,   0.44905,   0.00000  )

     Band symmetry, C_2v (mm2)  point group:

     e(  1 -  1) =    -18.76522  eV     1   --> A_1  D_1  S_1  
     e(  2 -  2) =    -11.48380  eV     1   --> A_1  D_1  S_1  
     e(  3 -  3) =     -7.53402  eV     1   --> B_1  D_3  S_3  
     e(  4 -  4) =     -5.43343  eV     1   --> B_2  D_4  S_4  
     e(  5 -  5) =      2.37703  eV     1   --> B_2  D_4  S_4  
     e(  6 -  6) =      5.16075  eV     1   --> A_1  D_1  S_1  
     e(  7 -  7) =      6.73864  eV     1   --> B_2  D_4  S_4  
     e(  8 -  8) =      6.83200  eV     1   --> A_1  D_1  S_1  
     e(  9 -  9) =      7.52941  eV     1   --> A_1  D_1  S_1  
     e( 10 - 10) =      9.11810  eV     1   --> B_2  D_4  S_4  
     e( 11 - 11) =      9.94314  eV     1   --> A_1  D_1  S_1  
     e( 12 - 12) =     11.99100  eV     1   --> A_1  D_1  S_1  
     e( 13 - 13) =     12.34131  eV     1   --> B_2  D_4  S_4  
     e( 14 - 14) =     13.53711  eV     1   --> B_2  D_4  S_4  
     e( 15 - 15) =     13.74210  eV     1   --> A_1  D_1  S_1  
     e( 16 - 16) =     14.40539  eV     1   --> A_1  D_1  S_1  

 **************************************************************************

 **************************************************************************

                    xk=(   0.00000,   0.41698,   0.00000  )

     Band symmetry, C_2v (mm2)  point group:

     e(  1 -  1) =    -19.02489  eV     1   --> A_1  D_1  S_1  
     e(  2 -  2) =    -11.00932  eV     1   --> A_1  D_1  S_1  
     e(  3 -  3) =     -7.39684  eV     1   --> B_1  D_3  S_3  
     e(  4 -  4) =     -5.81141  eV     1   --> B_2  D_4  S_4  
     e(  5 -  5) =      2.87895  eV     1   --> B_2  D_4  S_4  
     e(  6 -  6) =      4.64280  eV     1   --> A_1  D_1  S_1  
     e(  7 -  7) =      6.16470  eV     1   --> B_2  D_4  S_4  
     e(  8 -  8) =      6.51953  eV     1   --> A_1  D_1  S_1  
     e(  9 -  9) =      7.11359  eV     1   --> A_1  D_1  S_1  
     e( 10 - 10) =      8.52153  eV     1   --> B_2  D_4  S_4  
     e( 11 - 11) =      9.34714  eV     1   --> A_1  D_1  S_1  
     e( 12 - 12) =     12.07776  eV     1   --> B_2  D_4  S_4  
     e( 13 - 13) =     12.37060  eV     1   --> A_1  D_1  S_1  
     e( 14 - 14) =     13.60153  eV     1   --> A_1  D_1  S_1  
     e( 15 - 15) =     14.09853  eV     1   --> B_2  D_4  S_4  
     e( 16 - 16) =     15.32063  eV     1   --> A_1  D_1  S_1  

 **************************************************************************

 **************************************************************************

                    xk=(   0.00000,   0.38490,   0.00000  )

     Band symmetry, C_2v (mm2)  point group:

     e(  1 -  1) =    -19.29560  eV     1   --> A_1  D_1  S_1  
     e(  2 -  2) =    -10.48254  eV     1   --> A_1  D_1  S_1  
     e(  3 -  3) =     -7.23364  eV     1   --> B_1  D_3  S_3  
     e(  4 -  4) =     -6.19846  eV     1   --> B_2  D_4  S_4  
     e(  5 -  5) =      3.35448  eV     1   --> B_2  D_4  S_4  
     e(  6 -  6) =      4.11701  eV     1   --> A_1  D_1  S_1  
     e(  7 -  7) =      5.68334  eV     1   --> B_2  D_4  S_4  
     e(  8 -  8) =      6.02767  eV     1   --> A_1  D_1  S_1  
     e(  9 -  9) =      6.96852  eV     1   --> A_1  D_1  S_1  
     e( 10 - 10) =      7.97543  eV     1   --> B_2  D_4  S_4  
     e( 11 - 11) =      8.79990  eV     1   --> A_1  D_1  S_1  
     e( 12 - 12) =     11.65828  eV     1   --> B_2  D_4  S_4  
     e( 13 - 13) =     12.15406  eV     1   --> A_1  D_1  S_1  
     e( 14 - 14) =     13.80181  eV     1   --> A_1  D_1  S_1  
     e( 15 - 15) =     14.70788  eV     1   --> B_2  D_4  S_4  
     e( 16 - 16) =     14.90699  eV     1   --> B_1  D_3  S_3  

 **************************************************************************

 **************************************************************************

                    xk=(   0.00000,   0.35283,   0.00000  )

     Band symmetry, C_2v (mm2)  point group:

     e(  1 -  1) =    -19.56590  eV     1   --> A_1  D_1  S_1  
     e(  2 -  2) =     -9.91742  eV     1   --> A_1  D_1  S_1  
     e(  3 -  3) =     -7.04620  eV     1   --> B_1  D_3  S_3  
     e(  4 -  4) =     -6.57917  eV     1   --> B_2  D_4  S_4  
     e(  5 -  5) =      3.61087  eV     1   --> A_1  D_1  S_1  
     e(  6 -  6) =      3.69463  eV     1   --> B_2  D_4  S_4  
     e(  7 -  7) =      5.37091  eV     1   --> B_2  D_4  S_4  
     e(  8 -  8) =      5.50444  eV     1   --> A_1  D_1  S_1  
     e(  9 -  9) =      6.90649  eV     1   --> A_1  D_1  S_1  
     e( 10 - 10) =      7.49565  eV     1   --> B_2  D_4  S_4  
     e( 11 - 11) =      8.32231  eV     1   --> A_1  D_1  S_1  
     e( 12 - 12) =     11.22886  eV     1   --> B_2  D_4  S_4  
     e( 13 - 13) =     11.71246  eV     1   --> A_1  D_1  S_1  
     e( 14 - 14) =     13.87761  eV     1   --> A_1  D_1  S_1  
     e( 15 - 15) =     14.07928  eV     1   --> B_1  D_3  S_3  
     e( 16 - 16) =     15.13461  eV     1   --> B_2  D_4  S_4  

 **************************************************************************

 **************************************************************************

                    xk=(   0.00000,   0.32075,   0.00000  )

     Band symmetry, C_2v (mm2)  point group:

     e(  1 -  1) =    -19.82766  eV     1   --> A_1  D_1  S_1  
     e(  2 -  2) =     -9.32703  eV     1   --> A_1  D_1  S_1  
     e(  3 -  3) =     -6.94402  eV     1   --> B_2  D_4  S_4  
     e(  4 -  4) =     -6.83758  eV     1   --> B_1  D_3  S_3  
     e(  5 -  5) =      3.13653  eV     1   --> A_1  D_1  S_1  
     e(  6 -  6) =      3.74470  eV     1   --> B_2  D_4  S_4  
     e(  7 -  7) =      5.00896  eV     1   --> A_1  D_1  S_1  
     e(  8 -  8) =      5.33277  eV     1   --> B_2  D_4  S_4  
     e(  9 -  9) =      6.82667  eV     1   --> A_1  D_1  S_1  
     e( 10 - 10) =      7.11403  eV     1   --> B_2  D_4  S_4  
     e( 11 - 11) =      7.94658  eV     1   --> A_1  D_1  S_1  
     e( 12 - 12) =     10.82725  eV     1   --> B_2  D_4  S_4  
     e( 13 - 13) =     11.24080  eV     1   --> A_1  D_1  S_1  
     e( 14 - 14) =     13.24408  eV     1   --> B_1  D_3  S_3  
     e( 15 - 15) =     13.70390  eV     1   --> A_1  D_1  S_1  
     e( 16 - 16) =     15.27290  eV     1   --> B_2  D_4  S_4  

 **************************************************************************

 **************************************************************************

                    xk=(   0.00000,   0.28868,   0.00000  )

     Band symmetry, C_2v (mm2)  point group:

     e(  1 -  1) =    -20.07518  eV     1   --> A_1  D_1  S_1  
     e(  2 -  2) =     -8.72422  eV     1   --> A_1  D_1  S_1  
     e(  3 -  3) =     -7.28631  eV     1   --> B_2  D_4  S_4  
     e(  4 -  4) =     -6.61225  eV     1   --> B_1  D_3  S_3  
     e(  5 -  5) =      2.69979  eV     1   --> A_1  D_1  S_1  
     e(  6 -  6) =      3.53639  eV     1   --> B_2  D_4  S_4  
     e(  7 -  7) =      4.55435  eV     1   --> A_1  D_1  S_1  
     e(  8 -  8) =      5.44273  eV     1   --> B_2  D_4  S_4  
     e(  9 -  9) =      6.66788  eV     1   --> A_1  D_1  S_1  
     e( 10 - 10) =      6.90420  eV     1   --> B_2  D_4  S_4  
     e( 11 - 11) =      7.71504  eV     1   --> A_1  D_1  S_1  
     e( 12 - 12) =     10.47138  eV     1   --> B_2  D_4  S_4  
     e( 13 - 13) =     10.78139  eV     1   --> A_1  D_1  S_1  
     e( 14 - 14) =     12.41918  eV     1   --> B_1  D_3  S_3  
     e( 15 - 15) =     13.39010  eV     1   --> A_1  D_1  S_1  
     e( 16 - 16) =     15.19252  eV     1   --> B_2  D_4  S_4  

 **************************************************************************

 **************************************************************************

                    xk=(   0.00000,   0.25660,   0.00000  )

     Band symmetry, C_2v (mm2)  point group:

     e(  1 -  1) =    -20.30394  eV     1   --> A_1  D_1  S_1  
     e(  2 -  2) =     -8.12009  eV     1   --> A_1  D_1  S_1  
     e(  3 -  3) =     -7.60077  eV     1   --> B_2  D_4  S_4  
     e(  4 -  4) =     -6.37457  eV     1   --> B_1  D_3  S_3  
     e(  5 -  5) =      2.30382  eV     1   --> A_1  D_1  S_1  
     e(  6 -  6) =      3.23859  eV     1   --> B_2  D_4  S_4  
     e(  7 -  7) =      4.14463  eV     1   --> A_1  D_1  S_1  
     e(  8 -  8) =      5.42817  eV     1   --> B_2  D_4  S_4  
     e(  9 -  9) =      6.42304  eV     1   --> A_1  D_1  S_1  
     e( 10 - 10) =      6.94959  eV     1   --> B_2  D_4  S_4  
     e( 11 - 11) =      7.62741  eV     1   --> A_1  D_1  S_1  
     e( 12 - 12) =     10.17538  eV     1   --> B_2  D_4  S_4  
     e( 13 - 13) =     10.34743  eV     1   --> A_1  D_1  S_1  
     e( 14 - 14) =     11.62457  eV     1   --> B_1  D_3  S_3  
     e( 15 - 15) =     13.02037  eV     1   --> A_1  D_1  S_1  
     e( 16 - 16) =     15.01832  eV     1   --> B_2  D_4  S_4  

 **************************************************************************

 **************************************************************************

                    xk=(   0.00000,   0.22453,   0.00000  )

     Band symmetry, C_2v (mm2)  point group:

     e(  1 -  1) =    -20.51100  eV     1   --> A_1  D_1  S_1  
     e(  2 -  2) =     -7.88383  eV     1   --> B_2  D_4  S_4  
     e(  3 -  3) =     -7.52672  eV     1   --> A_1  D_1  S_1  
     e(  4 -  4) =     -6.13121  eV     1   --> B_1  D_3  S_3  
     e(  5 -  5) =      1.95025  eV     1   --> A_1  D_1  S_1  
     e(  6 -  6) =      2.93573  eV     1   --> B_2  D_4  S_4  
     e(  7 -  7) =      3.78136  eV     1   --> A_1  D_1  S_1  
     e(  8 -  8) =      5.25954  eV     1   --> B_2  D_4  S_4  
     e(  9 -  9) =      6.14191  eV     1   --> A_1  D_1  S_1  
     e( 10 - 10) =      7.17185  eV     1   --> B_2  D_4  S_4  
     e( 11 - 11) =      7.62955  eV     1   --> A_1  D_1  S_1  
     e( 12 - 12) =      9.94360  eV     1   --> A_1  D_1  S_1  
     e( 13 - 13) =      9.95434  eV     1   --> B_2  D_4  S_4  
     e( 14 - 14) =     10.87396  eV     1   --> B_1  D_3  S_3  
     e( 15 - 15) =     12.63785  eV     1   --> A_1  D_1  S_1  
     e( 16 - 16) =     14.82203  eV     1   --> B_2  D_4  S_4  

 **************************************************************************

 **************************************************************************

                    xk=(   0.00000,   0.19245,   0.00000  )

     Band symmetry, C_2v (mm2)  point group:

     e(  1 -  1) =    -20.69399  eV     1   --> A_1  D_1  S_1  
     e(  2 -  2) =     -8.13318  eV     1   --> B_2  D_4  S_4  
     e(  3 -  3) =     -6.95875  eV     1   --> A_1  D_1  S_1  
     e(  4 -  4) =     -5.88978  eV     1   --> B_1  D_3  S_3  
     e(  5 -  5) =      1.64021  eV     1   --> A_1  D_1  S_1  
     e(  6 -  6) =      2.65712  eV     1   --> B_2  D_4  S_4  
     e(  7 -  7) =      3.46530  eV     1   --> A_1  D_1  S_1  
     e(  8 -  8) =      5.03894  eV     1   --> B_2  D_4  S_4  
     e(  9 -  9) =      5.86672  eV     1   --> A_1  D_1  S_1  
     e( 10 - 10) =      7.41333  eV     1   --> B_2  D_4  S_4  
     e( 11 - 11) =      7.67503  eV     1   --> A_1  D_1  S_1  
     e( 12 - 12) =      9.57391  eV     1   --> A_1  D_1  S_1  
     e( 13 - 13) =      9.82353  eV     1   --> B_2  D_4  S_4  
     e( 14 - 14) =     10.18111  eV     1   --> B_1  D_3  S_3  
     e( 15 - 15) =     12.26866  eV     1   --> A_1  D_1  S_1  
     e( 16 - 16) =     14.63666  eV     1   --> B_2  D_4  S_4  

 **************************************************************************

 **************************************************************************

                    xk=(   0.00000,   0.16038,   0.00000  )

     Band symmetry, C_2v (mm2)  point group:

     e(  1 -  1) =    -20.85112  eV     1   --> A_1  D_1  S_1  
     e(  2 -  2) =     -8.34668  eV     1   --> B_2  D_4  S_4  
     e(  3 -  3) =     -6.43081  eV     1   --> A_1  D_1  S_1  
     e(  4 -  4) =     -5.65875  eV     1   --> B_1  D_3  S_3  
     e(  5 -  5) =      1.37453  eV     1   --> A_1  D_1  S_1  
     e(  6 -  6) =      2.41414  eV     1   --> B_2  D_4  S_4  
     e(  7 -  7) =      3.19693  eV     1   --> A_1  D_1  S_1  
     e(  8 -  8) =      4.82386  eV     1   --> B_2  D_4  S_4  
     e(  9 -  9) =      5.61812  eV     1   --> A_1  D_1  S_1  
     e( 10 - 10) =      7.58886  eV     1   --> B_2  D_4  S_4  
     e( 11 - 11) =      7.74057  eV     1   --> A_1  D_1  S_1  
     e( 12 - 12) =      9.24225  eV     1   --> A_1  D_1  S_1  
     e( 13 - 13) =      9.56155  eV     1   --> B_1  D_3  S_3  
     e( 14 - 14) =      9.78930  eV     1   --> B_2  D_4  S_4  
     e( 15 - 15) =     11.92999  eV     1   --> A_1  D_1  S_1  
     e( 16 - 16) =     14.47756  eV     1   --> B_2  D_4  S_4  

 **************************************************************************

 **************************************************************************

                    xk=(   0.00000,   0.12830,   0.00000  )

     Band symmetry, C_2v (mm2)  point group:

     e(  1 -  1) =    -20.98132  eV     1   --> A_1  D_1  S_1  
     e(  2 -  2) =     -8.52324  eV     1   --> B_2  D_4  S_4  
     e(  3 -  3) =     -5.96063  eV     1   --> A_1  D_1  S_1  
     e(  4 -  4) =     -5.44890  eV     1   --> B_1  D_3  S_3  
     e(  5 -  5) =      1.15401  eV     1   --> A_1  D_1  S_1  
     e(  6 -  6) =      2.21187  eV     1   --> B_2  D_4  S_4  
     e(  7 -  7) =      2.97656  eV     1   --> A_1  D_1  S_1  
     e(  8 -  8) =      4.63654  eV     1   --> B_2  D_4  S_4  
     e(  9 -  9) =      5.40576  eV     1   --> A_1  D_1  S_1  
     e( 10 - 10) =      7.68042  eV     1   --> B_2  D_4  S_4  
     e( 11 - 11) =      7.81218  eV     1   --> A_1  D_1  S_1  
     e( 12 - 12) =      8.95283  eV     1   --> A_1  D_1  S_1  
     e( 13 - 13) =      9.02806  eV     1   --> B_1  D_3  S_3  
     e( 14 - 14) =      9.83548  eV     1   --> B_2  D_4  S_4  
     e( 15 - 15) =     11.63429  eV     1   --> A_1  D_1  S_1  
     e( 16 - 16) =     14.35103  eV     1   --> B_2  D_4  S_4  

 **************************************************************************

 **************************************************************************

                    xk=(   0.00000,   0.09623,   0.00000  )

     Band symmetry, C_2v (mm2)  point group:

     e(  1 -  1) =    -21.08341  eV     1   --> A_1  D_1  S_1  
     e(  2 -  2) =     -8.66151  eV     1   --> B_2  D_4  S_4  
     e(  3 -  3) =     -5.56629  eV     1   --> A_1  D_1  S_1  
     e(  4 -  4) =     -5.26957  eV     1   --> B_1  D_3  S_3  
     e(  5 -  5) =      0.97983  eV     1   --> A_1  D_1  S_1  
     e(  6 -  6) =      2.05292  eV     1   --> B_2  D_4  S_4  
     e(  7 -  7) =      2.80455  eV     1   --> A_1  D_1  S_1  
     e(  8 -  8) =      4.48612  eV     1   --> B_2  D_4  S_4  
     e(  9 -  9) =      5.23518  eV     1   --> A_1  D_1  S_1  
     e( 10 - 10) =      7.70881  eV     1   --> B_2  D_4  S_4  
     e( 11 - 11) =      7.88254  eV     1   --> A_1  D_1  S_1  
     e( 12 - 12) =      8.59465  eV     1   --> B_1  D_3  S_3  
     e( 13 - 13) =      8.71199  eV     1   --> A_1  D_1  S_1  
     e( 14 - 14) =      9.92371  eV     1   --> B_2  D_4  S_4  
     e( 15 - 15) =     11.39236  eV     1   --> A_1  D_1  S_1  
     e( 16 - 16) =     14.25821  eV     1   --> B_2  D_4  S_4  

 **************************************************************************

 **************************************************************************

                    xk=(   0.00000,   0.06415,   0.00000  )

     Band symmetry, C_2v (mm2)  point group:

     e(  1 -  1) =    -21.15670  eV     1   --> A_1  D_1  S_1  
     e(  2 -  2) =     -8.76048  eV     1   --> B_2  D_4  S_4  
     e(  3 -  3) =     -5.26719  eV     1   --> A_1  D_1  S_1  
     e(  4 -  4) =     -5.13125  eV     1   --> B_1  D_3  S_3  
     e(  5 -  5) =      0.85346  eV     1   --> A_1  D_1  S_1  
     e(  6 -  6) =      1.93872  eV     1   --> B_2  D_4  S_4  
     e(  7 -  7) =      2.68127  eV     1   --> A_1  D_1  S_1  
     e(  8 -  8) =      4.37685  eV     1   --> B_2  D_4  S_4  
     e(  9 -  9) =      5.11022  eV     1   --> A_1  D_1  S_1  
     e( 10 - 10) =      7.70604  eV     1   --> B_2  D_4  S_4  
     e( 11 - 11) =      7.94467  eV     1   --> A_1  D_1  S_1  
     e( 12 - 12) =      8.27443  eV     1   --> B_1  D_3  S_3  
     e( 13 - 13) =      8.52657  eV     1   --> A_1  D_1  S_1  
     e( 14 - 14) =     10.01412  eV     1   --> B_2  D_4  S_4  
     e( 15 - 15) =     11.21270  eV     1   --> A_1  D_1  S_1  
     e( 16 - 16) =     14.19677  eV     1   --> B_2  D_4  S_4  

 **************************************************************************

 **************************************************************************

                    xk=(   0.00000,   0.03208,   0.00000  )

     Band symmetry, C_2v (mm2)  point group:

     e(  1 -  1) =    -21.20088  eV     1   --> A_1  D_1  S_1  
     e(  2 -  2) =     -8.82010  eV     1   --> B_2  D_4  S_4  
     e(  3 -  3) =     -5.07920  eV     1   --> A_1  D_1  S_1  
     e(  4 -  4) =     -5.04459  eV     1   --> B_1  D_3  S_3  
     e(  5 -  5) =      0.77662  eV     1   --> A_1  D_1  S_1  
     e(  6 -  6) =      1.86994  eV     1   --> B_2  D_4  S_4  
     e(  7 -  7) =      2.60710  eV     1   --> A_1  D_1  S_1  
     e(  8 -  8) =      4.31065  eV     1   --> B_2  D_4  S_4  
     e(  9 -  9) =      5.03383  eV     1   --> A_1  D_1  S_1  
     e( 10 - 10) =      7.69555  eV     1   --> B_2  D_4  S_4  
     e( 11 - 11) =      7.99175  eV     1   --> A_1  D_1  S_1  
     e( 12 - 12) =      8.07730  eV     1   --> B_1  D_3  S_3  
     e( 13 - 13) =      8.40489  eV     1   --> A_1  D_1  S_1  
     e( 14 - 14) =     10.07802  eV     1   --> B_2  D_4  S_4  
     e( 15 - 15) =     11.10183  eV     1   --> A_1  D_1  S_1  
     e( 16 - 16) =     14.16245  eV     1   --> B_2  D_4  S_4  

 **************************************************************************

 **************************************************************************

                    xk=(   0.00000,   0.00000,   0.00000  )

     point group D_3h (-62m)
     there are  6 classes
     the character table:

       E     2C3   3C2   s_h   2S3   3s_v 
A'_1   1.00  1.00  1.00  1.00  1.00  1.00
A'_2   1.00  1.00 -1.00  1.00  1.00 -1.00
E'     2.00 -1.00  0.00  2.00 -1.00  0.00
A''1   1.00  1.00  1.00 -1.00 -1.00 -1.00
A''2   1.00  1.00 -1.00 -1.00 -1.00  1.00
E''    2.00 -1.00  0.00 -2.00  1.00  0.00

     the symmetry operations in each class and the name of the first element:

     E        1
                                                                 
     2C3      3    4
                                                                 
     3C2      2    6    5
                                                                 
     s_h      7
                                                                 
     2S3      9   10
                                                                 
     3s_v     8   11   12
                                                                 

     Band symmetry, D_3h (-62m) point group:

     e(  1 -  1) =    -21.21542  eV     1   --> A'_1           
     e(  2 -  2) =     -8.83950  eV     1   --> A''2           
     e(  3 -  4) =     -5.01412  eV     2   --> E'             
     e(  5 -  5) =      0.75084  eV     1   --> A'_1           
     e(  6 -  6) =      1.84709  eV     1   --> A''2           
     e(  7 -  7) =      2.58235  eV     1   --> A'_1           
     e(  8 -  8) =      4.28862  eV     1   --> A''2           
     e(  9 -  9) =      5.00818  eV     1   --> A'_1           
     e( 10 - 10) =      7.69126  eV     1   --> A''2           
     e( 11 - 12) =      8.01152  eV     2   --> E'             
     e( 13 - 13) =      8.36112  eV     1   --> A'_1           
     e( 14 - 14) =     10.10156  eV     1   --> A''2           
     e( 15 - 15) =     11.06452  eV     1   --> A'_1           
     e( 16 - 16) =     14.15167  eV     1   --> A''2           

 **************************************************************************

     BANDS        :     11.48s CPU     11.74s WALL


   This run was terminated on:  10:40:56  16Apr2024            

=------------------------------------------------------------------------------=
   JOB DONE.
=------------------------------------------------------------------------------=
