
     Program PWSCF v.7.2 starts on 16Apr2024 at 10:40:26 

     This program is part of the open-source Quantum ESPRESSO suite
     for quantum simulation of materials; please cite
         "P. Giannozzi et al., J. Phys.:Condens. Matter 21 395502 (2009);
         "P. Giannozzi et al., J. Phys.:Condens. Matter 29 465901 (2017);
         "P. Giannozzi et al., J. Chem. Phys. 152 154105 (2020);
          URL http://www.quantum-espresso.org", 
     in publications or presentations arising from this work. More details at
     http://www.quantum-espresso.org/quote

     Parallel version (MPI & OpenMP), running on       8 processor cores
     Number of MPI processes:                 8
     Threads/MPI process:                     1

     MPI processes distributed on     1 nodes
     0 MiB available memory on the printing compute node when the environment starts

     Waiting for input...
     Reading input from standard input
Warning: card $IONS ignored
Warning: card / ignored
Warning: card $CELL ignored
Warning: card / ignored

     Current dimensions of program PWSCF are:
     Max number of different atomic species (ntypx) = 10
     Max number of k-points (npk) =  40000
     Max angular momentum in pseudopotentials (lmaxx) =  4

     Atomic positions and unit cell read from directory:
     ./tmp/hBN_1L_PBE_vdW.save/
     Atomic positions from file used, from input discarded


     IMPORTANT: XC functional enforced from input :
     Exchange-correlation= VDW-DF2-B86R
                           (   1   4  26   0   2   0   0)
     Any further DFT definition will be discarded
     Please, verify this is what you really want


     R & G space division:  proc/nbgrp/npool/nimage =       8
     Subspace diagonalization in iterative solution of the eigenvalue problem:
     a serial algorithm will be used


     Parallelization info
     --------------------
     sticks:   dense  smooth     PW     G-vecs:    dense   smooth      PW
     Min          45      45     15                 4333     4333     755
     Max          46      46     16                 4356     4356     767
     Sum         367     367    121                34803    34803    6103

     Using Slab Decomposition



     bravais-lattice index     =            4
     lattice parameter (alat)  =       4.7471  a.u.
     unit-cell volume          =     555.8620 (a.u.)^3
     number of atoms/cell      =            2
     number of atomic types    =            2
     number of electrons       =         8.00
     number of Kohn-Sham states=           16
     kinetic-energy cutoff     =      60.0000  Ry
     charge density cutoff     =     240.0000  Ry
     Exchange-correlation= VDW-DF2-B86R
                           (   1   4  26   0   2   0   0)

     celldm(1)=   4.747100  celldm(2)=   0.000000  celldm(3)=   6.000000
     celldm(4)=   0.000000  celldm(5)=   0.000000  celldm(6)=   0.000000

     crystal axes: (cart. coord. in units of alat)
               a(1) = (   1.000000   0.000000   0.000000 )  
               a(2) = (  -0.500000   0.866025   0.000000 )  
               a(3) = (   0.000000   0.000000   6.000000 )  

     reciprocal axes: (cart. coord. in units 2 pi/alat)
               b(1) = (  1.000000  0.577350 -0.000000 )  
               b(2) = (  0.000000  1.154701  0.000000 )  
               b(3) = (  0.000000 -0.000000  0.166667 )  


     PseudoPot. # 1 for N  read from file:
     ../../../Pseudo/PBE/N.upf
     MD5 check sum: d34365f73bb0e2ee98afc20ec3e87676
     Pseudo is Norm-conserving + core correction, Zval =  5.0
     Generated using ONCVPSP code by D. R. Hamann
     Using radial grid of 1058 points,  4 beta functions with: 
                l(1) =   0
                l(2) =   0
                l(3) =   1
                l(4) =   1

     PseudoPot. # 2 for B  read from file:
     ../../../Pseudo/PBE/B.upf
     MD5 check sum: 72f82fc31bc892420d0cab7e25c88ab8
     Pseudo is Norm-conserving + core correction, Zval =  3.0
     Generated using ONCVPSP code by D. R. Hamann
     Using radial grid of 1534 points,  4 beta functions with: 
                l(1) =   0
                l(2) =   0
                l(3) =   1
                l(4) =   1

     atomic species   valence    mass     pseudopotential
        N              5.00    14.00670     N ( 1.00)
        B              3.00    10.80100     B ( 1.00)

     12 Sym. Ops. (no inversion) found


                                    s                        frac. trans.

      isym =  1     identity                                     

 cryst.   s( 1) = (     1          0          0      )
                  (     0          1          0      )
                  (     0          0          1      )

 cart.    s( 1) = (  1.0000000  0.0000000  0.0000000 )
                  (  0.0000000  1.0000000  0.0000000 )
                  (  0.0000000  0.0000000  1.0000000 )


      isym =  2     180 deg rotation - cart. axis [0,1,0]        

 cryst.   s( 2) = (    -1          0          0      )
                  (     1          1          0      )
                  (     0          0         -1      )

 cart.    s( 2) = ( -1.0000000  0.0000000  0.0000000 )
                  (  0.0000000  1.0000000  0.0000000 )
                  (  0.0000000  0.0000000 -1.0000000 )


      isym =  3     120 deg rotation - cryst. axis [0,0,1]       

 cryst.   s( 3) = (     0          1          0      )
                  (    -1         -1          0      )
                  (     0          0          1      )

 cart.    s( 3) = ( -0.5000000 -0.8660254  0.0000000 )
                  (  0.8660254 -0.5000000  0.0000000 )
                  (  0.0000000  0.0000000  1.0000000 )


      isym =  4     120 deg rotation - cryst. axis [0,0,-1]      

 cryst.   s( 4) = (    -1         -1          0      )
                  (     1          0          0      )
                  (     0          0          1      )

 cart.    s( 4) = ( -0.5000000  0.8660254  0.0000000 )
                  ( -0.8660254 -0.5000000  0.0000000 )
                  (  0.0000000  0.0000000  1.0000000 )


      isym =  5     180 deg rotation - cryst. axis [1,-1,0]      

 cryst.   s( 5) = (     0         -1          0      )
                  (    -1          0          0      )
                  (     0          0         -1      )

 cart.    s( 5) = (  0.5000000 -0.8660254  0.0000000 )
                  ( -0.8660254 -0.5000000  0.0000000 )
                  (  0.0000000  0.0000000 -1.0000000 )


      isym =  6     180 deg rotation - cryst. axis [2,1,0]       

 cryst.   s( 6) = (     1          1          0      )
                  (     0         -1          0      )
                  (     0          0         -1      )

 cart.    s( 6) = (  0.5000000  0.8660254  0.0000000 )
                  (  0.8660254 -0.5000000  0.0000000 )
                  (  0.0000000  0.0000000 -1.0000000 )


      isym =  7     inv. 180 deg rotation - cart. axis [0,0,1]   

 cryst.   s( 7) = (     1          0          0      )
                  (     0          1          0      )
                  (     0          0         -1      )

 cart.    s( 7) = (  1.0000000  0.0000000  0.0000000 )
                  (  0.0000000  1.0000000  0.0000000 )
                  (  0.0000000  0.0000000 -1.0000000 )


      isym =  8     inv. 180 deg rotation - cart. axis [1,0,0]   

 cryst.   s( 8) = (    -1          0          0      )
                  (     1          1          0      )
                  (     0          0          1      )

 cart.    s( 8) = ( -1.0000000  0.0000000  0.0000000 )
                  (  0.0000000  1.0000000  0.0000000 )
                  (  0.0000000  0.0000000  1.0000000 )


      isym =  9     inv.  60 deg rotation - cryst. axis [0,0,1]  

 cryst.   s( 9) = (    -1         -1          0      )
                  (     1          0          0      )
                  (     0          0         -1      )

 cart.    s( 9) = ( -0.5000000  0.8660254  0.0000000 )
                  ( -0.8660254 -0.5000000  0.0000000 )
                  (  0.0000000  0.0000000 -1.0000000 )


      isym = 10     inv.  60 deg rotation - cryst. axis [0,0,-1] 

 cryst.   s(10) = (     0          1          0      )
                  (    -1         -1          0      )
                  (     0          0         -1      )

 cart.    s(10) = ( -0.5000000 -0.8660254  0.0000000 )
                  (  0.8660254 -0.5000000  0.0000000 )
                  (  0.0000000  0.0000000 -1.0000000 )


      isym = 11     inv. 180 deg rotation - cryst. axis [0,1,0]  

 cryst.   s(11) = (     1          1          0      )
                  (     0         -1          0      )
                  (     0          0          1      )

 cart.    s(11) = (  0.5000000  0.8660254  0.0000000 )
                  (  0.8660254 -0.5000000  0.0000000 )
                  (  0.0000000  0.0000000  1.0000000 )


      isym = 12     inv. 180 deg rotation - cryst. axis [1,1,0]  

 cryst.   s(12) = (     0         -1          0      )
                  (    -1          0          0      )
                  (     0          0          1      )

 cart.    s(12) = (  0.5000000 -0.8660254  0.0000000 )
                  ( -0.8660254 -0.5000000  0.0000000 )
                  (  0.0000000  0.0000000  1.0000000 )


     point group D_3h (-62m)
     there are  6 classes
     the character table:

       E     2C3   3C2   s_h   2S3   3s_v 
A'_1   1.00  1.00  1.00  1.00  1.00  1.00
A'_2   1.00  1.00 -1.00  1.00  1.00 -1.00
E'     2.00 -1.00  0.00  2.00 -1.00  0.00
A''1   1.00  1.00  1.00 -1.00 -1.00 -1.00
A''2   1.00  1.00 -1.00 -1.00 -1.00  1.00
E''    2.00 -1.00  0.00 -2.00  1.00  0.00

     the symmetry operations in each class and the name of the first element:

     E        1
          identity                                               
     2C3      3    4
          120 deg rotation - cryst. axis [0,0,1]                 
     3C2      2    6    5
          180 deg rotation - cart. axis [0,1,0]                  
     s_h      7
          inv. 180 deg rotation - cart. axis [0,0,1]             
     2S3      9   10
          inv.  60 deg rotation - cryst. axis [0,0,1]            
     3s_v     8   11   12
          inv. 180 deg rotation - cart. axis [1,0,0]             

   Cartesian axes

     site n.     atom                  positions (alat units)
         1           B   tau(   1) = (   0.0000000   0.0000000   0.0000000  )
         2           N   tau(   2) = (  -0.0000000   0.5773503   0.0000000  )

   Crystallographic axes

     site n.     atom                  positions (cryst. coord.)
         1           B   tau(   1) = (  0.0000000  0.0000000  0.0000000  )
         2           N   tau(   2) = (  0.3333333  0.6666667  0.0000000  )

     number of k points=    51  Marzari-Vanderbilt smearing, width (Ry)=  0.0050
                       cart. coord. in units 2pi/alat
        k(    1) = (   0.0000000   0.0000000   0.0000000), wk =   0.0392157
        k(    2) = (  -0.0158714   0.0274938   0.0000000), wk =   0.0392157
        k(    3) = (  -0.0317429   0.0549876   0.0000000), wk =   0.0392157
        k(    4) = (  -0.0476143   0.0824814   0.0000000), wk =   0.0392157
        k(    5) = (  -0.0634857   0.1099752   0.0000000), wk =   0.0392157
        k(    6) = (  -0.0793571   0.1374690   0.0000000), wk =   0.0392157
        k(    7) = (  -0.0952286   0.1649628   0.0000000), wk =   0.0392157
        k(    8) = (  -0.1111000   0.1924566   0.0000000), wk =   0.0392157
        k(    9) = (  -0.1269714   0.2199504   0.0000000), wk =   0.0392157
        k(   10) = (  -0.1428429   0.2474442   0.0000000), wk =   0.0392157
        k(   11) = (  -0.1587143   0.2749380   0.0000000), wk =   0.0392157
        k(   12) = (  -0.1745857   0.3024319   0.0000000), wk =   0.0392157
        k(   13) = (  -0.1904571   0.3299257   0.0000000), wk =   0.0392157
        k(   14) = (  -0.2063286   0.3574195   0.0000000), wk =   0.0392157
        k(   15) = (  -0.2222000   0.3849133   0.0000000), wk =   0.0392157
        k(   16) = (  -0.2380714   0.4124071   0.0000000), wk =   0.0392157
        k(   17) = (  -0.2539429   0.4399009   0.0000000), wk =   0.0392157
        k(   18) = (  -0.2698143   0.4673947   0.0000000), wk =   0.0392157
        k(   19) = (  -0.2856857   0.4948885   0.0000000), wk =   0.0392157
        k(   20) = (  -0.3015571   0.5223823   0.0000000), wk =   0.0392157
        k(   21) = (  -0.3174286   0.5498761   0.0000000), wk =   0.0392157
        k(   22) = (  -0.3333000   0.5773699   0.0000000), wk =   0.0392157
        k(   23) = (  -0.3030000   0.5773681   0.0000000), wk =   0.0392157
        k(   24) = (  -0.2727000   0.5773663   0.0000000), wk =   0.0392157
        k(   25) = (  -0.2424000   0.5773645   0.0000000), wk =   0.0392157
        k(   26) = (  -0.2121000   0.5773628   0.0000000), wk =   0.0392157
        k(   27) = (  -0.1818000   0.5773610   0.0000000), wk =   0.0392157
        k(   28) = (  -0.1515000   0.5773592   0.0000000), wk =   0.0392157
        k(   29) = (  -0.1212000   0.5773574   0.0000000), wk =   0.0392157
        k(   30) = (  -0.0909000   0.5773556   0.0000000), wk =   0.0392157
        k(   31) = (  -0.0606000   0.5773538   0.0000000), wk =   0.0392157
        k(   32) = (  -0.0303000   0.5773521   0.0000000), wk =   0.0392157
        k(   33) = (   0.0000000   0.5773503   0.0000000), wk =   0.0392157
        k(   34) = (   0.0000000   0.5452753   0.0000000), wk =   0.0392157
        k(   35) = (   0.0000000   0.5132002   0.0000000), wk =   0.0392157
        k(   36) = (   0.0000000   0.4811252   0.0000000), wk =   0.0392157
        k(   37) = (   0.0000000   0.4490502   0.0000000), wk =   0.0392157
        k(   38) = (   0.0000000   0.4169752   0.0000000), wk =   0.0392157
        k(   39) = (   0.0000000   0.3849002   0.0000000), wk =   0.0392157
        k(   40) = (   0.0000000   0.3528252   0.0000000), wk =   0.0392157
        k(   41) = (   0.0000000   0.3207501   0.0000000), wk =   0.0392157
        k(   42) = (   0.0000000   0.2886751   0.0000000), wk =   0.0392157
        k(   43) = (   0.0000000   0.2566001   0.0000000), wk =   0.0392157
        k(   44) = (   0.0000000   0.2245251   0.0000000), wk =   0.0392157
        k(   45) = (   0.0000000   0.1924501   0.0000000), wk =   0.0392157
        k(   46) = (   0.0000000   0.1603751   0.0000000), wk =   0.0392157
        k(   47) = (   0.0000000   0.1283001   0.0000000), wk =   0.0392157
        k(   48) = (   0.0000000   0.0962250   0.0000000), wk =   0.0392157
        k(   49) = (   0.0000000   0.0641500   0.0000000), wk =   0.0392157
        k(   50) = (   0.0000000   0.0320750   0.0000000), wk =   0.0392157
        k(   51) = (   0.0000000   0.0000000   0.0000000), wk =   0.0392157

                       cryst. coord.
        k(    1) = (   0.0000000   0.0000000   0.0000000), wk =   0.0392157
        k(    2) = (  -0.0158714   0.0317460   0.0000000), wk =   0.0392157
        k(    3) = (  -0.0317429   0.0634921   0.0000000), wk =   0.0392157
        k(    4) = (  -0.0476143   0.0952381   0.0000000), wk =   0.0392157
        k(    5) = (  -0.0634857   0.1269842   0.0000000), wk =   0.0392157
        k(    6) = (  -0.0793571   0.1587302   0.0000000), wk =   0.0392157
        k(    7) = (  -0.0952286   0.1904763   0.0000000), wk =   0.0392157
        k(    8) = (  -0.1111000   0.2222223   0.0000000), wk =   0.0392157
        k(    9) = (  -0.1269714   0.2539684   0.0000000), wk =   0.0392157
        k(   10) = (  -0.1428429   0.2857144   0.0000000), wk =   0.0392157
        k(   11) = (  -0.1587143   0.3174605   0.0000000), wk =   0.0392157
        k(   12) = (  -0.1745857   0.3492065   0.0000000), wk =   0.0392157
        k(   13) = (  -0.1904571   0.3809526   0.0000000), wk =   0.0392157
        k(   14) = (  -0.2063286   0.4126986   0.0000000), wk =   0.0392157
        k(   15) = (  -0.2222000   0.4444447   0.0000000), wk =   0.0392157
        k(   16) = (  -0.2380714   0.4761907   0.0000000), wk =   0.0392157
        k(   17) = (  -0.2539429   0.5079368   0.0000000), wk =   0.0392157
        k(   18) = (  -0.2698143   0.5396828   0.0000000), wk =   0.0392157
        k(   19) = (  -0.2856857   0.5714289   0.0000000), wk =   0.0392157
        k(   20) = (  -0.3015571   0.6031749   0.0000000), wk =   0.0392157
        k(   21) = (  -0.3174286   0.6349210   0.0000000), wk =   0.0392157
        k(   22) = (  -0.3333000   0.6666670   0.0000000), wk =   0.0392157
        k(   23) = (  -0.3030000   0.6515155   0.0000000), wk =   0.0392157
        k(   24) = (  -0.2727000   0.6363639   0.0000000), wk =   0.0392157
        k(   25) = (  -0.2424000   0.6212124   0.0000000), wk =   0.0392157
        k(   26) = (  -0.2121000   0.6060608   0.0000000), wk =   0.0392157
        k(   27) = (  -0.1818000   0.5909093   0.0000000), wk =   0.0392157
        k(   28) = (  -0.1515000   0.5757577   0.0000000), wk =   0.0392157
        k(   29) = (  -0.1212000   0.5606062   0.0000000), wk =   0.0392157
        k(   30) = (  -0.0909000   0.5454546   0.0000000), wk =   0.0392157
        k(   31) = (  -0.0606000   0.5303031   0.0000000), wk =   0.0392157
        k(   32) = (  -0.0303000   0.5151515   0.0000000), wk =   0.0392157
        k(   33) = (   0.0000000   0.5000000   0.0000000), wk =   0.0392157
        k(   34) = (   0.0000000   0.4722222   0.0000000), wk =   0.0392157
        k(   35) = (   0.0000000   0.4444444   0.0000000), wk =   0.0392157
        k(   36) = (   0.0000000   0.4166667   0.0000000), wk =   0.0392157
        k(   37) = (   0.0000000   0.3888889   0.0000000), wk =   0.0392157
        k(   38) = (   0.0000000   0.3611111   0.0000000), wk =   0.0392157
        k(   39) = (   0.0000000   0.3333333   0.0000000), wk =   0.0392157
        k(   40) = (   0.0000000   0.3055556   0.0000000), wk =   0.0392157
        k(   41) = (   0.0000000   0.2777778   0.0000000), wk =   0.0392157
        k(   42) = (   0.0000000   0.2500000   0.0000000), wk =   0.0392157
        k(   43) = (   0.0000000   0.2222222   0.0000000), wk =   0.0392157
        k(   44) = (   0.0000000   0.1944444   0.0000000), wk =   0.0392157
        k(   45) = (   0.0000000   0.1666667   0.0000000), wk =   0.0392157
        k(   46) = (   0.0000000   0.1388889   0.0000000), wk =   0.0392157
        k(   47) = (   0.0000000   0.1111111   0.0000000), wk =   0.0392157
        k(   48) = (   0.0000000   0.0833333   0.0000000), wk =   0.0392157
        k(   49) = (   0.0000000   0.0555556   0.0000000), wk =   0.0392157
        k(   50) = (   0.0000000   0.0277778   0.0000000), wk =   0.0392157
        k(   51) = (   0.0000000   0.0000000   0.0000000), wk =   0.0392157

     Dense  grid:    34803 G-vectors     FFT dimensions: (  24,  24, 144)

     Dynamical RAM for                 wfc:       0.13 MB

     Dynamical RAM for     wfc (w. buffer):       0.13 MB

     Dynamical RAM for           str. fact:       0.13 MB

     Dynamical RAM for           local pot:       0.00 MB

     Dynamical RAM for          nlocal pot:       0.13 MB

     Dynamical RAM for                qrad:       0.71 MB

     Dynamical RAM for          rho,v,vnew:       0.44 MB

     Dynamical RAM for           G-vectors:       0.28 MB

     Dynamical RAM for          h,s,v(r/c):       0.05 MB

     Dynamical RAM for          <psi|beta>:       0.00 MB

     Dynamical RAM for                 psi:       0.27 MB

     Dynamical RAM for                hpsi:       0.27 MB

     Dynamical RAM for      wfcinit/wfcrot:       0.27 MB

     Estimated static dynamical RAM per process >       2.42 MB

     Estimated max dynamical RAM per process >       3.01 MB

     Estimated total dynamical RAM >      24.06 MB

     The potential is recalculated from file :
     ./tmp/hBN_1L_PBE_vdW.save/charge-density



     %%%%%%%%%%%%%%%%%%%%%%%%%%%%%%%%%%%%%%%%%%%%%%%%%%%%%%%%%%%%%%%%%%%%%%%%
     %                                                                      %
     % You are using vdW-DF, which was implemented by the Thonhauser group. %
     % Please cite the following two papers that made this development      %
     % possible and the two reviews that describe the various versions:     %
     %                                                                      %
     %   T. Thonhauser et al., PRL 115, 136402 (2015).                      %
     %   T. Thonhauser et al., PRB 76, 125112 (2007).                       %
     %   K. Berland et al., Rep. Prog. Phys. 78, 066501 (2015).             %
     %   D.C. Langreth et al., J. Phys.: Condens. Matter 21, 084203 (2009). %
     %                                                                      %
     % If you are calculating stress with vdW-DF, please also cite:         %
     %                                                                      %
     %   R. Sabatini et al., J. Phys.: Condens. Matter 24, 424209 (2012).   %
     %                                                                      %
     %%%%%%%%%%%%%%%%%%%%%%%%%%%%%%%%%%%%%%%%%%%%%%%%%%%%%%%%%%%%%%%%%%%%%%%%

     %%%%%%%%%%%%%%%%%%%%%%%%%%%%%%%%%%%%%%%%%%%%%%%%%%%%%%%%%%%%%%%%%%%%%%%%
     %                                                                      %
     %  vdW-DF NEWS:                                                        %
     %                                                                      %
     %  * vdW-DF3 is now available. DOI: 10.1021/acs.jctc.0c00471           %
     %    use with input_dft = 'vdW-DF3-opt1' or 'vdW-DF3-opt2'             %
     %                                                                      %
     %  * Unscreened and range-separated hybrid vdW-DF-cx functionals       %
     %    DOI: 10.1063/1.4986522 and 10.1088/1361-648X/ac2ad2               %
     %    use with input_dft = 'vdW-DF-cx0'    and 'vdW-DF-ahcx'            %
     %  * Unscreened and range-separated hybrid vdW-DF2-b86r functionals    %
     %    DOI: 10.1063/1.4986522 and DOI: 10.1103/PhysRevX.12.041003        %
     %    use with input_dft = 'vdW-DF2-br0' and 'vdW-DF2-ahbr'             %
     %                                                                      %
     %%%%%%%%%%%%%%%%%%%%%%%%%%%%%%%%%%%%%%%%%%%%%%%%%%%%%%%%%%%%%%%%%%%%%%%%


     Carrying out vdW-DF run using the following parameters:
     Nqs    =  20  Npoints =  1024  r_max =  100.000
     q_mesh =  0.00001000  0.04494208  0.09755937  0.15916263
               0.23128650  0.31572767  0.41458969  0.53033537
               0.66584808  0.82450364  1.01025438  1.22772762
               1.48234092  1.78043706  2.12944203  2.53805004
               3.01644009  3.57652955  4.23227104  5.00000000


     -----------------------------------------------
     Non-local corr. energy    =       0.10706344 Ry
     -----------------------------------------------

     Starting wfcs are    8 randomized atomic wfcs +    8 random wfcs

     Band Structure Calculation
     Davidson diagonalization with overlap

     Computing kpt #:     1  of    51
     total cpu time spent up to now is        9.6 secs

     Computing kpt #:     2  of    51
     total cpu time spent up to now is        9.7 secs

     Computing kpt #:     3  of    51
     total cpu time spent up to now is        9.8 secs

     Computing kpt #:     4  of    51
     total cpu time spent up to now is       10.0 secs

     Computing kpt #:     5  of    51
     total cpu time spent up to now is       10.1 secs

     Computing kpt #:     6  of    51
     total cpu time spent up to now is       10.2 secs

     Computing kpt #:     7  of    51
     total cpu time spent up to now is       10.3 secs

     Computing kpt #:     8  of    51
     total cpu time spent up to now is       10.4 secs

     Computing kpt #:     9  of    51
     total cpu time spent up to now is       10.5 secs

     Computing kpt #:    10  of    51
     total cpu time spent up to now is       10.7 secs

     Computing kpt #:    11  of    51
     total cpu time spent up to now is       10.8 secs

     Computing kpt #:    12  of    51
     total cpu time spent up to now is       10.9 secs

     Computing kpt #:    13  of    51
     total cpu time spent up to now is       11.1 secs

     Computing kpt #:    14  of    51
     total cpu time spent up to now is       11.2 secs

     Computing kpt #:    15  of    51
     total cpu time spent up to now is       11.4 secs

     Computing kpt #:    16  of    51
     total cpu time spent up to now is       11.5 secs

     Computing kpt #:    17  of    51
     total cpu time spent up to now is       11.7 secs

     Computing kpt #:    18  of    51
     total cpu time spent up to now is       11.9 secs

     Computing kpt #:    19  of    51
     total cpu time spent up to now is       12.1 secs

     Computing kpt #:    20  of    51
     total cpu time spent up to now is       12.4 secs

     Computing kpt #:    21  of    51
     total cpu time spent up to now is       12.6 secs

     Computing kpt #:    22  of    51
     total cpu time spent up to now is       12.8 secs

     Computing kpt #:    23  of    51
     total cpu time spent up to now is       13.1 secs

     Computing kpt #:    24  of    51
     total cpu time spent up to now is       13.3 secs

     Computing kpt #:    25  of    51
     total cpu time spent up to now is       13.5 secs

     Computing kpt #:    26  of    51
     total cpu time spent up to now is       13.7 secs

     Computing kpt #:    27  of    51
     total cpu time spent up to now is       13.8 secs

     Computing kpt #:    28  of    51
     total cpu time spent up to now is       14.0 secs

     Computing kpt #:    29  of    51
     total cpu time spent up to now is       14.2 secs

     Computing kpt #:    30  of    51
     total cpu time spent up to now is       14.4 secs

     Computing kpt #:    31  of    51
     total cpu time spent up to now is       14.5 secs

     Computing kpt #:    32  of    51
     total cpu time spent up to now is       14.7 secs

     Computing kpt #:    33  of    51
     total cpu time spent up to now is       14.9 secs

     Computing kpt #:    34  of    51
     total cpu time spent up to now is       15.1 secs

     Computing kpt #:    35  of    51
     total cpu time spent up to now is       15.2 secs

     Computing kpt #:    36  of    51
     total cpu time spent up to now is       15.5 secs

     Computing kpt #:    37  of    51
     total cpu time spent up to now is       15.6 secs

     Computing kpt #:    38  of    51
     total cpu time spent up to now is       15.8 secs

     Computing kpt #:    39  of    51
     total cpu time spent up to now is       15.9 secs

     Computing kpt #:    40  of    51
     total cpu time spent up to now is       16.0 secs

     Computing kpt #:    41  of    51
     total cpu time spent up to now is       16.2 secs

     Computing kpt #:    42  of    51
     total cpu time spent up to now is       16.3 secs

     Computing kpt #:    43  of    51
     total cpu time spent up to now is       16.4 secs

     Computing kpt #:    44  of    51
     total cpu time spent up to now is       16.5 secs

     Computing kpt #:    45  of    51
     total cpu time spent up to now is       16.6 secs

     Computing kpt #:    46  of    51
     total cpu time spent up to now is       16.7 secs

     Computing kpt #:    47  of    51
     total cpu time spent up to now is       16.9 secs

     Computing kpt #:    48  of    51
     total cpu time spent up to now is       17.0 secs

     Computing kpt #:    49  of    51
     total cpu time spent up to now is       17.1 secs

     Computing kpt #:    50  of    51
     total cpu time spent up to now is       17.2 secs

     Computing kpt #:    51  of    51
     total cpu time spent up to now is       17.3 secs

     ethr =  1.25E-08,  avg # of iterations = 29.6

     total cpu time spent up to now is       17.3 secs

     End of band structure calculation

          k = 0.0000 0.0000 0.0000 (  4301 PWs)   bands (ev):

   -21.2154  -8.8395  -5.0141  -5.0141   0.7508   1.8471   2.5824   4.2886
     5.0082   7.6913   8.0115   8.0115   8.3611  10.1016  11.0645  14.1517

          k =-0.0159 0.0275 0.0000 (  4339 PWs)   bands (ev):

   -21.2012  -8.8206  -5.0777  -5.0441   0.7761   1.8694   2.6066   4.3102
     5.0333   7.6953   7.9931   8.0747   8.4042  10.0784  11.1011  14.1622

          k =-0.0317 0.0550 0.0000 (  4347 PWs)   bands (ev):

   -21.1580  -8.7623  -5.2605  -5.1312   0.8514   1.9368   2.6793   4.3750
     5.1082   7.7056   7.9577   8.2468   8.5334  10.0155  11.2099  14.1958

          k =-0.0476 0.0825 0.0000 (  4335 PWs)   bands (ev):

   -21.0861  -8.6651  -5.5469  -5.2732   0.9753   2.0487   2.8001   4.4821
     5.2312   7.7091   7.9298   8.4558   8.7852   9.9268  11.3882  14.2559

          k =-0.0635 0.1100 0.0000 (  4329 PWs)   bands (ev):

   -20.9860  -8.5296  -5.9194  -5.4668   1.1465   2.2045   2.9687   4.6297
     5.4005   7.6835   7.9239   8.6480   9.1811   9.8395  11.6353  14.3466

          k =-0.0794 0.1375 0.0000 (  4330 PWs)   bands (ev):

   -20.8585  -8.3568  -6.3557  -5.7065   1.3636   2.4028   3.1850   4.8137
     5.6149   7.5986   7.9498   8.8428   9.6663   9.7920  11.9553  14.4697

          k =-0.0952 0.1650 0.0000 (  4334 PWs)   bands (ev):

   -20.7043  -8.1475  -6.8359  -5.9865   1.6262   2.6414   3.4487   5.0262
     5.8736   7.4352   8.0137   9.0548   9.8217  10.1888  12.3571  14.6229

          k =-0.1111 0.1925 0.0000 (  4328 PWs)   bands (ev):

   -20.5246  -7.9028  -7.3428  -6.2997   1.9338   2.9158   3.7597   5.2484
     6.1758   7.2099   8.1199   9.2870   9.9449  10.7099  12.8496  14.7956

          k =-0.1270 0.2200 0.0000 (  4346 PWs)   bands (ev):

   -20.3209  -7.8630  -7.6246  -6.6396   2.2862   3.2170   4.1181   5.4335
     6.5212   6.9946   8.2688   9.5381  10.1548  11.2075  13.4284  14.9599

          k =-0.1428 0.2474 0.0000 (  4354 PWs)   bands (ev):

   -20.0952  -8.3835  -7.3148  -6.9988   2.6833   3.5231   4.5237   5.4928
     6.9089   6.9261   8.4604   9.8053  10.4347  11.6812  14.0710  15.0488

          k =-0.1587 0.2749 0.0000 (  4366 PWs)   bands (ev):

   -19.8498  -8.8947  -7.3710  -6.9762   3.1250   3.7747   4.9765   5.4146
     7.0970   7.3381   8.6912  10.0855  10.7654  12.1432  14.7364  14.9387

          k =-0.1746 0.3024 0.0000 (  4364 PWs)   bands (ev):

   -19.5880  -9.3868  -7.7499  -6.6125   3.6107   3.8399   5.4102   5.4764
     7.4464   7.8067   8.9562  10.3764  11.1221  12.6101  14.5814  15.3624

          k =-0.1905 0.3299 0.0000 (  4372 PWs)   bands (ev):

   -19.3141  -9.8520  -8.1302  -6.2285   3.6332   4.1401   5.6540   6.0232
     7.8958   8.3115   9.2472  10.6779  11.4610  13.0942  14.1361  15.8353

          k =-0.2063 0.3574 0.0000 (  4378 PWs)   bands (ev):

   -19.0336 -10.2810  -8.5072  -5.8303   3.2618   4.7120   6.0841   6.6165
     8.4047   8.8454   9.5544  10.9944  11.6902  13.6030  13.8196  15.9397

          k =-0.2222 0.3849 0.0000 (  4390 PWs)   bands (ev):

   -18.7532 -10.6654  -8.8766  -5.4261   2.8363   5.3252   6.6104   7.2558
     8.9445   9.3893   9.8736  11.3348  11.6959  13.8151  14.1360  15.5911

          k =-0.2381 0.4124 0.0000 (  4386 PWs)   bands (ev):

   -18.4817 -10.9946  -9.2341  -5.0267   2.4120   5.9773   7.1842   7.9399
     9.4721   9.8697  10.2490  11.5477  11.7092  14.1073  14.6746  15.0392

          k =-0.2539 0.4399 0.0000 (  4388 PWs)   bands (ev):

   -18.2295 -11.2585  -9.5767  -4.6460   2.0194   6.6642   7.7622   8.6660
     9.8959  10.1739  10.7575  11.5066  12.1189  14.4564  14.4891  15.1002

          k =-0.2698 0.4674 0.0000 (  4378 PWs)   bands (ev):

   -18.0080 -11.4464  -9.9001  -4.3015   1.6794   7.3781   8.2673   9.4241
    10.1502  10.3589  11.2995  11.7940  12.5361  13.9827  14.4596  14.7590

          k =-0.2857 0.4949 0.0000 (  4370 PWs)   bands (ev):

   -17.8286 -11.5506 -10.2000  -4.0128   1.4099   8.1024   8.5716  10.1316
    10.4440  10.5544  11.7046  12.3459  12.8732  13.7944  13.9473  14.2766

          k =-0.3016 0.5224 0.0000 (  4360 PWs)   bands (ev):

   -17.6997 -11.5709 -10.4671  -3.7990   1.2228   8.6409   8.7937  10.3878
    10.9624  11.1774  11.7517  12.9131  13.1663  13.4747  13.7509  14.0478

          k =-0.3174 0.5499 0.0000 (  4384 PWs)   bands (ev):

   -17.6252 -11.5278 -10.6795  -3.6727   1.1202   8.6074   9.3247  10.5185
    11.3842  11.6113  12.1151  12.7880  13.2570  13.4697  13.4740  13.9364

          k =-0.3333 0.5774 0.0000 (  4416 PWs)   bands (ev):

   -17.6023 -11.4882 -10.7737  -3.6336   1.0907   8.5830   9.5012  10.7026
    11.1609  12.0346  12.5314  12.8028  12.9910  13.1553  13.3731  14.0071

          k =-0.3030 0.5774 0.0000 (  4374 PWs)   bands (ev):

   -17.6202 -11.5422 -10.6737  -3.6632   1.1097   8.6132   9.4019  10.4700
    11.3217  11.7803  12.4992  12.5077  12.6706  13.6143  13.6354  13.9844

          k =-0.2727 0.5774 0.0000 (  4364 PWs)   bands (ev):

   -17.6681 -11.6708 -10.4194  -3.7434   1.1492   8.7064   9.1773  10.1133
    11.2810  11.4253  12.1519  12.2783  12.3266  13.7154  13.8241  14.0214

          k =-0.2424 0.5774 0.0000 (  4354 PWs)   bands (ev):

   -17.7356 -11.8189 -10.0813  -3.8538   1.1898   8.8508   8.8751   9.7704
    10.9479  11.0963  11.8055  11.9873  12.0515  13.5058  13.5598  14.2174

          k =-0.2121 0.5774 0.0000 (  4368 PWs)   bands (ev):

   -17.8135 -11.9628  -9.7006  -3.9789   1.2190   8.5040   9.0165   9.4645
    10.5114  10.8079  11.4945  11.6607  11.8813  13.2744  13.3171  14.0883

          k =-0.1818 0.5774 0.0000 (  4352 PWs)   bands (ev):

   -17.8938 -12.0925  -9.3035  -4.1048   1.2330   8.0714   9.1629   9.2039
    10.0899  10.5640  11.2245  11.3712  11.7856  13.0236  13.1497  13.8777

          k =-0.1515 0.5774 0.0000 (  4354 PWs)   bands (ev):

   -17.9706 -12.2052  -8.9125  -4.2233   1.2329   7.6010   8.9882   9.2566
     9.7345  10.3645  10.9956  11.1260  11.7556  12.8150  13.0020  13.6608

          k =-0.1212 0.5774 0.0000 (  4358 PWs)   bands (ev):

   -18.0390 -12.2986  -8.5491  -4.3274   1.2231   7.1344   8.8151   9.2911
     9.4564  10.2068  10.8080  10.9260  11.7584  12.6496  12.8764  13.4790

          k =-0.0909 0.5774 0.0000 (  4364 PWs)   bands (ev):

   -18.0955 -12.3721  -8.2351  -4.4122   1.2092   6.7172   8.6819   9.2506
     9.2846  10.0872  10.6619  10.7709  11.7614  12.5255  12.7754  13.3357

          k =-0.0606 0.5774 0.0000 (  4370 PWs)   bands (ev):

   -18.1376 -12.4248  -7.9914  -4.4748   1.1955   6.3883   8.5873   9.1092
     9.2617  10.0028  10.5573  10.6603  11.7548  12.4396  12.7015  13.2326

          k =-0.0303 0.5774 0.0000 (  4362 PWs)   bands (ev):

   -18.1634 -12.4563  -7.8364  -4.5132   1.1858   6.1784   8.5308   9.0265
     9.2410   9.9524  10.4946  10.5941  11.7451  12.3890  12.6567  13.1705

          k = 0.0000 0.5774 0.0000 (  4348 PWs)   bands (ev):

   -18.1720 -12.4667  -7.7830  -4.5259   1.1824   6.1062   8.5121   8.9993
     9.2331   9.9356  10.4737  10.5720  11.7407  12.3723  12.6418  13.1498

          k = 0.0000 0.5453 0.0000 (  4372 PWs)   bands (ev):

   -18.2161 -12.3986  -7.7675  -4.5961   1.2725   6.0650   8.0223   8.7496
     9.5001   9.7461  10.3779  11.3230  11.3935  12.1077  12.8434  13.6963

          k = 0.0000 0.5132 0.0000 (  4376 PWs)   bands (ev):

   -18.3413 -12.1993  -7.7203  -4.7929   1.5280   5.9174   7.4682   8.0539
     8.8849  10.3325  10.3632  11.3959  11.4034  12.3482  13.3814  14.3035

          k = 0.0000 0.4811 0.0000 (  4390 PWs)   bands (ev):

   -18.5311 -11.8873  -7.6422  -5.0838   1.9109   5.6121   7.0804   7.3743
     8.1631   9.7501  10.5315  11.3179  12.0435  13.2838  13.4366  14.2830

          k = 0.0000 0.4491 0.0000 (  4398 PWs)   bands (ev):

   -18.7652 -11.4838  -7.5340  -5.4334   2.3770   5.1608   6.7386   6.8320
     7.5294   9.1181   9.9431  11.9910  12.3413  13.5371  13.7421  14.4054

          k = 0.0000 0.4170 0.0000 (  4374 PWs)   bands (ev):

   -19.0249 -11.0093  -7.3968  -5.8114   2.8789   4.6428   6.1647   6.5195
     7.1136   8.5215   9.3471  12.0778  12.3706  13.6015  14.0985  15.3206

          k = 0.0000 0.3849 0.0000 (  4382 PWs)   bands (ev):

   -19.2956 -10.4825  -7.2336  -6.1985   3.3545   4.1170   5.6833   6.0277
     6.9685   7.9754   8.7999  11.6583  12.1541  13.8018  14.7079  14.9070

          k = 0.0000 0.3528 0.0000 (  4374 PWs)   bands (ev):

   -19.5659  -9.9174  -7.0462  -6.5792   3.6109   3.6946   5.3709   5.5044
     6.9065   7.4957   8.3223  11.2289  11.7125  13.8776  14.0793  15.1346

          k = 0.0000 0.3208 0.0000 (  4352 PWs)   bands (ev):

   -19.8277  -9.3270  -6.9440  -6.8376   3.1365   3.7447   5.0090   5.3328
     6.8267   7.1140   7.9466  10.8272  11.2408  13.2441  13.7039  15.2729

          k = 0.0000 0.2887 0.0000 (  4354 PWs)   bands (ev):

   -20.0752  -8.7242  -7.2863  -6.6122   2.6998   3.5364   4.5544   5.4427
     6.6679   6.9042   7.7150  10.4714  10.7814  12.4192  13.3901  15.1925

          k = 0.0000 0.2566 0.0000 (  4340 PWs)   bands (ev):

   -20.3039  -8.1201  -7.6008  -6.3746   2.3038   3.2386   4.1446   5.4282
     6.4230   6.9496   7.6274  10.1754  10.3474  11.6246  13.0204  15.0183

          k = 0.0000 0.2245 0.0000 (  4324 PWs)   bands (ev):

   -20.5110  -7.8838  -7.5267  -6.1312   1.9503   2.9357   3.7814   5.2595
     6.1419   7.1719   7.6296   9.9436   9.9543  10.8740  12.6379  14.8220

          k = 0.0000 0.1925 0.0000 (  4324 PWs)   bands (ev):

   -20.6940  -8.1332  -6.9588  -5.8898   1.6402   2.6571   3.4653   5.0389
     5.8667   7.4133   7.6750   9.5739   9.8235  10.1811  12.2687  14.6367

          k = 0.0000 0.1604 0.0000 (  4316 PWs)   bands (ev):

   -20.8511  -8.3467  -6.4308  -5.6587   1.3745   2.4141   3.1969   4.8239
     5.6181   7.5889   7.7406   9.2422   9.5616   9.7893  11.9300  14.4776

          k = 0.0000 0.1283 0.0000 (  4334 PWs)   bands (ev):

   -20.9813  -8.5232  -5.9606  -5.4489   1.1540   2.2119   2.9766   4.6365
     5.4058   7.6804   7.8122   8.9528   9.0281   9.8355  11.6343  14.3510

          k = 0.0000 0.0962 0.0000 (  4342 PWs)   bands (ev):

   -21.0834  -8.6615  -5.5663  -5.2696   0.9798   2.0529   2.8045   4.4861
     5.2352   7.7088   7.8825   8.5946   8.7120   9.9237  11.3924  14.2582

          k = 0.0000 0.0642 0.0000 (  4337 PWs)   bands (ev):

   -21.1567  -8.7605  -5.2672  -5.1312   0.8535   1.9387   2.6813   4.3769
     5.1102   7.7060   7.9447   8.2744   8.5266  10.0141  11.2127  14.1968

          k = 0.0000 0.0321 0.0000 (  4337 PWs)   bands (ev):

   -21.2009  -8.8201  -5.0792  -5.0446   0.7766   1.8699   2.6071   4.3106
     5.0338   7.6955   7.9918   8.0773   8.4049  10.0780  11.1018  14.1624

          k = 0.0000 0.0000 0.0000 (  4301 PWs)   bands (ev):

   -21.2154  -8.8395  -5.0141  -5.0141   0.7508   1.8471   2.5824   4.2886
     5.0082   7.6913   8.0115   8.0115   8.3611  10.1016  11.0645  14.1517

     Writing all to output data dir ./tmp/hBN_1L_PBE_vdW.save/

     init_run     :      9.37s CPU      9.42s WALL (       1 calls)
     electrons    :      7.71s CPU      7.78s WALL (       1 calls)

     Called by init_run:
     wfcinit      :      0.00s CPU      0.00s WALL (       1 calls)
     wfcinit:atom :      0.00s CPU      0.01s WALL (      51 calls)
     wfcinit:wfcr :      0.26s CPU      0.27s WALL (      51 calls)
     potinit      :      9.06s CPU      9.11s WALL (       1 calls)
     hinit0       :      0.29s CPU      0.29s WALL (       1 calls)

     Called by electrons:
     c_bands      :      7.71s CPU      7.78s WALL (       1 calls)
     v_of_rho     :      9.06s CPU      9.10s WALL (       1 calls)
     v_h          :      0.00s CPU      0.00s WALL (       1 calls)
     v_xc         :      9.06s CPU      9.10s WALL (       1 calls)
     vdW_kernel   :      9.03s CPU      9.07s WALL (       1 calls)

     Called by c_bands:
     init_us_2    :      0.01s CPU      0.01s WALL (      51 calls)
     init_us_2:cp :      0.01s CPU      0.01s WALL (      51 calls)
     cegterg      :      7.41s CPU      7.47s WALL (     101 calls)

     Called by sum_band:

     Called by *egterg:
     cdiaghg      :      0.54s CPU      0.55s WALL (    1561 calls)
     cegterg:over :      0.63s CPU      0.64s WALL (    1510 calls)
     cegterg:upda :      0.50s CPU      0.47s WALL (    1510 calls)
     cegterg:last :      0.83s CPU      0.64s WALL (    1070 calls)
     h_psi        :      4.87s CPU      5.08s WALL (    1662 calls)
     g_psi        :      0.05s CPU      0.07s WALL (    1510 calls)

     Called by h_psi:
     h_psi:calbec :      0.19s CPU      0.20s WALL (    1662 calls)
     vloc_psi     :      4.39s CPU      4.56s WALL (    1662 calls)
     add_vuspsi   :      0.26s CPU      0.28s WALL (    1662 calls)

     General routines
     calbec       :      0.19s CPU      0.19s WALL (    1662 calls)
     fft          :      0.26s CPU      0.27s WALL (      61 calls)
     fftw         :      3.98s CPU      4.12s WALL (   32956 calls)
     davcio       :      0.00s CPU      0.01s WALL (     102 calls)

     Parallel routines

     PWSCF        :     17.26s CPU     17.45s WALL


   This run was terminated on:  10:40:44  16Apr2024            

=------------------------------------------------------------------------------=
   JOB DONE.
=------------------------------------------------------------------------------=
