
     Program PWSCF v.6.7MaX starts on 14Feb2024 at 12:56: 0 

     This program is part of the open-source Quantum ESPRESSO suite
     for quantum simulation of materials; please cite
         "P. Giannozzi et al., J. Phys.:Condens. Matter 21 395502 (2009);
         "P. Giannozzi et al., J. Phys.:Condens. Matter 29 465901 (2017);
          URL http://www.quantum-espresso.org", 
     in publications or presentations arising from this work. More details at
     http://www.quantum-espresso.org/quote

     Parallel version (MPI), running on     1 processors

     MPI processes distributed on     1 nodes
     Waiting for input...
     Reading input from standard input

     Current dimensions of program PWSCF are:
     Max number of different atomic species (ntypx) = 10
     Max number of k-points (npk) =  40000
     Max angular momentum in pseudopotentials (lmaxx) =  3
     Message from routine read_pp_mesh:
     mesh size missing, using the one in header
     Message from routine read_pp_mesh:
     mesh size missing, using the one in header

     Subspace diagonalization in iterative solution of the eigenvalue problem:
     a serial algorithm will be used


     G-vector sticks info
     --------------------
     sticks:   dense  smooth     PW     G-vecs:    dense   smooth      PW
     Sum         121     121     37                 6307     6307    1283



     bravais-lattice index     =            4
     lattice parameter (alat)  =       4.6350  a.u.
     unit-cell volume          =     517.4056 (a.u.)^3
     number of atoms/cell      =            2
     number of atomic types    =            2
     number of electrons       =         8.00
     number of Kohn-Sham states=            8
     kinetic-energy cutoff     =      20.0000  Ry
     charge density cutoff     =      80.0000  Ry
     scf convergence threshold =      1.0E-06
     mixing beta               =       0.7000
     number of iterations used =            8  plain     mixing
     Exchange-correlation= PZ
                           (   1   1   0   0   0   0   0)

     celldm(1)=   4.635000  celldm(2)=   0.000000  celldm(3)=   6.000000
     celldm(4)=   0.000000  celldm(5)=   0.000000  celldm(6)=   0.000000

     crystal axes: (cart. coord. in units of alat)
               a(1) = (   1.000000   0.000000   0.000000 )  
               a(2) = (  -0.500000   0.866025   0.000000 )  
               a(3) = (   0.000000   0.000000   6.000000 )  

     reciprocal axes: (cart. coord. in units 2 pi/alat)
               b(1) = (  1.000000  0.577350 -0.000000 )  
               b(2) = (  0.000000  1.154701  0.000000 )  
               b(3) = (  0.000000 -0.000000  0.166667 )  


     PseudoPot. # 1 for N  read from file:
     ../../../../Pseudo/LDA/N.upf
     MD5 check sum: eaa4f6f5012208d670216a7009287cf2
     Pseudo is Norm-conserving + core correction, Zval =  5.0
     Generated using ONCVPSP code by D. R. Hamann
     Using radial grid of 1054 points,  4 beta functions with: 
                l(1) =   0
                l(2) =   0
                l(3) =   1
                l(4) =   1

     PseudoPot. # 2 for B  read from file:
     ../../../../Pseudo/LDA/B.upf
     MD5 check sum: 3e2a19024e57b4f161828f4b68a773bc
     Pseudo is Norm-conserving + core correction, Zval =  3.0
     Generated using ONCVPSP code by D. R. Hamann
     Using radial grid of 1508 points,  4 beta functions with: 
                l(1) =   0
                l(2) =   0
                l(3) =   1
                l(4) =   1

     atomic species   valence    mass     pseudopotential
        N              5.00    14.00670     N ( 1.00)
        B              3.00    10.80100     B ( 1.00)

     12 Sym. Ops. (no inversion) found


                                    s                        frac. trans.

      isym =  1     identity                                     

 cryst.   s( 1) = (     1          0          0      )
                  (     0          1          0      )
                  (     0          0          1      )

 cart.    s( 1) = (  1.0000000  0.0000000  0.0000000 )
                  (  0.0000000  1.0000000  0.0000000 )
                  (  0.0000000  0.0000000  1.0000000 )


      isym =  2     180 deg rotation - cart. axis [0,1,0]        

 cryst.   s( 2) = (    -1          0          0      )
                  (     1          1          0      )
                  (     0          0         -1      )

 cart.    s( 2) = ( -1.0000000  0.0000000  0.0000000 )
                  (  0.0000000  1.0000000  0.0000000 )
                  (  0.0000000  0.0000000 -1.0000000 )


      isym =  3     120 deg rotation - cryst. axis [0,0,1]       

 cryst.   s( 3) = (     0          1          0      )
                  (    -1         -1          0      )
                  (     0          0          1      )

 cart.    s( 3) = ( -0.5000000 -0.8660254  0.0000000 )
                  (  0.8660254 -0.5000000  0.0000000 )
                  (  0.0000000  0.0000000  1.0000000 )


      isym =  4     120 deg rotation - cryst. axis [0,0,-1]      

 cryst.   s( 4) = (    -1         -1          0      )
                  (     1          0          0      )
                  (     0          0          1      )

 cart.    s( 4) = ( -0.5000000  0.8660254  0.0000000 )
                  ( -0.8660254 -0.5000000  0.0000000 )
                  (  0.0000000  0.0000000  1.0000000 )


      isym =  5     180 deg rotation - cryst. axis [1,-1,0]      

 cryst.   s( 5) = (     0         -1          0      )
                  (    -1          0          0      )
                  (     0          0         -1      )

 cart.    s( 5) = (  0.5000000 -0.8660254  0.0000000 )
                  ( -0.8660254 -0.5000000  0.0000000 )
                  (  0.0000000  0.0000000 -1.0000000 )


      isym =  6     180 deg rotation - cryst. axis [2,1,0]       

 cryst.   s( 6) = (     1          1          0      )
                  (     0         -1          0      )
                  (     0          0         -1      )

 cart.    s( 6) = (  0.5000000  0.8660254  0.0000000 )
                  (  0.8660254 -0.5000000  0.0000000 )
                  (  0.0000000  0.0000000 -1.0000000 )


      isym =  7     inv. 180 deg rotation - cart. axis [0,0,1]   

 cryst.   s( 7) = (     1          0          0      )
                  (     0          1          0      )
                  (     0          0         -1      )

 cart.    s( 7) = (  1.0000000  0.0000000  0.0000000 )
                  (  0.0000000  1.0000000  0.0000000 )
                  (  0.0000000  0.0000000 -1.0000000 )


      isym =  8     inv. 180 deg rotation - cart. axis [1,0,0]   

 cryst.   s( 8) = (    -1          0          0      )
                  (     1          1          0      )
                  (     0          0          1      )

 cart.    s( 8) = ( -1.0000000  0.0000000  0.0000000 )
                  (  0.0000000  1.0000000  0.0000000 )
                  (  0.0000000  0.0000000  1.0000000 )


      isym =  9     inv.  60 deg rotation - cryst. axis [0,0,1]  

 cryst.   s( 9) = (    -1         -1          0      )
                  (     1          0          0      )
                  (     0          0         -1      )

 cart.    s( 9) = ( -0.5000000  0.8660254  0.0000000 )
                  ( -0.8660254 -0.5000000  0.0000000 )
                  (  0.0000000  0.0000000 -1.0000000 )


      isym = 10     inv.  60 deg rotation - cryst. axis [0,0,-1] 

 cryst.   s(10) = (     0          1          0      )
                  (    -1         -1          0      )
                  (     0          0         -1      )

 cart.    s(10) = ( -0.5000000 -0.8660254  0.0000000 )
                  (  0.8660254 -0.5000000  0.0000000 )
                  (  0.0000000  0.0000000 -1.0000000 )


      isym = 11     inv. 180 deg rotation - cryst. axis [0,1,0]  

 cryst.   s(11) = (     1          1          0      )
                  (     0         -1          0      )
                  (     0          0          1      )

 cart.    s(11) = (  0.5000000  0.8660254  0.0000000 )
                  (  0.8660254 -0.5000000  0.0000000 )
                  (  0.0000000  0.0000000  1.0000000 )


      isym = 12     inv. 180 deg rotation - cryst. axis [1,1,0]  

 cryst.   s(12) = (     0         -1          0      )
                  (    -1          0          0      )
                  (     0          0          1      )

 cart.    s(12) = (  0.5000000 -0.8660254  0.0000000 )
                  ( -0.8660254 -0.5000000  0.0000000 )
                  (  0.0000000  0.0000000  1.0000000 )


     point group D_3h (-62m)
     there are  6 classes
     the character table:

       E     2C3   3C2   s_h   2S3   3s_v 
A'_1   1.00  1.00  1.00  1.00  1.00  1.00
A'_2   1.00  1.00 -1.00  1.00  1.00 -1.00
E'     2.00 -1.00  0.00  2.00 -1.00  0.00
A''1   1.00  1.00  1.00 -1.00 -1.00 -1.00
A''2   1.00  1.00 -1.00 -1.00 -1.00  1.00
E''    2.00 -1.00  0.00 -2.00  1.00  0.00

     the symmetry operations in each class and the name of the first element:

     E        1
          identity                                               
     2C3      3    4
          120 deg rotation - cryst. axis [0,0,1]                 
     3C2      2    6    5
          180 deg rotation - cart. axis [0,1,0]                  
     s_h      7
          inv. 180 deg rotation - cart. axis [0,0,1]             
     2S3      9   10
          inv.  60 deg rotation - cryst. axis [0,0,1]            
     3s_v     8   11   12
          inv. 180 deg rotation - cart. axis [1,0,0]             

   Cartesian axes

     site n.     atom                  positions (alat units)
         1           B   tau(   1) = (   0.0000000   0.0000000   0.0000000  )
         2           N   tau(   2) = (  -0.0000000   0.5773503   0.0000000  )

   Crystallographic axes

     site n.     atom                  positions (cryst. coord.)
         1           B   tau(   1) = (  0.0000000  0.0000000  0.0000000  )
         2           N   tau(   2) = (  0.3333333  0.6666667  0.0000000  )

     number of k points=    80  Marzari-Vanderbilt smearing, width (Ry)=  0.0100
                       cart. coord. in units 2pi/alat
        k(    1) = (   0.0000000   0.0000000   0.0000000), wk =   0.0025510
        k(    2) = (   0.0000000   0.0412393   0.0000000), wk =   0.0153061
        k(    3) = (   0.0000000   0.0824786   0.0000000), wk =   0.0153061
        k(    4) = (   0.0000000   0.1237179   0.0000000), wk =   0.0153061
        k(    5) = (   0.0000000   0.1649572   0.0000000), wk =   0.0153061
        k(    6) = (   0.0000000   0.2061965   0.0000000), wk =   0.0153061
        k(    7) = (   0.0000000   0.2474358   0.0000000), wk =   0.0153061
        k(    8) = (   0.0000000   0.2886751   0.0000000), wk =   0.0153061
        k(    9) = (   0.0000000   0.3299144   0.0000000), wk =   0.0153061
        k(   10) = (   0.0000000   0.3711537   0.0000000), wk =   0.0153061
        k(   11) = (   0.0000000   0.4123930   0.0000000), wk =   0.0153061
        k(   12) = (   0.0000000   0.4536324   0.0000000), wk =   0.0153061
        k(   13) = (   0.0000000   0.4948717   0.0000000), wk =   0.0153061
        k(   14) = (   0.0000000   0.5361110   0.0000000), wk =   0.0153061
        k(   15) = (   0.0000000  -0.5773503   0.0000000), wk =   0.0076531
        k(   16) = (   0.0357143   0.0618590   0.0000000), wk =   0.0153061
        k(   17) = (   0.0357143   0.1030983   0.0000000), wk =   0.0306122
        k(   18) = (   0.0357143   0.1443376   0.0000000), wk =   0.0306122
        k(   19) = (   0.0357143   0.1855769   0.0000000), wk =   0.0306122
        k(   20) = (   0.0357143   0.2268162   0.0000000), wk =   0.0306122
        k(   21) = (   0.0357143   0.2680555   0.0000000), wk =   0.0306122
        k(   22) = (   0.0357143   0.3092948   0.0000000), wk =   0.0306122
        k(   23) = (   0.0357143   0.3505341   0.0000000), wk =   0.0306122
        k(   24) = (   0.0357143   0.3917734   0.0000000), wk =   0.0306122
        k(   25) = (   0.0357143   0.4330127   0.0000000), wk =   0.0306122
        k(   26) = (   0.0357143   0.4742520   0.0000000), wk =   0.0306122
        k(   27) = (   0.0357143   0.5154913   0.0000000), wk =   0.0306122
        k(   28) = (   0.0357143   0.5567306   0.0000000), wk =   0.0306122
        k(   29) = (   0.0714286   0.1237179   0.0000000), wk =   0.0153061
        k(   30) = (   0.0714286   0.1649572   0.0000000), wk =   0.0306122
        k(   31) = (   0.0714286   0.2061965   0.0000000), wk =   0.0306122
        k(   32) = (   0.0714286   0.2474358   0.0000000), wk =   0.0306122
        k(   33) = (   0.0714286   0.2886751   0.0000000), wk =   0.0306122
        k(   34) = (   0.0714286   0.3299144   0.0000000), wk =   0.0306122
        k(   35) = (   0.0714286   0.3711537   0.0000000), wk =   0.0306122
        k(   36) = (   0.0714286   0.4123930   0.0000000), wk =   0.0306122
        k(   37) = (   0.0714286   0.4536324   0.0000000), wk =   0.0306122
        k(   38) = (   0.0714286   0.4948717   0.0000000), wk =   0.0306122
        k(   39) = (   0.0714286   0.5361110   0.0000000), wk =   0.0306122
        k(   40) = (   0.0714286   0.5773503   0.0000000), wk =   0.0153061
        k(   41) = (   0.1071429   0.1855769   0.0000000), wk =   0.0153061
        k(   42) = (   0.1071429   0.2268162   0.0000000), wk =   0.0306122
        k(   43) = (   0.1071429   0.2680555   0.0000000), wk =   0.0306122
        k(   44) = (   0.1071429   0.3092948   0.0000000), wk =   0.0306122
        k(   45) = (   0.1071429   0.3505341   0.0000000), wk =   0.0306122
        k(   46) = (   0.1071429   0.3917734   0.0000000), wk =   0.0306122
        k(   47) = (   0.1071429   0.4330127   0.0000000), wk =   0.0306122
        k(   48) = (   0.1071429   0.4742520   0.0000000), wk =   0.0306122
        k(   49) = (   0.1071429   0.5154913   0.0000000), wk =   0.0306122
        k(   50) = (   0.1071429   0.5567306   0.0000000), wk =   0.0306122
        k(   51) = (   0.1428571   0.2474358   0.0000000), wk =   0.0153061
        k(   52) = (   0.1428571   0.2886751   0.0000000), wk =   0.0306122
        k(   53) = (   0.1428571   0.3299144   0.0000000), wk =   0.0306122
        k(   54) = (   0.1428571   0.3711537   0.0000000), wk =   0.0306122
        k(   55) = (   0.1428571   0.4123930   0.0000000), wk =   0.0306122
        k(   56) = (   0.1428571   0.4536324   0.0000000), wk =   0.0306122
        k(   57) = (   0.1428571   0.4948717   0.0000000), wk =   0.0306122
        k(   58) = (   0.1428571   0.5361110   0.0000000), wk =   0.0306122
        k(   59) = (   0.1428571   0.5773503   0.0000000), wk =   0.0153061
        k(   60) = (   0.1785714   0.3092948   0.0000000), wk =   0.0153061
        k(   61) = (   0.1785714   0.3505341   0.0000000), wk =   0.0306122
        k(   62) = (   0.1785714   0.3917734   0.0000000), wk =   0.0306122
        k(   63) = (   0.1785714   0.4330127   0.0000000), wk =   0.0306122
        k(   64) = (   0.1785714   0.4742520   0.0000000), wk =   0.0306122
        k(   65) = (   0.1785714   0.5154913   0.0000000), wk =   0.0306122
        k(   66) = (   0.1785714   0.5567306   0.0000000), wk =   0.0306122
        k(   67) = (   0.2142857   0.3711537   0.0000000), wk =   0.0153061
        k(   68) = (   0.2142857   0.4123930   0.0000000), wk =   0.0306122
        k(   69) = (   0.2142857   0.4536324   0.0000000), wk =   0.0306122
        k(   70) = (   0.2142857   0.4948717   0.0000000), wk =   0.0306122
        k(   71) = (   0.2142857   0.5361110   0.0000000), wk =   0.0306122
        k(   72) = (   0.2142857   0.5773503   0.0000000), wk =   0.0153061
        k(   73) = (   0.2500000   0.4330127   0.0000000), wk =   0.0153061
        k(   74) = (   0.2500000   0.4742520   0.0000000), wk =   0.0306122
        k(   75) = (   0.2500000   0.5154913   0.0000000), wk =   0.0306122
        k(   76) = (   0.2500000   0.5567306   0.0000000), wk =   0.0306122
        k(   77) = (   0.2857143   0.4948717   0.0000000), wk =   0.0153061
        k(   78) = (   0.2857143   0.5361110   0.0000000), wk =   0.0306122
        k(   79) = (   0.2857143   0.5773503   0.0000000), wk =   0.0153061
        k(   80) = (   0.3214286   0.5567306   0.0000000), wk =   0.0153061

                       cryst. coord.
        k(    1) = (   0.0000000   0.0000000   0.0000000), wk =   0.0025510
        k(    2) = (   0.0000000   0.0357143   0.0000000), wk =   0.0153061
        k(    3) = (   0.0000000   0.0714286   0.0000000), wk =   0.0153061
        k(    4) = (   0.0000000   0.1071429   0.0000000), wk =   0.0153061
        k(    5) = (   0.0000000   0.1428571   0.0000000), wk =   0.0153061
        k(    6) = (   0.0000000   0.1785714   0.0000000), wk =   0.0153061
        k(    7) = (   0.0000000   0.2142857   0.0000000), wk =   0.0153061
        k(    8) = (   0.0000000   0.2500000   0.0000000), wk =   0.0153061
        k(    9) = (   0.0000000   0.2857143   0.0000000), wk =   0.0153061
        k(   10) = (   0.0000000   0.3214286   0.0000000), wk =   0.0153061
        k(   11) = (   0.0000000   0.3571429   0.0000000), wk =   0.0153061
        k(   12) = (   0.0000000   0.3928571   0.0000000), wk =   0.0153061
        k(   13) = (   0.0000000   0.4285714   0.0000000), wk =   0.0153061
        k(   14) = (   0.0000000   0.4642857   0.0000000), wk =   0.0153061
        k(   15) = (   0.0000000  -0.5000000   0.0000000), wk =   0.0076531
        k(   16) = (   0.0357143   0.0357143   0.0000000), wk =   0.0153061
        k(   17) = (   0.0357143   0.0714286   0.0000000), wk =   0.0306122
        k(   18) = (   0.0357143   0.1071429   0.0000000), wk =   0.0306122
        k(   19) = (   0.0357143   0.1428571   0.0000000), wk =   0.0306122
        k(   20) = (   0.0357143   0.1785714   0.0000000), wk =   0.0306122
        k(   21) = (   0.0357143   0.2142857   0.0000000), wk =   0.0306122
        k(   22) = (   0.0357143   0.2500000   0.0000000), wk =   0.0306122
        k(   23) = (   0.0357143   0.2857143   0.0000000), wk =   0.0306122
        k(   24) = (   0.0357143   0.3214286   0.0000000), wk =   0.0306122
        k(   25) = (   0.0357143   0.3571429   0.0000000), wk =   0.0306122
        k(   26) = (   0.0357143   0.3928571   0.0000000), wk =   0.0306122
        k(   27) = (   0.0357143   0.4285714   0.0000000), wk =   0.0306122
        k(   28) = (   0.0357143   0.4642857   0.0000000), wk =   0.0306122
        k(   29) = (   0.0714286   0.0714286   0.0000000), wk =   0.0153061
        k(   30) = (   0.0714286   0.1071429   0.0000000), wk =   0.0306122
        k(   31) = (   0.0714286   0.1428571   0.0000000), wk =   0.0306122
        k(   32) = (   0.0714286   0.1785714   0.0000000), wk =   0.0306122
        k(   33) = (   0.0714286   0.2142857   0.0000000), wk =   0.0306122
        k(   34) = (   0.0714286   0.2500000   0.0000000), wk =   0.0306122
        k(   35) = (   0.0714286   0.2857143   0.0000000), wk =   0.0306122
        k(   36) = (   0.0714286   0.3214286   0.0000000), wk =   0.0306122
        k(   37) = (   0.0714286   0.3571429   0.0000000), wk =   0.0306122
        k(   38) = (   0.0714286   0.3928571   0.0000000), wk =   0.0306122
        k(   39) = (   0.0714286   0.4285714   0.0000000), wk =   0.0306122
        k(   40) = (   0.0714286   0.4642857   0.0000000), wk =   0.0153061
        k(   41) = (   0.1071429   0.1071429   0.0000000), wk =   0.0153061
        k(   42) = (   0.1071429   0.1428571   0.0000000), wk =   0.0306122
        k(   43) = (   0.1071429   0.1785714   0.0000000), wk =   0.0306122
        k(   44) = (   0.1071429   0.2142857   0.0000000), wk =   0.0306122
        k(   45) = (   0.1071429   0.2500000   0.0000000), wk =   0.0306122
        k(   46) = (   0.1071429   0.2857143   0.0000000), wk =   0.0306122
        k(   47) = (   0.1071429   0.3214286   0.0000000), wk =   0.0306122
        k(   48) = (   0.1071429   0.3571429   0.0000000), wk =   0.0306122
        k(   49) = (   0.1071429   0.3928571   0.0000000), wk =   0.0306122
        k(   50) = (   0.1071429   0.4285714   0.0000000), wk =   0.0306122
        k(   51) = (   0.1428571   0.1428571   0.0000000), wk =   0.0153061
        k(   52) = (   0.1428571   0.1785714   0.0000000), wk =   0.0306122
        k(   53) = (   0.1428571   0.2142857   0.0000000), wk =   0.0306122
        k(   54) = (   0.1428571   0.2500000   0.0000000), wk =   0.0306122
        k(   55) = (   0.1428571   0.2857143   0.0000000), wk =   0.0306122
        k(   56) = (   0.1428571   0.3214286   0.0000000), wk =   0.0306122
        k(   57) = (   0.1428571   0.3571429   0.0000000), wk =   0.0306122
        k(   58) = (   0.1428571   0.3928571   0.0000000), wk =   0.0306122
        k(   59) = (   0.1428571   0.4285714   0.0000000), wk =   0.0153061
        k(   60) = (   0.1785714   0.1785714   0.0000000), wk =   0.0153061
        k(   61) = (   0.1785714   0.2142857   0.0000000), wk =   0.0306122
        k(   62) = (   0.1785714   0.2500000   0.0000000), wk =   0.0306122
        k(   63) = (   0.1785714   0.2857143   0.0000000), wk =   0.0306122
        k(   64) = (   0.1785714   0.3214286   0.0000000), wk =   0.0306122
        k(   65) = (   0.1785714   0.3571429   0.0000000), wk =   0.0306122
        k(   66) = (   0.1785714   0.3928571   0.0000000), wk =   0.0306122
        k(   67) = (   0.2142857   0.2142857   0.0000000), wk =   0.0153061
        k(   68) = (   0.2142857   0.2500000   0.0000000), wk =   0.0306122
        k(   69) = (   0.2142857   0.2857143   0.0000000), wk =   0.0306122
        k(   70) = (   0.2142857   0.3214286   0.0000000), wk =   0.0306122
        k(   71) = (   0.2142857   0.3571429   0.0000000), wk =   0.0306122
        k(   72) = (   0.2142857   0.3928571   0.0000000), wk =   0.0153061
        k(   73) = (   0.2500000   0.2500000   0.0000000), wk =   0.0153061
        k(   74) = (   0.2500000   0.2857143   0.0000000), wk =   0.0306122
        k(   75) = (   0.2500000   0.3214286   0.0000000), wk =   0.0306122
        k(   76) = (   0.2500000   0.3571429   0.0000000), wk =   0.0306122
        k(   77) = (   0.2857143   0.2857143   0.0000000), wk =   0.0153061
        k(   78) = (   0.2857143   0.3214286   0.0000000), wk =   0.0306122
        k(   79) = (   0.2857143   0.3571429   0.0000000), wk =   0.0153061
        k(   80) = (   0.3214286   0.3214286   0.0000000), wk =   0.0153061

     Dense  grid:     6307 G-vectors     FFT dimensions: (  15,  15,  80)

     Dynamical RAM for                 wfc:       0.10 MB

     Dynamical RAM for     wfc (w. buffer):       7.72 MB

     Dynamical RAM for           str. fact:       0.19 MB

     Dynamical RAM for           local pot:       0.00 MB

     Dynamical RAM for          nlocal pot:       0.19 MB

     Dynamical RAM for                qrad:       0.41 MB

     Dynamical RAM for          rho,v,vnew:       0.70 MB

     Dynamical RAM for               rhoin:       0.23 MB

     Dynamical RAM for            rho*nmix:       1.54 MB

     Dynamical RAM for           G-vectors:       0.41 MB

     Dynamical RAM for          h,s,v(r/c):       0.01 MB

     Dynamical RAM for          <psi|beta>:       0.00 MB

     Dynamical RAM for                 psi:       0.19 MB

     Dynamical RAM for                hpsi:       0.19 MB

     Dynamical RAM for      wfcinit/wfcrot:       0.19 MB

     Estimated static dynamical RAM per process >      12.37 MB

     Estimated max dynamical RAM per process >      12.77 MB

     Check: negative core charge=   -0.000485

     Initial potential from superposition of free atoms

     starting charge    7.99978, renormalised to    8.00000

     negative rho (up, down):  2.349E-02 0.000E+00
     Starting wfcs are    8 randomized atomic wfcs

     total cpu time spent up to now is        0.2 secs

     Self-consistent Calculation

     iteration #  1     ecut=    20.00 Ry     beta= 0.70
     Davidson diagonalization with overlap
     ethr =  1.00E-02,  avg # of iterations =  8.7

     negative rho (up, down):  6.511E-03 0.000E+00

     total cpu time spent up to now is        1.3 secs

     total energy              =     -25.87162190 Ry
     estimated scf accuracy    <       0.16147634 Ry

     iteration #  2     ecut=    20.00 Ry     beta= 0.70
     Davidson diagonalization with overlap
     ethr =  2.02E-03,  avg # of iterations =  4.1

     negative rho (up, down):  8.395E-04 0.000E+00

     total cpu time spent up to now is        2.4 secs

     total energy              =     -25.88037910 Ry
     estimated scf accuracy    <       0.00693416 Ry

     iteration #  3     ecut=    20.00 Ry     beta= 0.70
     Davidson diagonalization with overlap
     ethr =  8.67E-05,  avg # of iterations =  6.9

     negative rho (up, down):  1.157E-04 0.000E+00

     total cpu time spent up to now is        3.9 secs

     total energy              =     -25.88101392 Ry
     estimated scf accuracy    <       0.00090582 Ry

     iteration #  4     ecut=    20.00 Ry     beta= 0.70
     Davidson diagonalization with overlap
     ethr =  1.13E-05,  avg # of iterations =  4.0

     total cpu time spent up to now is        5.0 secs

     total energy              =     -25.88114307 Ry
     estimated scf accuracy    <       0.00002617 Ry

     iteration #  5     ecut=    20.00 Ry     beta= 0.70
     Davidson diagonalization with overlap
     ethr =  3.27E-07,  avg # of iterations =  2.8

     total cpu time spent up to now is        6.1 secs

     total energy              =     -25.88114959 Ry
     estimated scf accuracy    <       0.00000436 Ry

     iteration #  6     ecut=    20.00 Ry     beta= 0.70
     Davidson diagonalization with overlap
     ethr =  5.45E-08,  avg # of iterations =  1.7

     total cpu time spent up to now is        6.9 secs

     End of self-consistent calculation

          k = 0.0000 0.0000 0.0000 (   801 PWs)   bands (ev):

   -22.6744  -9.2925  -4.6381  -4.6381   0.0269   0.7840   1.0520   3.2933

     occupation numbers 
     1.0000   1.0000   1.0000   1.0000   0.0000   0.0000   0.0000   0.0000

          k = 0.0000 0.0412 0.0000 (   795 PWs)   bands (ev):

   -22.6433  -9.2511  -4.7035  -4.6644   0.0710   0.8262   1.0967   3.3347

     occupation numbers 
     1.0000   1.0000   1.0000   1.0000   0.0000   0.0000   0.0000   0.0000

          k = 0.0000 0.0825 0.0000 (   799 PWs)   bands (ev):

   -22.5695  -9.1620  -5.1001  -4.8403   0.2020   0.9509   1.2289   3.4529

     occupation numbers 
     1.0000   1.0000   1.0000   1.0000   0.0000   0.0000   0.0000   0.0000

          k = 0.0000 0.1237 0.0000 (   791 PWs)   bands (ev):

   -22.4303  -8.9791  -5.5735  -5.0639   0.4187   1.1605   1.4476   3.6540

     occupation numbers 
     1.0000   1.0000   1.0000   1.0000   0.0000   0.0000   0.0000   0.0000

          k = 0.0000 0.1650 0.0000 (   793 PWs)   bands (ev):

   -22.2476  -8.7359  -6.3089  -5.3681   0.7174   1.4525   1.7467   3.9296

     occupation numbers 
     1.0000   1.0000   1.0000   1.0000   0.0000   0.0000   0.0000   0.0000

          k = 0.0000 0.2062 0.0000 (   786 PWs)   bands (ev):

   -22.0249  -8.3889  -7.0508  -5.6951   1.0985   1.8292   2.1264   4.2839

     occupation numbers 
     1.0000   1.0000   1.0000   1.0000   0.0000   0.0000   0.0000   0.0000

          k = 0.0000 0.2474 0.0000 (   780 PWs)   bands (ev):

   -21.7518  -8.0088  -7.8586  -6.0340   1.5618   2.2844   2.5857   4.6881

     occupation numbers 
     1.0000   1.0000   1.0000   1.0000   0.0000   0.0000   0.0000   0.0000

          k = 0.0000 0.2887 0.0000 (   780 PWs)   bands (ev):

   -21.4424  -8.7119  -7.5704  -6.4684   2.1070   2.8152   3.1242   5.0904

     occupation numbers 
     1.0000   1.0000   1.0000   1.0000   0.0000   0.0000   0.0000   0.0000

          k = 0.0000 0.3299 0.0000 (   766 PWs)   bands (ev):

   -21.0879  -9.5099  -7.0595  -6.7368   2.7335   3.4066   3.7407   5.2446

     occupation numbers 
     1.0000   1.0000   1.0000   1.0000   0.0000   0.0000   0.0000   0.0000

          k = 0.0000 0.3712 0.0000 (   778 PWs)   bands (ev):

   -20.7412 -10.3997  -7.0500  -6.5477   3.4357   3.8985   4.4247   4.8598

     occupation numbers 
     1.0000   1.0000   1.0000   1.0000   0.0000   0.0000   0.0000   0.0000

          k = 0.0000 0.4124 0.0000 (   780 PWs)   bands (ev):

   -20.3750 -11.2186  -7.3235  -5.9556   3.5346   4.2116   5.1673   5.1696

     occupation numbers 
     1.0000   1.0000   1.0000   1.0000   0.0000   0.0000   0.0000   0.0000

          k = 0.0000 0.4536 0.0000 (   784 PWs)   bands (ev):

   -20.0200 -11.9215  -7.5558  -5.3920   2.7427   5.0379   5.9283   5.9731

     occupation numbers 
     1.0000   1.0000   1.0000   1.0000   0.0000   0.0000   0.0000   0.0000

          k = 0.0000 0.4949 0.0000 (   792 PWs)   bands (ev):

   -19.7202 -12.5012  -7.7284  -4.8889   2.0054   5.8129   6.6061   6.9116

     occupation numbers 
     1.0000   1.0000   1.0000   1.0000   0.0000   0.0000   0.0000   0.0000

          k = 0.0000 0.5361 0.0000 (   792 PWs)   bands (ev):

   -19.5119 -12.8729  -7.8147  -4.5014   1.4994   6.2455   7.3893   7.9411

     occupation numbers 
     1.0000   1.0000   1.0000   1.0000   0.0000   0.0000   0.0000   0.0000

          k = 0.0000-0.5774 0.0000 (   782 PWs)   bands (ev):

   -19.4216 -12.9730  -7.8141  -4.3186   1.3199   6.3529   8.3306   8.5137

     occupation numbers 
     1.0000   1.0000   1.0000   1.0000   0.0000   0.0000   0.0000   0.0000

          k = 0.0357 0.0619 0.0000 (   799 PWs)   bands (ev):

   -22.5942  -9.1896  -4.9781  -4.8092   0.1584   0.9095   1.1849   3.4139

     occupation numbers 
     1.0000   1.0000   1.0000   1.0000   0.0000   0.0000   0.0000   0.0000

          k = 0.0357 0.1031 0.0000 (   795 PWs)   bands (ev):

   -22.4863  -9.0526  -5.3732  -5.0139   0.3323   1.0767   1.3605   3.5737

     occupation numbers 
     1.0000   1.0000   1.0000   1.0000   0.0000   0.0000   0.0000   0.0000

          k = 0.0357 0.1443 0.0000 (   797 PWs)   bands (ev):

   -22.3286  -8.8407  -6.0217  -5.3224   0.5897   1.3274   1.6190   3.8121

     occupation numbers 
     1.0000   1.0000   1.0000   1.0000   0.0000   0.0000   0.0000   0.0000

          k = 0.0357 0.1856 0.0000 (   792 PWs)   bands (ev):

   -22.1266  -8.5430  -6.7006  -5.6382   0.9299   1.6620   1.9589   4.1278

     occupation numbers 
     1.0000   1.0000   1.0000   1.0000   0.0000   0.0000   0.0000   0.0000

          k = 0.0357 0.2268 0.0000 (   786 PWs)   bands (ev):

   -21.8730  -8.1745  -7.4893  -5.9975   1.3527   2.0786   2.3795   4.5110

     occupation numbers 
     1.0000   1.0000   1.0000   1.0000   0.0000   0.0000   0.0000   0.0000

          k = 0.0357 0.2681 0.0000 (   775 PWs)   bands (ev):

   -21.5772  -8.2529  -7.7705  -6.3234   1.8573   2.5718   2.8792   4.9228

     occupation numbers 
     1.0000   1.0000   1.0000   1.0000   0.0000   0.0000   0.0000   0.0000

          k = 0.0357 0.3093 0.0000 (   772 PWs)   bands (ev):

   -21.2519  -9.1209  -7.2978  -6.6419   2.4433   3.1357   3.4574   5.2445

     occupation numbers 
     1.0000   1.0000   1.0000   1.0000   0.0000   0.0000   0.0000   0.0000

          k = 0.0357 0.3505 0.0000 (   775 PWs)   bands (ev):

   -20.9065  -9.9766  -6.9724  -6.7863   3.1080   3.7198   4.1087   5.0630

     occupation numbers 
     1.0000   1.0000   1.0000   1.0000   0.0000   0.0000   0.0000   0.0000

          k = 0.0357 0.3918 0.0000 (   775 PWs)   bands (ev):

   -20.5386 -10.8259  -7.2469  -6.2057   3.8493   3.8504   4.8300   4.9091

     occupation numbers 
     1.0000   1.0000   1.0000   1.0000   0.0000   0.0000   0.0000   0.0000

          k = 0.0357 0.4330 0.0000 (   775 PWs)   bands (ev):

   -20.1645 -11.5806  -7.4748  -5.6396   3.1556   4.6600   5.5766   5.5984

     occupation numbers 
     1.0000   1.0000   1.0000   1.0000   0.0000   0.0000   0.0000   0.0000

          k = 0.0357 0.4743 0.0000 (   784 PWs)   bands (ev):

   -19.8434 -12.2160  -7.6877  -5.1041   2.3626   5.4959   6.3416   6.4596

     occupation numbers 
     1.0000   1.0000   1.0000   1.0000   0.0000   0.0000   0.0000   0.0000

          k = 0.0357 0.5155 0.0000 (   786 PWs)   bands (ev):

   -19.5767 -12.6905  -7.8042  -4.6457   1.7281   6.1786   7.0188   7.4456

     occupation numbers 
     1.0000   1.0000   1.0000   1.0000   0.0000   0.0000   0.0000   0.0000

          k = 0.0357 0.5567 0.0000 (   784 PWs)   bands (ev):

   -19.4306 -12.9328  -7.8735  -4.3491   1.3727   6.4455   7.9175   8.5120

     occupation numbers 
     1.0000   1.0000   1.0000   1.0000   0.0000   0.0000   0.0000   0.0000

          k = 0.0714 0.1237 0.0000 (   795 PWs)   bands (ev):

   -22.3564  -8.8898  -5.8313  -5.2868   0.5472   1.2849   1.5766   3.7700

     occupation numbers 
     1.0000   1.0000   1.0000   1.0000   0.0000   0.0000   0.0000   0.0000

          k = 0.0714 0.1650 0.0000 (   791 PWs)   bands (ev):

   -22.1683  -8.6288  -6.4801  -5.6071   0.8466   1.5777   1.8769   4.0476

     occupation numbers 
     1.0000   1.0000   1.0000   1.0000   0.0000   0.0000   0.0000   0.0000

          k = 0.0714 0.2062 0.0000 (   792 PWs)   bands (ev):

   -21.9542  -8.3127  -7.1971  -5.9618   1.2273   1.9521   2.2561   4.3928

     occupation numbers 
     1.0000   1.0000   1.0000   1.0000   0.0000   0.0000   0.0000   0.0000

          k = 0.0714 0.2474 0.0000 (   780 PWs)   bands (ev):

   -21.6835  -7.9052  -7.8962  -6.3346   1.6912   2.4082   2.7170   4.7952

     occupation numbers 
     1.0000   1.0000   1.0000   1.0000   0.0000   0.0000   0.0000   0.0000

          k = 0.0714 0.2887 0.0000 (   776 PWs)   bands (ev):

   -21.3774  -8.7209  -7.4574  -6.7309   2.2372   2.9386   3.2575   5.1814

     occupation numbers 
     1.0000   1.0000   1.0000   1.0000   0.0000   0.0000   0.0000   0.0000

          k = 0.0714 0.3299 0.0000 (   778 PWs)   bands (ev):

   -21.0452  -9.5891  -7.0609  -6.9741   2.8639   3.5210   3.8754   5.2501

     occupation numbers 
     1.0000   1.0000   1.0000   1.0000   0.0000   0.0000   0.0000   0.0000

          k = 0.0714 0.3712 0.0000 (   783 PWs)   bands (ev):

   -20.6853 -10.4105  -7.4169  -6.4366   3.5700   3.9583   4.5673   4.8744

     occupation numbers 
     1.0000   1.0000   1.0000   1.0000   0.0000   0.0000   0.0000   0.0000

          k = 0.0714 0.4124 0.0000 (   781 PWs)   bands (ev):

   -20.3104 -11.2051  -7.6620  -5.8569   3.5152   4.3526   5.2764   5.3266

     occupation numbers 
     1.0000   1.0000   1.0000   1.0000   0.0000   0.0000   0.0000   0.0000

          k = 0.0714 0.4536 0.0000 (   779 PWs)   bands (ev):

   -19.9561 -11.8820  -7.8459  -5.2955   2.7532   5.1968   6.0915   6.1234

     occupation numbers 
     1.0000   1.0000   1.0000   1.0000   0.0000   0.0000   0.0000   0.0000

          k = 0.0714 0.4949 0.0000 (   781 PWs)   bands (ev):

   -19.6510 -12.4407  -7.9915  -4.7842   2.0401   6.0500   6.8682   7.0297

     occupation numbers 
     1.0000   1.0000   1.0000   1.0000   0.0000   0.0000   0.0000   0.0000

          k = 0.0714 0.5361 0.0000 (   782 PWs)   bands (ev):

   -19.4449 -12.8049  -8.1004  -4.3928   1.5305   6.6595   7.5794   8.0554

     occupation numbers 
     1.0000   1.0000   1.0000   1.0000   0.0000   0.0000   0.0000   0.0000

          k = 0.0714 0.5774 0.0000 (   782 PWs)   bands (ev):

   -19.3658 -12.9127  -8.1481  -4.2419   1.3402   6.8193   8.4524   8.6649

     occupation numbers 
     1.0000   1.0000   1.0000   1.0000   0.0000   0.0000   0.0000   0.0000

          k = 0.1071 0.1856 0.0000 (   799 PWs)   bands (ev):

   -21.9923  -8.3530  -7.0405  -6.0697   1.1846   1.9101   2.2135   4.3532

     occupation numbers 
     1.0000   1.0000   1.0000   1.0000   0.0000   0.0000   0.0000   0.0000

          k = 0.1071 0.2268 0.0000 (   782 PWs)   bands (ev):

   -21.7352  -7.9793  -7.6434  -6.4479   1.6087   2.3261   2.6368   4.7280

     occupation numbers 
     1.0000   1.0000   1.0000   1.0000   0.0000   0.0000   0.0000   0.0000

          k = 0.1071 0.2681 0.0000 (   785 PWs)   bands (ev):

   -21.4551  -8.4342  -7.5723  -6.8799   2.1142   2.8172   3.1390   5.1118

     occupation numbers 
     1.0000   1.0000   1.0000   1.0000   0.0000   0.0000   0.0000   0.0000

          k = 0.1071 0.3093 0.0000 (   782 PWs)   bands (ev):

   -21.1391  -9.2374  -7.2240  -7.1204   2.7017   3.3724   3.7206   5.3220

     occupation numbers 
     1.0000   1.0000   1.0000   1.0000   0.0000   0.0000   0.0000   0.0000

          k = 0.1071 0.3505 0.0000 (   782 PWs)   bands (ev):

   -20.7879 -10.0425  -7.5697  -6.6004   3.3709   3.9139   4.3812   5.0265

     occupation numbers 
     1.0000   1.0000   1.0000   1.0000   0.0000   0.0000   0.0000   0.0000

          k = 0.1071 0.3918 0.0000 (   786 PWs)   bands (ev):

   -20.4301 -10.8230  -7.8641  -6.0604   3.8164   4.1187   5.0847   5.1149

     occupation numbers 
     1.0000   1.0000   1.0000   1.0000   0.0000   0.0000   0.0000   0.0000

          k = 0.1071 0.4330 0.0000 (   781 PWs)   bands (ev):

   -20.0575 -11.5107  -8.0949  -5.4795   3.0985   4.9426   5.8084   5.9160

     occupation numbers 
     1.0000   1.0000   1.0000   1.0000   0.0000   0.0000   0.0000   0.0000

          k = 0.1071 0.4743 0.0000 (   777 PWs)   bands (ev):

   -19.7239 -12.1256  -8.2630  -4.9097   2.3757   5.8279   6.6956   6.7536

     occupation numbers 
     1.0000   1.0000   1.0000   1.0000   0.0000   0.0000   0.0000   0.0000

          k = 0.1071 0.5155 0.0000 (   777 PWs)   bands (ev):

   -19.4631 -12.5733  -8.3830  -4.4524   1.7564   6.7103   7.5168   7.6748

     occupation numbers 
     1.0000   1.0000   1.0000   1.0000   0.0000   0.0000   0.0000   0.0000

          k = 0.1071 0.5567 0.0000 (   774 PWs)   bands (ev):

   -19.3135 -12.8073  -8.4465  -4.1742   1.4098   7.2845   8.2417   8.7214

     occupation numbers 
     1.0000   1.0000   1.0000   1.0000   0.0000   0.0000   0.0000   0.0000

          k = 0.1429 0.2474 0.0000 (   785 PWs)   bands (ev):

   -21.4830  -8.3071  -7.6021  -6.9137   2.0732   2.7766   3.0994   5.0844

     occupation numbers 
     1.0000   1.0000   1.0000   1.0000   0.0000   0.0000   0.0000   0.0000

          k = 0.1429 0.2887 0.0000 (   785 PWs)   bands (ev):

   -21.1852  -9.0253  -7.3491  -7.1802   2.6208   3.2964   3.6436   5.3347

     occupation numbers 
     1.0000   1.0000   1.0000   1.0000   0.0000   0.0000   0.0000   0.0000

          k = 0.1429 0.3299 0.0000 (   784 PWs)   bands (ev):

   -20.8592  -9.7565  -7.7794  -6.6821   3.2504   3.8440   4.2677   5.1628

     occupation numbers 
     1.0000   1.0000   1.0000   1.0000   0.0000   0.0000   0.0000   0.0000

          k = 0.1429 0.3712 0.0000 (   776 PWs)   bands (ev):

   -20.4901 -10.4644  -8.0860  -6.1453   3.9630   4.0425   4.9728   5.0164

     occupation numbers 
     1.0000   1.0000   1.0000   1.0000   0.0000   0.0000   0.0000   0.0000

          k = 0.1429 0.4124 0.0000 (   776 PWs)   bands (ev):

   -20.1294 -11.1595  -8.3449  -5.6026   3.4240   4.7531   5.6128   5.7502

     occupation numbers 
     1.0000   1.0000   1.0000   1.0000   0.0000   0.0000   0.0000   0.0000

          k = 0.1429 0.4536 0.0000 (   776 PWs)   bands (ev):

   -19.7912 -11.7794  -8.5949  -5.0389   2.6945   5.6186   6.4435   6.5954

     occupation numbers 
     1.0000   1.0000   1.0000   1.0000   0.0000   0.0000   0.0000   0.0000

          k = 0.1429 0.4949 0.0000 (   776 PWs)   bands (ev):

   -19.4942 -12.2878  -8.7678  -4.5330   2.0391   6.5467   7.3734   7.4787

     occupation numbers 
     1.0000   1.0000   1.0000   1.0000   0.0000   0.0000   0.0000   0.0000

          k = 0.1429 0.5361 0.0000 (   776 PWs)   bands (ev):

   -19.2901 -12.6211  -8.8969  -4.1540   1.5739   7.4731   8.2742   8.3736

     occupation numbers 
     1.0000   1.0000   1.0000   1.0000   0.0000   0.0000   0.0000   0.0000

          k = 0.1429 0.5774 0.0000 (   776 PWs)   bands (ev):

   -19.2168 -12.7483  -8.9181  -4.0062   1.3979   7.9707   8.8175   9.1660

     occupation numbers 
     1.0000   1.0000   1.0000   1.0000   0.0000   0.0000   0.0000   0.0000

          k = 0.1786 0.3093 0.0000 (   775 PWs)   bands (ev):

   -20.8685  -9.5949  -7.8530  -6.7039   3.2109   3.8189   4.2307   5.2261

     occupation numbers 
     1.0000   1.0000   1.0000   1.0000   0.0000   0.0000   0.0000   0.0000

          k = 0.1786 0.3505 0.0000 (   781 PWs)   bands (ev):

   -20.5396 -10.2561  -8.3272  -6.2081   3.8829   4.1149   4.8980   5.0137

     occupation numbers 
     1.0000   1.0000   1.0000   1.0000   0.0000   0.0000   0.0000   0.0000

          k = 0.1786 0.3918 0.0000 (   783 PWs)   bands (ev):

   -20.1891 -10.9041  -8.6982  -5.6774   3.6545   4.6367   5.5007   5.6444

     occupation numbers 
     1.0000   1.0000   1.0000   1.0000   0.0000   0.0000   0.0000   0.0000

          k = 0.1786 0.4330 0.0000 (   783 PWs)   bands (ev):

   -19.8370 -11.4819  -8.9865  -5.1357   2.9570   5.4690   6.2746   6.4654

     occupation numbers 
     1.0000   1.0000   1.0000   1.0000   0.0000   0.0000   0.0000   0.0000

          k = 0.1786 0.4743 0.0000 (   778 PWs)   bands (ev):

   -19.5203 -11.9869  -9.1996  -4.5881   2.2975   6.3773   7.1550   7.3560

     occupation numbers 
     1.0000   1.0000   1.0000   1.0000   0.0000   0.0000   0.0000   0.0000

          k = 0.1786 0.5155 0.0000 (   780 PWs)   bands (ev):

   -19.2785 -12.3792  -9.3529  -4.1620   1.7513   7.3469   8.0977   8.2859

     occupation numbers 
     1.0000   1.0000   1.0000   1.0000   0.0000   0.0000   0.0000   0.0000

          k = 0.1786 0.5567 0.0000 (   780 PWs)   bands (ev):

   -19.1420 -12.5942  -9.4251  -3.9068   1.4507   8.3059   9.0055   9.0563

     occupation numbers 
     1.0000   1.0000   1.0000   1.0000   0.0000   0.0000   0.0000   0.0000

          k = 0.2143 0.3712 0.0000 (   775 PWs)   bands (ev):

   -20.1900 -10.7724  -8.7832  -5.6856   3.7649   4.5986   5.4666   5.6101

     occupation numbers 
     1.0000   1.0000   1.0000   1.0000   0.0000   0.0000   0.0000   0.0000

          k = 0.2143 0.4124 0.0000 (   787 PWs)   bands (ev):

   -19.8721 -11.3048  -9.2226  -5.1804   3.1138   5.3918   6.1904   6.3956

     occupation numbers 
     1.0000   1.0000   1.0000   1.0000   0.0000   0.0000   0.0000   0.0000

          k = 0.2143 0.4536 0.0000 (   783 PWs)   bands (ev):

   -19.5429 -11.7387  -9.5330  -4.6475   2.4852   6.2668   7.0201   7.2613

     occupation numbers 
     1.0000   1.0000   1.0000   1.0000   0.0000   0.0000   0.0000   0.0000

          k = 0.2143 0.4949 0.0000 (   778 PWs)   bands (ev):

   -19.2689 -12.1141  -9.7389  -4.1605   1.9394   7.2154   7.9026   8.1947

     occupation numbers 
     1.0000   1.0000   1.0000   1.0000   0.0000   0.0000   0.0000   0.0000

          k = 0.2143 0.5361 0.0000 (   780 PWs)   bands (ev):

   -19.0881 -12.3811  -9.8919  -3.8163   1.5458   8.2226   8.7128   9.1653

     occupation numbers 
     1.0000   1.0000   1.0000   1.0000   0.0000   0.0000   0.0000   0.0000

          k = 0.2143 0.5774 0.0000 (   786 PWs)   bands (ev):

   -19.0298 -12.4914  -9.9524  -3.7079   1.3928   9.0478   9.0920   9.4275

     occupation numbers 
     1.0000   1.0000   1.0000   1.0000   0.0000   0.0000   0.0000   0.0000

          k = 0.2500 0.4330 0.0000 (   781 PWs)   bands (ev):

   -19.5498 -11.6297  -9.6693  -4.6466   2.5763   6.2296   6.9748   7.2285

     occupation numbers 
     1.0000   1.0000   1.0000   1.0000   0.0000   0.0000   0.0000   0.0000

          k = 0.2500 0.4743 0.0000 (   779 PWs)   bands (ev):

   -19.2673 -11.9396  -9.9956  -4.1675   2.0605   7.1433   7.7981   8.1337

     occupation numbers 
     1.0000   1.0000   1.0000   1.0000   0.0000   0.0000   0.0000   0.0000

          k = 0.2500 0.5155 0.0000 (   778 PWs)   bands (ev):

   -19.0534 -12.1741 -10.2322  -3.7676   1.6366   8.1273   8.4975   9.1033

     occupation numbers 
     1.0000   1.0000   1.0000   1.0000   0.0000   0.0000   0.0000   0.0000

          k = 0.2500 0.5567 0.0000 (   780 PWs)   bands (ev):

   -18.9378 -12.3093 -10.3633  -3.5420   1.3944   8.7586   9.1570  10.0453

     occupation numbers 
     1.0000   1.0000   1.0000   1.0000   0.0000   0.0000   0.0000   0.0000

          k = 0.2857 0.4949 0.0000 (   777 PWs)   bands (ev):

   -19.0432 -12.0807 -10.3793  -3.7376   1.6732   8.0933   8.4172   9.0756

     occupation numbers 
     1.0000   1.0000   1.0000   1.0000   0.0000   0.0000   0.0000   0.0000

          k = 0.2857 0.5361 0.0000 (   772 PWs)   bands (ev):

   -18.8820 -12.1457 -10.6147  -3.4276   1.4078   8.5640   9.1039  10.0675

     occupation numbers 
     1.0000   1.0000   1.0000   1.0000   0.0000   0.0000   0.0000   0.0000

          k = 0.2857 0.5774 0.0000 (   770 PWs)   bands (ev):

   -18.8289 -12.1700 -10.6897  -3.3256   1.3113   8.5495  10.0118  10.2970

     occupation numbers 
     1.0000   1.0000   1.0000   1.0000   0.0000   0.0000   0.0000   0.0000

          k = 0.3214 0.5567 0.0000 (   771 PWs)   bands (ev):

   -18.7998 -12.1025 -10.8454  -3.2711   1.2804   8.4589  10.0900  10.8622

     occupation numbers 
     1.0000   1.0000   1.0000   1.0000   0.0000   0.0000   0.0000   0.0000

     the Fermi energy is    -1.6460 ev

!    total energy              =     -25.88115015 Ry
     estimated scf accuracy    <       0.00000004 Ry
     smearing contrib. (-TS)   =       0.00000000 Ry
     internal energy E=F+TS    =     -25.88115015 Ry

     The total energy is F=E-TS. E is the sum of the following terms:
     one-electron contribution =    -156.55815615 Ry
     hartree contribution      =      79.81325477 Ry
     xc contribution           =      -8.42636224 Ry
     ewald contribution        =      59.29011347 Ry

     convergence has been achieved in   6 iterations

     Forces acting on atoms (cartesian axes, Ry/au):

     atom    1 type  2   force =     0.00000000    0.00000000    0.00000000
     atom    2 type  1   force =     0.00000000    0.00000000    0.00000000
     The non-local contrib.  to forces
     atom    1 type  2   force =     0.00000000   -0.00000000    0.00000000
     atom    2 type  1   force =     0.00000000    0.00000000    0.00000000
     The ionic contribution  to forces
     atom    1 type  2   force =    -0.00000001    0.00000000   -0.00000000
     atom    2 type  1   force =     0.00000001   -0.00000000   -0.00000000
     The local contribution  to forces
     atom    1 type  2   force =    -0.00000000   -0.00000000   -0.00000000
     atom    2 type  1   force =     0.00000002   -0.00000001   -0.00000000
     The core correction contribution to forces
     atom    1 type  2   force =     0.00000000   -0.00000000   -0.00000000
     atom    2 type  1   force =    -0.00000000    0.00000000    0.00000000
     The Hubbard contrib.    to forces
     atom    1 type  2   force =     0.00000000    0.00000000    0.00000000
     atom    2 type  1   force =     0.00000000    0.00000000    0.00000000
     The SCF correction term to forces
     atom    1 type  2   force =    -0.00000000    0.00000000    0.00000000
     atom    2 type  1   force =    -0.00000000    0.00000000    0.00000000

     Total force =     0.000000     Total SCF correction =     0.000000


     Computing stress (Cartesian axis) and pressure

          total   stress  (Ry/bohr**3)                   (kbar)     P=     -241.50
  -0.00131073   0.00000000  -0.00000000         -192.81        0.00       -0.00
   0.00000000  -0.00131073  -0.00000000            0.00     -192.81       -0.00
  -0.00000000  -0.00000000  -0.00230352           -0.00       -0.00     -338.86

     kinetic stress (kbar)   3045.85     -0.00      0.00
                               -0.00   3045.85     -0.00
                                0.00     -0.00   3273.33

     local   stress (kbar) -47123.91      0.00      0.00
                                0.00 -47123.91     -0.00
                                0.00     -0.00  47631.00

     nonloc. stress (kbar)   -320.87     -0.00     -0.00
                               -0.00   -320.87      0.00
                               -0.00      0.00   -283.89

     hartree stress (kbar)  22238.59      0.00     -0.00
                                0.00  22238.59      0.00
                               -0.00      0.00 -21785.24

     exc-cor stress (kbar)   -338.81      0.00      0.00
                                0.00   -338.81      0.00
                                0.00      0.00   -338.81

     corecor stress (kbar)   -363.32      0.00     -0.00
                                0.00   -363.32      0.00
                               -0.00      0.00   -352.88

     ewald   stress (kbar)  22669.65     -0.00     -0.00
                               -0.00  22669.65     -0.00
                               -0.00     -0.00 -28482.36

     hubbard stress (kbar)      0.00      0.00      0.00
                                0.00      0.00      0.00
                                0.00      0.00      0.00

     DFT-D   stress (kbar)      0.00      0.00      0.00
                                0.00      0.00      0.00
                                0.00      0.00      0.00

     XDM     stress (kbar)      0.00      0.00      0.00
                                0.00      0.00      0.00
                                0.00      0.00      0.00

     dft-nl  stress (kbar)      0.00      0.00      0.00
                                0.00      0.00      0.00
                                0.00      0.00      0.00

     TS-vdW  stress (kbar)      0.00      0.00      0.00
                                0.00      0.00      0.00
                                0.00      0.00      0.00



     Writing output data file ./tmp/hBN.save/

     init_run     :      0.45s CPU      0.21s WALL (       1 calls)
     electrons    :     17.35s CPU      6.68s WALL (       1 calls)
     forces       :      0.37s CPU      0.11s WALL (       1 calls)
     stress       :      1.48s CPU      0.57s WALL (       1 calls)

     Called by init_run:
     wfcinit      :      0.40s CPU      0.16s WALL (       1 calls)
     wfcinit:atom :      0.03s CPU      0.01s WALL (      80 calls)
     wfcinit:wfcr :      0.28s CPU      0.11s WALL (      80 calls)
     potinit      :      0.01s CPU      0.01s WALL (       1 calls)
     hinit0       :      0.04s CPU      0.04s WALL (       1 calls)

     Called by electrons:
     c_bands      :     15.41s CPU      5.75s WALL (       6 calls)
     sum_band     :      1.92s CPU      0.91s WALL (       6 calls)
     v_of_rho     :      0.01s CPU      0.01s WALL (       7 calls)
     v_h          :      0.00s CPU      0.00s WALL (       7 calls)
     v_xc         :      0.03s CPU      0.01s WALL (       9 calls)
     mix_rho      :      0.00s CPU      0.01s WALL (       6 calls)

     Called by c_bands:
     init_us_2    :      1.01s CPU      0.39s WALL (    1200 calls)
     cegterg      :     13.96s CPU      5.20s WALL (     480 calls)

     Called by sum_band:
     sum_band:wei :      0.00s CPU      0.00s WALL (       6 calls)
     sum_band:loo :      1.91s CPU      0.90s WALL (       6 calls)
     sum_band:buf :      0.03s CPU      0.01s WALL (     480 calls)
     sum_band:ini :      0.33s CPU      0.16s WALL (     480 calls)

     Called by *egterg:
     cdiaghg      :      1.08s CPU      0.40s WALL (    2730 calls)
     cegterg:over :      0.58s CPU      0.21s WALL (    2250 calls)
     cegterg:upda :      0.40s CPU      0.14s WALL (    2250 calls)
     cegterg:last :      0.27s CPU      0.11s WALL (    1258 calls)
     h_psi        :     11.29s CPU      4.24s WALL (    2810 calls)
     g_psi        :      0.24s CPU      0.08s WALL (    2250 calls)

     Called by h_psi:
     h_psi:calbec :      0.44s CPU      0.19s WALL (    2810 calls)
     vloc_psi     :     10.38s CPU      3.87s WALL (    2810 calls)
     add_vuspsi   :      0.30s CPU      0.11s WALL (    2810 calls)

     General routines
     calbec       :      0.53s CPU      0.22s WALL (    3210 calls)
     fft          :      0.01s CPU      0.01s WALL (      28 calls)
     ffts         :      0.00s CPU      0.00s WALL (       6 calls)
     fftw         :      8.07s CPU      3.10s WALL (   28818 calls)

     Parallel routines

     PWSCF        :     19.79s CPU      7.65s WALL


   This run was terminated on:  12:56: 7  14Feb2024            

=------------------------------------------------------------------------------=
   JOB DONE.
=------------------------------------------------------------------------------=
