
     Program PWSCF v.6.7MaX starts on 14Feb2024 at 11:49:31 

     This program is part of the open-source Quantum ESPRESSO suite
     for quantum simulation of materials; please cite
         "P. Giannozzi et al., J. Phys.:Condens. Matter 21 395502 (2009);
         "P. Giannozzi et al., J. Phys.:Condens. Matter 29 465901 (2017);
          URL http://www.quantum-espresso.org", 
     in publications or presentations arising from this work. More details at
     http://www.quantum-espresso.org/quote

     Parallel version (MPI), running on     1 processors

     MPI processes distributed on     1 nodes
     Waiting for input...
     Reading input from standard input

     Current dimensions of program PWSCF are:
     Max number of different atomic species (ntypx) = 10
     Max number of k-points (npk) =  40000
     Max angular momentum in pseudopotentials (lmaxx) =  3
     Message from routine read_pp_mesh:
     mesh size missing, using the one in header

     Subspace diagonalization in iterative solution of the eigenvalue problem:
     a serial algorithm will be used


     G-vector sticks info
     --------------------
     sticks:   dense  smooth     PW     G-vecs:    dense   smooth      PW
     Sum         121     121     37                 6307     6307    1283



     bravais-lattice index     =            4
     lattice parameter (alat)  =       4.6350  a.u.
     unit-cell volume          =     517.4056 (a.u.)^3
     number of atoms/cell      =            2
     number of atomic types    =            1
     number of electrons       =         8.00
     number of Kohn-Sham states=            8
     kinetic-energy cutoff     =      20.0000  Ry
     charge density cutoff     =      80.0000  Ry
     scf convergence threshold =      1.0E-06
     mixing beta               =       0.7000
     number of iterations used =            8  plain     mixing
     Exchange-correlation= PZ
                           (   1   1   0   0   0   0   0)

     celldm(1)=   4.635000  celldm(2)=   0.000000  celldm(3)=   6.000000
     celldm(4)=   0.000000  celldm(5)=   0.000000  celldm(6)=   0.000000

     crystal axes: (cart. coord. in units of alat)
               a(1) = (   1.000000   0.000000   0.000000 )  
               a(2) = (  -0.500000   0.866025   0.000000 )  
               a(3) = (   0.000000   0.000000   6.000000 )  

     reciprocal axes: (cart. coord. in units 2 pi/alat)
               b(1) = (  1.000000  0.577350 -0.000000 )  
               b(2) = (  0.000000  1.154701  0.000000 )  
               b(3) = (  0.000000 -0.000000  0.166667 )  


     PseudoPot. # 1 for C  read from file:
     ../../../../Pseudo/LDA/C.upf
     MD5 check sum: 9ef9f0a1c6c947210c7947280cfb54e2
     Pseudo is Norm-conserving + core correction, Zval =  4.0
     Generated using ONCVPSP code by D. R. Hamann
     Using radial grid of 1230 points,  4 beta functions with: 
                l(1) =   0
                l(2) =   0
                l(3) =   1
                l(4) =   1

     atomic species   valence    mass     pseudopotential
        C              4.00    12.01100     C ( 1.00)

     24 Sym. Ops., with inversion, found (12 have fractional translation)


                                    s                        frac. trans.

      isym =  1     identity                                     

 cryst.   s( 1) = (     1          0          0      )
                  (     0          1          0      )
                  (     0          0          1      )

 cart.    s( 1) = (  1.0000000  0.0000000  0.0000000 )
                  (  0.0000000  1.0000000  0.0000000 )
                  (  0.0000000  0.0000000  1.0000000 )


      isym =  2     180 deg rotation - cart. axis [0,0,1]        

 cryst.   s( 2) = (    -1          0          0      )    f =( -0.3333333 )
                  (     0         -1          0      )       (  0.3333333 )
                  (     0          0          1      )       (  0.0000000 )

 cart.    s( 2) = ( -1.0000000  0.0000000  0.0000000 )    f =( -0.5000000 )
                  (  0.0000000 -1.0000000  0.0000000 )       (  0.2886751 )
                  (  0.0000000  0.0000000  1.0000000 )       (  0.0000000 )


      isym =  3     180 deg rotation - cart. axis [0,1,0]        

 cryst.   s( 3) = (    -1          0          0      )
                  (     1          1          0      )
                  (     0          0         -1      )

 cart.    s( 3) = ( -1.0000000  0.0000000  0.0000000 )
                  (  0.0000000  1.0000000  0.0000000 )
                  (  0.0000000  0.0000000 -1.0000000 )


      isym =  4     180 deg rotation - cart. axis [1,0,0]        

 cryst.   s( 4) = (     1          0          0      )    f =( -0.3333333 )
                  (    -1         -1          0      )       (  0.3333333 )
                  (     0          0         -1      )       (  0.0000000 )

 cart.    s( 4) = (  1.0000000  0.0000000  0.0000000 )    f =( -0.5000000 )
                  (  0.0000000 -1.0000000  0.0000000 )       (  0.2886751 )
                  (  0.0000000  0.0000000 -1.0000000 )       (  0.0000000 )


      isym =  5      60 deg rotation - cryst. axis [0,0,1]       

 cryst.   s( 5) = (     1          1          0      )    f =( -0.3333333 )
                  (    -1          0          0      )       (  0.3333333 )
                  (     0          0          1      )       (  0.0000000 )

 cart.    s( 5) = (  0.5000000 -0.8660254  0.0000000 )    f =( -0.5000000 )
                  (  0.8660254  0.5000000  0.0000000 )       (  0.2886751 )
                  (  0.0000000  0.0000000  1.0000000 )       (  0.0000000 )


      isym =  6      60 deg rotation - cryst. axis [0,0,-1]      

 cryst.   s( 6) = (     0         -1          0      )    f =( -0.3333333 )
                  (     1          1          0      )       (  0.3333333 )
                  (     0          0          1      )       (  0.0000000 )

 cart.    s( 6) = (  0.5000000  0.8660254  0.0000000 )    f =( -0.5000000 )
                  ( -0.8660254  0.5000000  0.0000000 )       (  0.2886751 )
                  (  0.0000000  0.0000000  1.0000000 )       (  0.0000000 )


      isym =  7     120 deg rotation - cryst. axis [0,0,1]       

 cryst.   s( 7) = (     0          1          0      )
                  (    -1         -1          0      )
                  (     0          0          1      )

 cart.    s( 7) = ( -0.5000000 -0.8660254  0.0000000 )
                  (  0.8660254 -0.5000000  0.0000000 )
                  (  0.0000000  0.0000000  1.0000000 )


      isym =  8     120 deg rotation - cryst. axis [0,0,-1]      

 cryst.   s( 8) = (    -1         -1          0      )
                  (     1          0          0      )
                  (     0          0          1      )

 cart.    s( 8) = ( -0.5000000  0.8660254  0.0000000 )
                  ( -0.8660254 -0.5000000  0.0000000 )
                  (  0.0000000  0.0000000  1.0000000 )


      isym =  9     180 deg rotation - cryst. axis [1,-1,0]      

 cryst.   s( 9) = (     0         -1          0      )
                  (    -1          0          0      )
                  (     0          0         -1      )

 cart.    s( 9) = (  0.5000000 -0.8660254  0.0000000 )
                  ( -0.8660254 -0.5000000  0.0000000 )
                  (  0.0000000  0.0000000 -1.0000000 )


      isym = 10     180 deg rotation - cryst. axis [2,1,0]       

 cryst.   s(10) = (     1          1          0      )
                  (     0         -1          0      )
                  (     0          0         -1      )

 cart.    s(10) = (  0.5000000  0.8660254  0.0000000 )
                  (  0.8660254 -0.5000000  0.0000000 )
                  (  0.0000000  0.0000000 -1.0000000 )


      isym = 11     180 deg rotation - cryst. axis [0,1,0]       

 cryst.   s(11) = (    -1         -1          0      )    f =( -0.3333333 )
                  (     0          1          0      )       (  0.3333333 )
                  (     0          0         -1      )       (  0.0000000 )

 cart.    s(11) = ( -0.5000000 -0.8660254  0.0000000 )    f =( -0.5000000 )
                  ( -0.8660254  0.5000000  0.0000000 )       (  0.2886751 )
                  (  0.0000000  0.0000000 -1.0000000 )       (  0.0000000 )


      isym = 12     180 deg rotation - cryst. axis [1,1,0]       

 cryst.   s(12) = (     0          1          0      )    f =( -0.3333333 )
                  (     1          0          0      )       (  0.3333333 )
                  (     0          0         -1      )       (  0.0000000 )

 cart.    s(12) = ( -0.5000000  0.8660254  0.0000000 )    f =( -0.5000000 )
                  (  0.8660254  0.5000000  0.0000000 )       (  0.2886751 )
                  (  0.0000000  0.0000000 -1.0000000 )       (  0.0000000 )


      isym = 13     inversion                                    

 cryst.   s(13) = (    -1          0          0      )    f =( -0.3333333 )
                  (     0         -1          0      )       (  0.3333333 )
                  (     0          0         -1      )       (  0.0000000 )

 cart.    s(13) = ( -1.0000000  0.0000000  0.0000000 )    f =( -0.5000000 )
                  (  0.0000000 -1.0000000  0.0000000 )       (  0.2886751 )
                  (  0.0000000  0.0000000 -1.0000000 )       (  0.0000000 )


      isym = 14     inv. 180 deg rotation - cart. axis [0,0,1]   

 cryst.   s(14) = (     1          0          0      )
                  (     0          1          0      )
                  (     0          0         -1      )

 cart.    s(14) = (  1.0000000  0.0000000  0.0000000 )
                  (  0.0000000  1.0000000  0.0000000 )
                  (  0.0000000  0.0000000 -1.0000000 )


      isym = 15     inv. 180 deg rotation - cart. axis [0,1,0]   

 cryst.   s(15) = (     1          0          0      )    f =( -0.3333333 )
                  (    -1         -1          0      )       (  0.3333333 )
                  (     0          0          1      )       (  0.0000000 )

 cart.    s(15) = (  1.0000000  0.0000000  0.0000000 )    f =( -0.5000000 )
                  (  0.0000000 -1.0000000  0.0000000 )       (  0.2886751 )
                  (  0.0000000  0.0000000  1.0000000 )       (  0.0000000 )


      isym = 16     inv. 180 deg rotation - cart. axis [1,0,0]   

 cryst.   s(16) = (    -1          0          0      )
                  (     1          1          0      )
                  (     0          0          1      )

 cart.    s(16) = ( -1.0000000  0.0000000  0.0000000 )
                  (  0.0000000  1.0000000  0.0000000 )
                  (  0.0000000  0.0000000  1.0000000 )


      isym = 17     inv.  60 deg rotation - cryst. axis [0,0,1]  

 cryst.   s(17) = (    -1         -1          0      )
                  (     1          0          0      )
                  (     0          0         -1      )

 cart.    s(17) = ( -0.5000000  0.8660254  0.0000000 )
                  ( -0.8660254 -0.5000000  0.0000000 )
                  (  0.0000000  0.0000000 -1.0000000 )


      isym = 18     inv.  60 deg rotation - cryst. axis [0,0,-1] 

 cryst.   s(18) = (     0          1          0      )
                  (    -1         -1          0      )
                  (     0          0         -1      )

 cart.    s(18) = ( -0.5000000 -0.8660254  0.0000000 )
                  (  0.8660254 -0.5000000  0.0000000 )
                  (  0.0000000  0.0000000 -1.0000000 )


      isym = 19     inv. 120 deg rotation - cryst. axis [0,0,1]  

 cryst.   s(19) = (     0         -1          0      )    f =( -0.3333333 )
                  (     1          1          0      )       (  0.3333333 )
                  (     0          0         -1      )       (  0.0000000 )

 cart.    s(19) = (  0.5000000  0.8660254  0.0000000 )    f =( -0.5000000 )
                  ( -0.8660254  0.5000000  0.0000000 )       (  0.2886751 )
                  (  0.0000000  0.0000000 -1.0000000 )       (  0.0000000 )


      isym = 20     inv. 120 deg rotation - cryst. axis [0,0,-1] 

 cryst.   s(20) = (     1          1          0      )    f =( -0.3333333 )
                  (    -1          0          0      )       (  0.3333333 )
                  (     0          0         -1      )       (  0.0000000 )

 cart.    s(20) = (  0.5000000 -0.8660254  0.0000000 )    f =( -0.5000000 )
                  (  0.8660254  0.5000000  0.0000000 )       (  0.2886751 )
                  (  0.0000000  0.0000000 -1.0000000 )       (  0.0000000 )


      isym = 21     inv. 180 deg rotation - cryst. axis [1,-1,0] 

 cryst.   s(21) = (     0          1          0      )    f =( -0.3333333 )
                  (     1          0          0      )       (  0.3333333 )
                  (     0          0          1      )       (  0.0000000 )

 cart.    s(21) = ( -0.5000000  0.8660254  0.0000000 )    f =( -0.5000000 )
                  (  0.8660254  0.5000000  0.0000000 )       (  0.2886751 )
                  (  0.0000000  0.0000000  1.0000000 )       (  0.0000000 )


      isym = 22     inv. 180 deg rotation - cryst. axis [2,1,0]  

 cryst.   s(22) = (    -1         -1          0      )    f =( -0.3333333 )
                  (     0          1          0      )       (  0.3333333 )
                  (     0          0          1      )       (  0.0000000 )

 cart.    s(22) = ( -0.5000000 -0.8660254  0.0000000 )    f =( -0.5000000 )
                  ( -0.8660254  0.5000000  0.0000000 )       (  0.2886751 )
                  (  0.0000000  0.0000000  1.0000000 )       (  0.0000000 )


      isym = 23     inv. 180 deg rotation - cryst. axis [0,1,0]  

 cryst.   s(23) = (     1          1          0      )
                  (     0         -1          0      )
                  (     0          0          1      )

 cart.    s(23) = (  0.5000000  0.8660254  0.0000000 )
                  (  0.8660254 -0.5000000  0.0000000 )
                  (  0.0000000  0.0000000  1.0000000 )


      isym = 24     inv. 180 deg rotation - cryst. axis [1,1,0]  

 cryst.   s(24) = (     0         -1          0      )
                  (    -1          0          0      )
                  (     0          0          1      )

 cart.    s(24) = (  0.5000000 -0.8660254  0.0000000 )
                  ( -0.8660254 -0.5000000  0.0000000 )
                  (  0.0000000  0.0000000  1.0000000 )


     point group D_6h(6/mmm)
     there are 12 classes
     the character table:

       E     2C6   2C3   C2    3C2'  3C2'' i     2S3   2S6   s_h   3s_d  3s_v 
A_1g   1.00  1.00  1.00  1.00  1.00  1.00  1.00  1.00  1.00  1.00  1.00  1.00
A_2g   1.00  1.00  1.00  1.00 -1.00 -1.00  1.00  1.00  1.00  1.00 -1.00 -1.00
B_1g   1.00 -1.00  1.00 -1.00  1.00 -1.00  1.00 -1.00  1.00 -1.00  1.00 -1.00
B_2g   1.00 -1.00  1.00 -1.00 -1.00  1.00  1.00 -1.00  1.00 -1.00 -1.00  1.00
E_1g   2.00  1.00 -1.00 -2.00  0.00  0.00  2.00  1.00 -1.00 -2.00  0.00  0.00
E_2g   2.00 -1.00 -1.00  2.00  0.00  0.00  2.00 -1.00 -1.00  2.00  0.00  0.00
A_1u   1.00  1.00  1.00  1.00  1.00  1.00 -1.00 -1.00 -1.00 -1.00 -1.00 -1.00
A_2u   1.00  1.00  1.00  1.00 -1.00 -1.00 -1.00 -1.00 -1.00 -1.00  1.00  1.00
B_1u   1.00 -1.00  1.00 -1.00  1.00 -1.00 -1.00  1.00 -1.00  1.00 -1.00  1.00
B_2u   1.00 -1.00  1.00 -1.00 -1.00  1.00 -1.00  1.00 -1.00  1.00  1.00 -1.00
E_1u   2.00  1.00 -1.00 -2.00  0.00  0.00 -2.00 -1.00  1.00  2.00  0.00  0.00
E_2u   2.00 -1.00 -1.00  2.00  0.00  0.00 -2.00  1.00  1.00 -2.00  0.00  0.00

     the symmetry operations in each class and the name of the first element:

     E        1
          identity                                               
     2C6      5    6
           60 deg rotation - cryst. axis [0,0,1]                 
     2C3      7    8
          120 deg rotation - cryst. axis [0,0,1]                 
     C2       2
          180 deg rotation - cart. axis [0,0,1]                  
     3C2'     4   12   11
          180 deg rotation - cart. axis [1,0,0]                  
     3C2''    3    9   10
          180 deg rotation - cart. axis [0,1,0]                  
     i       13
          inversion                                              
     2S3     17   18
          inv.  60 deg rotation - cryst. axis [0,0,1]            
     2S6     19   20
          inv. 120 deg rotation - cryst. axis [0,0,1]            
     s_h     14
          inv. 180 deg rotation - cart. axis [0,0,1]             
     3s_d    16   24   23
          inv. 180 deg rotation - cart. axis [1,0,0]             
     3s_v    15   21   22
          inv. 180 deg rotation - cart. axis [0,1,0]             

   Cartesian axes

     site n.     atom                  positions (alat units)
         1           C   tau(   1) = (   0.0000000   0.0000000   0.0000000  )
         2           C   tau(   2) = (  -0.0000000   0.5773503   0.0000000  )

   Crystallographic axes

     site n.     atom                  positions (cryst. coord.)
         1           C   tau(   1) = (  0.0000000  0.0000000  0.0000000  )
         2           C   tau(   2) = (  0.3333333  0.6666667  0.0000000  )

     number of k points=    80  Marzari-Vanderbilt smearing, width (Ry)=  0.0100
                       cart. coord. in units 2pi/alat
        k(    1) = (   0.0000000   0.0000000   0.0000000), wk =   0.0025510
        k(    2) = (   0.0000000   0.0412393   0.0000000), wk =   0.0153061
        k(    3) = (   0.0000000   0.0824786   0.0000000), wk =   0.0153061
        k(    4) = (   0.0000000   0.1237179   0.0000000), wk =   0.0153061
        k(    5) = (   0.0000000   0.1649572   0.0000000), wk =   0.0153061
        k(    6) = (   0.0000000   0.2061965   0.0000000), wk =   0.0153061
        k(    7) = (   0.0000000   0.2474358   0.0000000), wk =   0.0153061
        k(    8) = (   0.0000000   0.2886751   0.0000000), wk =   0.0153061
        k(    9) = (   0.0000000   0.3299144   0.0000000), wk =   0.0153061
        k(   10) = (   0.0000000   0.3711537   0.0000000), wk =   0.0153061
        k(   11) = (   0.0000000   0.4123930   0.0000000), wk =   0.0153061
        k(   12) = (   0.0000000   0.4536324   0.0000000), wk =   0.0153061
        k(   13) = (   0.0000000   0.4948717   0.0000000), wk =   0.0153061
        k(   14) = (   0.0000000   0.5361110   0.0000000), wk =   0.0153061
        k(   15) = (   0.0000000  -0.5773503   0.0000000), wk =   0.0076531
        k(   16) = (   0.0357143   0.0618590   0.0000000), wk =   0.0153061
        k(   17) = (   0.0357143   0.1030983   0.0000000), wk =   0.0306122
        k(   18) = (   0.0357143   0.1443376   0.0000000), wk =   0.0306122
        k(   19) = (   0.0357143   0.1855769   0.0000000), wk =   0.0306122
        k(   20) = (   0.0357143   0.2268162   0.0000000), wk =   0.0306122
        k(   21) = (   0.0357143   0.2680555   0.0000000), wk =   0.0306122
        k(   22) = (   0.0357143   0.3092948   0.0000000), wk =   0.0306122
        k(   23) = (   0.0357143   0.3505341   0.0000000), wk =   0.0306122
        k(   24) = (   0.0357143   0.3917734   0.0000000), wk =   0.0306122
        k(   25) = (   0.0357143   0.4330127   0.0000000), wk =   0.0306122
        k(   26) = (   0.0357143   0.4742520   0.0000000), wk =   0.0306122
        k(   27) = (   0.0357143   0.5154913   0.0000000), wk =   0.0306122
        k(   28) = (   0.0357143   0.5567306   0.0000000), wk =   0.0306122
        k(   29) = (   0.0714286   0.1237179   0.0000000), wk =   0.0153061
        k(   30) = (   0.0714286   0.1649572   0.0000000), wk =   0.0306122
        k(   31) = (   0.0714286   0.2061965   0.0000000), wk =   0.0306122
        k(   32) = (   0.0714286   0.2474358   0.0000000), wk =   0.0306122
        k(   33) = (   0.0714286   0.2886751   0.0000000), wk =   0.0306122
        k(   34) = (   0.0714286   0.3299144   0.0000000), wk =   0.0306122
        k(   35) = (   0.0714286   0.3711537   0.0000000), wk =   0.0306122
        k(   36) = (   0.0714286   0.4123930   0.0000000), wk =   0.0306122
        k(   37) = (   0.0714286   0.4536324   0.0000000), wk =   0.0306122
        k(   38) = (   0.0714286   0.4948717   0.0000000), wk =   0.0306122
        k(   39) = (   0.0714286   0.5361110   0.0000000), wk =   0.0306122
        k(   40) = (   0.0714286   0.5773503   0.0000000), wk =   0.0153061
        k(   41) = (   0.1071429   0.1855769   0.0000000), wk =   0.0153061
        k(   42) = (   0.1071429   0.2268162   0.0000000), wk =   0.0306122
        k(   43) = (   0.1071429   0.2680555   0.0000000), wk =   0.0306122
        k(   44) = (   0.1071429   0.3092948   0.0000000), wk =   0.0306122
        k(   45) = (   0.1071429   0.3505341   0.0000000), wk =   0.0306122
        k(   46) = (   0.1071429   0.3917734   0.0000000), wk =   0.0306122
        k(   47) = (   0.1071429   0.4330127   0.0000000), wk =   0.0306122
        k(   48) = (   0.1071429   0.4742520   0.0000000), wk =   0.0306122
        k(   49) = (   0.1071429   0.5154913   0.0000000), wk =   0.0306122
        k(   50) = (   0.1071429   0.5567306   0.0000000), wk =   0.0306122
        k(   51) = (   0.1428571   0.2474358   0.0000000), wk =   0.0153061
        k(   52) = (   0.1428571   0.2886751   0.0000000), wk =   0.0306122
        k(   53) = (   0.1428571   0.3299144   0.0000000), wk =   0.0306122
        k(   54) = (   0.1428571   0.3711537   0.0000000), wk =   0.0306122
        k(   55) = (   0.1428571   0.4123930   0.0000000), wk =   0.0306122
        k(   56) = (   0.1428571   0.4536324   0.0000000), wk =   0.0306122
        k(   57) = (   0.1428571   0.4948717   0.0000000), wk =   0.0306122
        k(   58) = (   0.1428571   0.5361110   0.0000000), wk =   0.0306122
        k(   59) = (   0.1428571   0.5773503   0.0000000), wk =   0.0153061
        k(   60) = (   0.1785714   0.3092948   0.0000000), wk =   0.0153061
        k(   61) = (   0.1785714   0.3505341   0.0000000), wk =   0.0306122
        k(   62) = (   0.1785714   0.3917734   0.0000000), wk =   0.0306122
        k(   63) = (   0.1785714   0.4330127   0.0000000), wk =   0.0306122
        k(   64) = (   0.1785714   0.4742520   0.0000000), wk =   0.0306122
        k(   65) = (   0.1785714   0.5154913   0.0000000), wk =   0.0306122
        k(   66) = (   0.1785714   0.5567306   0.0000000), wk =   0.0306122
        k(   67) = (   0.2142857   0.3711537   0.0000000), wk =   0.0153061
        k(   68) = (   0.2142857   0.4123930   0.0000000), wk =   0.0306122
        k(   69) = (   0.2142857   0.4536324   0.0000000), wk =   0.0306122
        k(   70) = (   0.2142857   0.4948717   0.0000000), wk =   0.0306122
        k(   71) = (   0.2142857   0.5361110   0.0000000), wk =   0.0306122
        k(   72) = (   0.2142857   0.5773503   0.0000000), wk =   0.0153061
        k(   73) = (   0.2500000   0.4330127   0.0000000), wk =   0.0153061
        k(   74) = (   0.2500000   0.4742520   0.0000000), wk =   0.0306122
        k(   75) = (   0.2500000   0.5154913   0.0000000), wk =   0.0306122
        k(   76) = (   0.2500000   0.5567306   0.0000000), wk =   0.0306122
        k(   77) = (   0.2857143   0.4948717   0.0000000), wk =   0.0153061
        k(   78) = (   0.2857143   0.5361110   0.0000000), wk =   0.0306122
        k(   79) = (   0.2857143   0.5773503   0.0000000), wk =   0.0153061
        k(   80) = (   0.3214286   0.5567306   0.0000000), wk =   0.0153061

                       cryst. coord.
        k(    1) = (   0.0000000   0.0000000   0.0000000), wk =   0.0025510
        k(    2) = (   0.0000000   0.0357143   0.0000000), wk =   0.0153061
        k(    3) = (   0.0000000   0.0714286   0.0000000), wk =   0.0153061
        k(    4) = (   0.0000000   0.1071429   0.0000000), wk =   0.0153061
        k(    5) = (   0.0000000   0.1428571   0.0000000), wk =   0.0153061
        k(    6) = (   0.0000000   0.1785714   0.0000000), wk =   0.0153061
        k(    7) = (   0.0000000   0.2142857   0.0000000), wk =   0.0153061
        k(    8) = (   0.0000000   0.2500000   0.0000000), wk =   0.0153061
        k(    9) = (   0.0000000   0.2857143   0.0000000), wk =   0.0153061
        k(   10) = (   0.0000000   0.3214286   0.0000000), wk =   0.0153061
        k(   11) = (   0.0000000   0.3571429   0.0000000), wk =   0.0153061
        k(   12) = (   0.0000000   0.3928571   0.0000000), wk =   0.0153061
        k(   13) = (   0.0000000   0.4285714   0.0000000), wk =   0.0153061
        k(   14) = (   0.0000000   0.4642857   0.0000000), wk =   0.0153061
        k(   15) = (   0.0000000  -0.5000000   0.0000000), wk =   0.0076531
        k(   16) = (   0.0357143   0.0357143   0.0000000), wk =   0.0153061
        k(   17) = (   0.0357143   0.0714286   0.0000000), wk =   0.0306122
        k(   18) = (   0.0357143   0.1071429   0.0000000), wk =   0.0306122
        k(   19) = (   0.0357143   0.1428571   0.0000000), wk =   0.0306122
        k(   20) = (   0.0357143   0.1785714   0.0000000), wk =   0.0306122
        k(   21) = (   0.0357143   0.2142857   0.0000000), wk =   0.0306122
        k(   22) = (   0.0357143   0.2500000   0.0000000), wk =   0.0306122
        k(   23) = (   0.0357143   0.2857143   0.0000000), wk =   0.0306122
        k(   24) = (   0.0357143   0.3214286   0.0000000), wk =   0.0306122
        k(   25) = (   0.0357143   0.3571429   0.0000000), wk =   0.0306122
        k(   26) = (   0.0357143   0.3928571   0.0000000), wk =   0.0306122
        k(   27) = (   0.0357143   0.4285714   0.0000000), wk =   0.0306122
        k(   28) = (   0.0357143   0.4642857   0.0000000), wk =   0.0306122
        k(   29) = (   0.0714286   0.0714286   0.0000000), wk =   0.0153061
        k(   30) = (   0.0714286   0.1071429   0.0000000), wk =   0.0306122
        k(   31) = (   0.0714286   0.1428571   0.0000000), wk =   0.0306122
        k(   32) = (   0.0714286   0.1785714   0.0000000), wk =   0.0306122
        k(   33) = (   0.0714286   0.2142857   0.0000000), wk =   0.0306122
        k(   34) = (   0.0714286   0.2500000   0.0000000), wk =   0.0306122
        k(   35) = (   0.0714286   0.2857143   0.0000000), wk =   0.0306122
        k(   36) = (   0.0714286   0.3214286   0.0000000), wk =   0.0306122
        k(   37) = (   0.0714286   0.3571429   0.0000000), wk =   0.0306122
        k(   38) = (   0.0714286   0.3928571   0.0000000), wk =   0.0306122
        k(   39) = (   0.0714286   0.4285714   0.0000000), wk =   0.0306122
        k(   40) = (   0.0714286   0.4642857   0.0000000), wk =   0.0153061
        k(   41) = (   0.1071429   0.1071429   0.0000000), wk =   0.0153061
        k(   42) = (   0.1071429   0.1428571   0.0000000), wk =   0.0306122
        k(   43) = (   0.1071429   0.1785714   0.0000000), wk =   0.0306122
        k(   44) = (   0.1071429   0.2142857   0.0000000), wk =   0.0306122
        k(   45) = (   0.1071429   0.2500000   0.0000000), wk =   0.0306122
        k(   46) = (   0.1071429   0.2857143   0.0000000), wk =   0.0306122
        k(   47) = (   0.1071429   0.3214286   0.0000000), wk =   0.0306122
        k(   48) = (   0.1071429   0.3571429   0.0000000), wk =   0.0306122
        k(   49) = (   0.1071429   0.3928571   0.0000000), wk =   0.0306122
        k(   50) = (   0.1071429   0.4285714   0.0000000), wk =   0.0306122
        k(   51) = (   0.1428571   0.1428571   0.0000000), wk =   0.0153061
        k(   52) = (   0.1428571   0.1785714   0.0000000), wk =   0.0306122
        k(   53) = (   0.1428571   0.2142857   0.0000000), wk =   0.0306122
        k(   54) = (   0.1428571   0.2500000   0.0000000), wk =   0.0306122
        k(   55) = (   0.1428571   0.2857143   0.0000000), wk =   0.0306122
        k(   56) = (   0.1428571   0.3214286   0.0000000), wk =   0.0306122
        k(   57) = (   0.1428571   0.3571429   0.0000000), wk =   0.0306122
        k(   58) = (   0.1428571   0.3928571   0.0000000), wk =   0.0306122
        k(   59) = (   0.1428571   0.4285714   0.0000000), wk =   0.0153061
        k(   60) = (   0.1785714   0.1785714   0.0000000), wk =   0.0153061
        k(   61) = (   0.1785714   0.2142857   0.0000000), wk =   0.0306122
        k(   62) = (   0.1785714   0.2500000   0.0000000), wk =   0.0306122
        k(   63) = (   0.1785714   0.2857143   0.0000000), wk =   0.0306122
        k(   64) = (   0.1785714   0.3214286   0.0000000), wk =   0.0306122
        k(   65) = (   0.1785714   0.3571429   0.0000000), wk =   0.0306122
        k(   66) = (   0.1785714   0.3928571   0.0000000), wk =   0.0306122
        k(   67) = (   0.2142857   0.2142857   0.0000000), wk =   0.0153061
        k(   68) = (   0.2142857   0.2500000   0.0000000), wk =   0.0306122
        k(   69) = (   0.2142857   0.2857143   0.0000000), wk =   0.0306122
        k(   70) = (   0.2142857   0.3214286   0.0000000), wk =   0.0306122
        k(   71) = (   0.2142857   0.3571429   0.0000000), wk =   0.0306122
        k(   72) = (   0.2142857   0.3928571   0.0000000), wk =   0.0153061
        k(   73) = (   0.2500000   0.2500000   0.0000000), wk =   0.0153061
        k(   74) = (   0.2500000   0.2857143   0.0000000), wk =   0.0306122
        k(   75) = (   0.2500000   0.3214286   0.0000000), wk =   0.0306122
        k(   76) = (   0.2500000   0.3571429   0.0000000), wk =   0.0306122
        k(   77) = (   0.2857143   0.2857143   0.0000000), wk =   0.0153061
        k(   78) = (   0.2857143   0.3214286   0.0000000), wk =   0.0306122
        k(   79) = (   0.2857143   0.3571429   0.0000000), wk =   0.0153061
        k(   80) = (   0.3214286   0.3214286   0.0000000), wk =   0.0153061

     Dense  grid:     6307 G-vectors     FFT dimensions: (  15,  15,  80)

     Dynamical RAM for                 wfc:       0.10 MB

     Dynamical RAM for     wfc (w. buffer):       7.72 MB

     Dynamical RAM for           str. fact:       0.10 MB

     Dynamical RAM for           local pot:       0.00 MB

     Dynamical RAM for          nlocal pot:       0.19 MB

     Dynamical RAM for                qrad:       0.21 MB

     Dynamical RAM for          rho,v,vnew:       0.70 MB

     Dynamical RAM for               rhoin:       0.23 MB

     Dynamical RAM for            rho*nmix:       1.54 MB

     Dynamical RAM for           G-vectors:       0.41 MB

     Dynamical RAM for          h,s,v(r/c):       0.01 MB

     Dynamical RAM for          <psi|beta>:       0.00 MB

     Dynamical RAM for                 psi:       0.19 MB

     Dynamical RAM for                hpsi:       0.19 MB

     Dynamical RAM for      wfcinit/wfcrot:       0.19 MB

     Estimated static dynamical RAM per process >      11.98 MB

     Estimated max dynamical RAM per process >      12.37 MB

     Check: negative core charge=   -0.000072

     Initial potential from superposition of free atoms

     starting charge    7.99992, renormalised to    8.00000

     negative rho (up, down):  9.135E-03 0.000E+00
     Starting wfcs are    8 randomized atomic wfcs

     total cpu time spent up to now is        0.2 secs

     Self-consistent Calculation

     iteration #  1     ecut=    20.00 Ry     beta= 0.70
     Davidson diagonalization with overlap
     ethr =  1.00E-02,  avg # of iterations =  7.1

     negative rho (up, down):  2.411E-03 0.000E+00

     total cpu time spent up to now is        0.9 secs

     total energy              =     -23.40113755 Ry
     estimated scf accuracy    <       0.12327343 Ry

     iteration #  2     ecut=    20.00 Ry     beta= 0.70
     Davidson diagonalization with overlap
     ethr =  1.54E-03,  avg # of iterations =  3.8

     negative rho (up, down):  3.536E-04 0.000E+00

     total cpu time spent up to now is        1.4 secs

     total energy              =     -23.41266590 Ry
     estimated scf accuracy    <       0.00395009 Ry

     iteration #  3     ecut=    20.00 Ry     beta= 0.70
     Davidson diagonalization with overlap
     c_bands:  1 eigenvalues not converged
     c_bands:  1 eigenvalues not converged
     ethr =  4.94E-05,  avg # of iterations =  8.2

     total cpu time spent up to now is        2.1 secs

     total energy              =     -23.41280374 Ry
     estimated scf accuracy    <       0.00017891 Ry

     iteration #  4     ecut=    20.00 Ry     beta= 0.70
     Davidson diagonalization with overlap
     c_bands:  1 eigenvalues not converged
     c_bands:  1 eigenvalues not converged
     c_bands:  1 eigenvalues not converged
     c_bands:  2 eigenvalues not converged
     c_bands:  1 eigenvalues not converged
     ethr =  2.24E-06,  avg # of iterations =  7.3

     total cpu time spent up to now is        2.7 secs

     End of self-consistent calculation

          k = 0.0000 0.0000 0.0000 (   801 PWs)   bands (ev):

   -21.8719  -9.6361  -4.6232  -4.6232   1.0368   1.8859   2.0416   4.2482

     occupation numbers 
     1.0000   1.0000   1.0000   1.0000   0.0000   0.0000   0.0000   0.0000

          k = 0.0000 0.0412 0.0000 (   795 PWs)   bands (ev):

   -21.8357  -9.5957  -4.7061  -4.6663   1.0789   1.9282   2.0838   4.2901

     occupation numbers 
     1.0000   1.0000   1.0000   1.0000   0.0000   0.0000   0.0000   0.0000

          k = 0.0000 0.0825 0.0000 (   799 PWs)   bands (ev):

   -21.7477  -9.5017  -5.1179  -4.8743   1.2044   2.0532   2.2093   4.4116

     occupation numbers 
     1.0000   1.0000   1.0000   1.0000   0.0000   0.0000   0.0000   0.0000

          k = 0.0000 0.1237 0.0000 (   791 PWs)   bands (ev):

   -21.5796  -9.3129  -5.6474  -5.1509   1.4143   2.2637   2.4195   4.6186

     occupation numbers 
     1.0000   1.0000   1.0000   1.0000   0.0000   0.0000   0.0000   0.0000

          k = 0.0000 0.1650 0.0000 (   793 PWs)   bands (ev):

   -21.3541  -9.0553  -6.4338  -5.5149   1.7076   2.5577   2.7133   4.9066

     occupation numbers 
     1.0000   1.0000   1.0000   1.0000   0.0000   0.0000   0.0000   0.0000

          k = 0.0000 0.2062 0.0000 (   786 PWs)   bands (ev):

   -21.0833  -8.6984  -7.2427  -5.8995   2.0829   2.9370   3.0893   5.2791

     occupation numbers 
     1.0000   1.0000   1.0000   1.0000   0.0000   0.0000   0.0000   0.0000

          k = 0.0000 0.2474 0.0000 (   780 PWs)   bands (ev):

   -20.7416  -8.2964  -8.1424  -6.2887   2.5427   3.3972   3.5501   5.7209

     occupation numbers 
     1.0000   1.0000   1.0000   1.0000   0.0000   0.0000   0.0000   0.0000

          k = 0.0000 0.2887 0.0000 (   780 PWs)   bands (ev):

   -20.3413  -9.1060  -7.8278  -6.7580   3.0854   3.9373   4.0942   6.0949

     occupation numbers 
     1.0000   1.0000   1.0000   1.0000   0.0000   0.0000   0.0000   0.0000

          k = 0.0000 0.3299 0.0000 (   766 PWs)   bands (ev):

   -19.8722 -10.0284  -7.2869  -7.0724   3.7113   4.5257   4.7219   5.2468

     occupation numbers 
     1.0000   1.0000   1.0000   1.0000   0.0000   0.0000   0.0000   0.0000

          k = 0.0000 0.3712 0.0000 (   778 PWs)   bands (ev):

   -19.3804 -11.0658  -7.4010  -6.7191   4.0144   4.4175   5.3266   5.4289

     occupation numbers 
     1.0000   1.0000   1.0000   1.0000   0.0000   0.0000   0.0000   0.0000

          k = 0.0000 0.4124 0.0000 (   780 PWs)   bands (ev):

   -18.8147 -12.1001  -7.6858  -6.0633   2.9396   5.2039   5.9360   6.1057

     occupation numbers 
     1.0000   1.0000   1.0000   1.0000   0.0000   0.0000   0.0000   0.0000

          k = 0.0000 0.4536 0.0000 (   784 PWs)   bands (ev):

   -18.1853 -13.0816  -7.9306  -5.4065   1.9069   5.7681   6.0927   6.9791

     occupation numbers 
     1.0000   1.0000   1.0000   1.0000   0.0000   0.0000   0.0000   0.0000

          k = 0.0000 0.4949 0.0000 (   792 PWs)   bands (ev):

   -17.5132 -14.0359  -8.1026  -4.7788   0.9844   5.6527   7.0343   7.9336

     occupation numbers 
     1.0000   1.0000   1.0000   1.0000   0.0000   0.0000   0.0000   0.0000

          k = 0.0000 0.5361 0.0000 (   792 PWs)   bands (ev):

   -16.8340 -14.8826  -8.1954  -4.2697   0.3246   5.5953   8.0603   8.9689

     occupation numbers 
     1.0000   1.0000   1.0000   1.0000   0.0000   0.0000   0.0000   0.0000

          k = 0.0000-0.5774 0.0000 (   782 PWs)   bands (ev):

   -16.3662 -15.3682  -8.2010  -4.0367   0.0793   5.5981   9.1353   9.1946

     occupation numbers 
     1.0000   1.0000   1.0000   1.0000   0.0000   0.0000   0.0000   0.0000

          k = 0.0357 0.0619 0.0000 (   799 PWs)   bands (ev):

   -21.7764  -9.5305  -4.9866  -4.8355   1.1626   2.0117   2.1675   4.3714

     occupation numbers 
     1.0000   1.0000   1.0000   1.0000   0.0000   0.0000   0.0000   0.0000

          k = 0.0357 0.1031 0.0000 (   795 PWs)   bands (ev):

   -21.6473  -9.3885  -5.4178  -5.0877   1.3303   2.1795   2.3354   4.5357

     occupation numbers 
     1.0000   1.0000   1.0000   1.0000   0.0000   0.0000   0.0000   0.0000

          k = 0.0357 0.1443 0.0000 (   797 PWs)   bands (ev):

   -21.4531  -9.1661  -6.1100  -5.4509   1.5818   2.4317   2.5873   4.7835

     occupation numbers 
     1.0000   1.0000   1.0000   1.0000   0.0000   0.0000   0.0000   0.0000

          k = 0.0357 0.1856 0.0000 (   792 PWs)   bands (ev):

   -21.2074  -8.8573  -6.8479  -5.8281   1.9160   2.7685   2.9221   5.1139

     occupation numbers 
     1.0000   1.0000   1.0000   1.0000   0.0000   0.0000   0.0000   0.0000

          k = 0.0357 0.2268 0.0000 (   786 PWs)   bands (ev):

   -20.8917  -8.4750  -7.7173  -6.2423   2.3341   3.1886   3.3411   5.5237

     occupation numbers 
     1.0000   1.0000   1.0000   1.0000   0.0000   0.0000   0.0000   0.0000

          k = 0.0357 0.2681 0.0000 (   775 PWs)   bands (ev):

   -20.5183  -8.5856  -8.0424  -6.6234   2.8356   3.6893   3.8437   5.9878

     occupation numbers 
     1.0000   1.0000   1.0000   1.0000   0.0000   0.0000   0.0000   0.0000

          k = 0.0357 0.3093 0.0000 (   772 PWs)   bands (ev):

   -20.0935  -9.5655  -7.5384  -6.9807   3.4194   4.2639   4.4292   5.7067

     occupation numbers 
     1.0000   1.0000   1.0000   1.0000   0.0000   0.0000   0.0000   0.0000

          k = 0.0357 0.3505 0.0000 (   775 PWs)   bands (ev):

   -19.6208 -10.5485  -7.3392  -6.9842   4.0849   4.5076   5.0412   5.0970

     occupation numbers 
     1.0000   1.0000   1.0000   1.0000   0.0000   0.0000   0.0000   0.0000

          k = 0.0357 0.3918 0.0000 (   775 PWs)   bands (ev):

   -19.0779 -11.5880  -7.6348  -6.3482   3.4635   4.8327   5.7322   5.8416

     occupation numbers 
     1.0000   1.0000   1.0000   1.0000   0.0000   0.0000   0.0000   0.0000

          k = 0.0357 0.4330 0.0000 (   775 PWs)   bands (ev):

   -18.4641 -12.5889  -7.8832  -5.7050   2.4192   5.6574   6.0220   6.5599

     occupation numbers 
     1.0000   1.0000   1.0000   1.0000   0.0000   0.0000   0.0000   0.0000

          k = 0.0357 0.4743 0.0000 (   784 PWs)   bands (ev):

   -17.8325 -13.5383  -8.0983  -5.0572   1.4257   5.8668   6.5818   7.4746

     occupation numbers 
     1.0000   1.0000   1.0000   1.0000   0.0000   0.0000   0.0000   0.0000

          k = 0.0357 0.5155 0.0000 (   786 PWs)   bands (ev):

   -17.1321 -14.4504  -8.2185  -4.4692   0.6178   5.7774   7.5695   8.4664

     occupation numbers 
     1.0000   1.0000   1.0000   1.0000   0.0000   0.0000   0.0000   0.0000

          k = 0.0357 0.5567 0.0000 (   784 PWs)   bands (ev):

   -16.4994 -15.1873  -8.2872  -4.0727   0.1397   5.7478   8.6328   9.5344

     occupation numbers 
     1.0000   1.0000   1.0000   1.0000   0.0000   0.0000   0.0000   0.0000

          k = 0.0714 0.1237 0.0000 (   795 PWs)   bands (ev):

   -21.4894  -9.2146  -5.9008  -5.4253   1.5398   2.3890   2.5453   4.7403

     occupation numbers 
     1.0000   1.0000   1.0000   1.0000   0.0000   0.0000   0.0000   0.0000

          k = 0.0714 0.1650 0.0000 (   791 PWs)   bands (ev):

   -21.2565  -8.9436  -6.5936  -5.8221   1.8335   2.6838   2.8393   5.0302

     occupation numbers 
     1.0000   1.0000   1.0000   1.0000   0.0000   0.0000   0.0000   0.0000

          k = 0.0714 0.2062 0.0000 (   792 PWs)   bands (ev):

   -20.9947  -8.6114  -7.3515  -6.2468   2.2086   3.0615   3.2153   5.3993

     occupation numbers 
     1.0000   1.0000   1.0000   1.0000   0.0000   0.0000   0.0000   0.0000

          k = 0.0714 0.2474 0.0000 (   780 PWs)   bands (ev):

   -20.6566  -8.1862  -8.1394  -6.6777   2.6677   3.5232   3.6756   5.8454

     occupation numbers 
     1.0000   1.0000   1.0000   1.0000   0.0000   0.0000   0.0000   0.0000

          k = 0.0714 0.2887 0.0000 (   776 PWs)   bands (ev):

   -20.2627  -9.0679  -7.7127  -7.1178   3.2100   4.0639   4.2196   6.1062

     occupation numbers 
     1.0000   1.0000   1.0000   1.0000   0.0000   0.0000   0.0000   0.0000

          k = 0.0714 0.3299 0.0000 (   778 PWs)   bands (ev):

   -19.8178 -10.0576  -7.4837  -7.1907   3.8345   4.6413   4.8467   5.1477

     occupation numbers 
     1.0000   1.0000   1.0000   1.0000   0.0000   0.0000   0.0000   0.0000

          k = 0.0714 0.3712 0.0000 (   783 PWs)   bands (ev):

   -19.3016 -11.0421  -7.8605  -6.5954   3.9330   4.5422   5.4361   5.5570

     occupation numbers 
     1.0000   1.0000   1.0000   1.0000   0.0000   0.0000   0.0000   0.0000

          k = 0.0714 0.4124 0.0000 (   781 PWs)   bands (ev):

   -18.7201 -12.0550  -8.1312  -5.9488   2.8798   5.3314   6.2203   6.3384

     occupation numbers 
     1.0000   1.0000   1.0000   1.0000   0.0000   0.0000   0.0000   0.0000

          k = 0.0714 0.4536 0.0000 (   779 PWs)   bands (ev):

   -18.0959 -13.0071  -8.3353  -5.2980   1.8903   6.1892   6.3978   7.0907

     occupation numbers 
     1.0000   1.0000   1.0000   1.0000   0.0000   0.0000   0.0000   0.0000

          k = 0.0714 0.4949 0.0000 (   781 PWs)   bands (ev):

   -17.4149 -13.9493  -8.4854  -4.6638   0.9931   6.2658   7.1576   8.0414

     occupation numbers 
     1.0000   1.0000   1.0000   1.0000   0.0000   0.0000   0.0000   0.0000

          k = 0.0714 0.5361 0.0000 (   782 PWs)   bands (ev):

   -16.7297 -14.7986  -8.5994  -4.1394   0.3202   6.2044   8.1820   9.0621

     occupation numbers 
     1.0000   1.0000   1.0000   1.0000   0.0000   0.0000   0.0000   0.0000

          k = 0.0714 0.5774 0.0000 (   782 PWs)   bands (ev):

   -16.2757 -15.2851  -8.6445  -3.9203   0.0522   6.1885   9.2507   9.3136

     occupation numbers 
     1.0000   1.0000   1.0000   1.0000   0.0000   0.0000   0.0000   0.0000

          k = 0.1071 0.1856 0.0000 (   799 PWs)   bands (ev):

   -21.0430  -8.6508  -7.1444  -6.3762   2.1659   3.0195   3.1726   5.3585

     occupation numbers 
     1.0000   1.0000   1.0000   1.0000   0.0000   0.0000   0.0000   0.0000

          k = 0.1071 0.2268 0.0000 (   782 PWs)   bands (ev):

   -20.7237  -8.2658  -7.8000  -6.8565   2.5841   3.4397   3.5919   5.7693

     occupation numbers 
     1.0000   1.0000   1.0000   1.0000   0.0000   0.0000   0.0000   0.0000

          k = 0.1071 0.2681 0.0000 (   785 PWs)   bands (ev):

   -20.3638  -8.6669  -7.8317  -7.3481   3.0847   3.9408   4.0941   6.2266

     occupation numbers 
     1.0000   1.0000   1.0000   1.0000   0.0000   0.0000   0.0000   0.0000

          k = 0.1071 0.3093 0.0000 (   782 PWs)   bands (ev):

   -19.9489  -9.5800  -7.7496  -7.3435   3.6680   4.5151   4.6796   5.4689

     occupation numbers 
     1.0000   1.0000   1.0000   1.0000   0.0000   0.0000   0.0000   0.0000

          k = 0.1071 0.3505 0.0000 (   782 PWs)   bands (ev):

   -19.4594 -10.5387  -8.1254  -6.7749   4.3345   4.3673   5.2208   5.3495

     occupation numbers 
     1.0000   1.0000   1.0000   1.0000   0.0000   0.0000   0.0000   0.0000

          k = 0.1071 0.3918 0.0000 (   786 PWs)   bands (ev):

   -18.9250 -11.5058  -8.4422  -6.1668   3.3108   5.0821   5.9575   6.1008

     occupation numbers 
     1.0000   1.0000   1.0000   1.0000   0.0000   0.0000   0.0000   0.0000

          k = 0.1071 0.4330 0.0000 (   781 PWs)   bands (ev):

   -18.3085 -12.4514  -8.6909  -5.5028   2.2957   5.9120   6.7895   6.9655

     occupation numbers 
     1.0000   1.0000   1.0000   1.0000   0.0000   0.0000   0.0000   0.0000

          k = 0.1071 0.4743 0.0000 (   777 PWs)   bands (ev):

   -17.6528 -13.3988  -8.8758  -4.8284   1.3780   6.8141   7.0322   7.6915

     occupation numbers 
     1.0000   1.0000   1.0000   1.0000   0.0000   0.0000   0.0000   0.0000

          k = 0.1071 0.5155 0.0000 (   777 PWs)   bands (ev):

   -16.9612 -14.2831  -9.0043  -4.2230   0.5702   6.9258   7.8120   8.6614

     occupation numbers 
     1.0000   1.0000   1.0000   1.0000   0.0000   0.0000   0.0000   0.0000

          k = 0.1071 0.5567 0.0000 (   774 PWs)   bands (ev):

   -16.3159 -15.0156  -9.0760  -3.8251   0.0840   6.8887   8.8704   9.6602

     occupation numbers 
     1.0000   1.0000   1.0000   1.0000   0.0000   0.0000   0.0000   0.0000

          k = 0.1429 0.2474 0.0000 (   785 PWs)   bands (ev):

   -20.4021  -8.4648  -7.8610  -7.4534   3.0425   3.9003   4.0519   6.2177

     occupation numbers 
     1.0000   1.0000   1.0000   1.0000   0.0000   0.0000   0.0000   0.0000

          k = 0.1429 0.2887 0.0000 (   785 PWs)   bands (ev):

   -20.0112  -9.2400  -7.9921  -7.4060   3.5846   4.4408   4.5961   5.6517

     occupation numbers 
     1.0000   1.0000   1.0000   1.0000   0.0000   0.0000   0.0000   0.0000

          k = 0.1429 0.3299 0.0000 (   784 PWs)   bands (ev):

   -19.5652 -10.0977  -8.4729  -6.8667   4.2087   4.6646   5.0823   5.2233

     occupation numbers 
     1.0000   1.0000   1.0000   1.0000   0.0000   0.0000   0.0000   0.0000

          k = 0.1429 0.3712 0.0000 (   776 PWs)   bands (ev):

   -19.0313 -10.9873  -8.8168  -6.2765   3.6965   4.9170   5.7797   5.9352

     occupation numbers 
     1.0000   1.0000   1.0000   1.0000   0.0000   0.0000   0.0000   0.0000

          k = 0.1429 0.4124 0.0000 (   776 PWs)   bands (ev):

   -18.4610 -11.8968  -9.1070  -5.6491   2.6809   5.7052   6.5622   6.7285

     occupation numbers 
     1.0000   1.0000   1.0000   1.0000   0.0000   0.0000   0.0000   0.0000

          k = 0.1429 0.4536 0.0000 (   776 PWs)   bands (ev):

   -17.8461 -12.8149  -9.3640  -4.9799   1.7348   6.5723   7.4185   7.6016

     occupation numbers 
     1.0000   1.0000   1.0000   1.0000   0.0000   0.0000   0.0000   0.0000

          k = 0.1429 0.4949 0.0000 (   776 PWs)   bands (ev):

   -17.1669 -13.7234  -9.5383  -4.3329   0.8823   7.5183   7.8635   8.3318

     occupation numbers 
     1.0000   1.0000   1.0000   1.0000   0.0000   0.0000   0.0000   0.0000

          k = 0.1429 0.5361 0.0000 (   776 PWs)   bands (ev):

   -16.4827 -14.5425  -9.6725  -3.8037   0.2358   7.8078   8.5418   9.2550

     occupation numbers 
     1.0000   1.0000   1.0000   1.0000   0.0000   0.0000   0.0000   0.0000

          k = 0.1429 0.5774 0.0000 (   776 PWs)   bands (ev):

   -16.0364 -15.0452  -9.6919  -3.5766  -0.0297   7.7799   9.5925   9.6647

     occupation numbers 
     1.0000   1.0000   1.0000   1.0000   0.0000   0.0000   0.0000   0.0000

          k = 0.1786 0.3093 0.0000 (   775 PWs)   bands (ev):

   -19.5832  -9.8365  -8.6557  -6.8959   4.1680   4.8030   5.0240   5.1822

     occupation numbers 
     1.0000   1.0000   1.0000   1.0000   0.0000   0.0000   0.0000   0.0000

          k = 0.1786 0.3505 0.0000 (   781 PWs)   bands (ev):

   -19.1099 -10.6019  -9.2169  -6.3442   3.8893   4.8327   5.6853   5.8509

     occupation numbers 
     1.0000   1.0000   1.0000   1.0000   0.0000   0.0000   0.0000   0.0000

          k = 0.1786 0.3918 0.0000 (   783 PWs)   bands (ev):

   -18.5668 -11.4475  -9.6283  -5.7380   2.9588   5.5798   6.4227   6.6031

     occupation numbers 
     1.0000   1.0000   1.0000   1.0000   0.0000   0.0000   0.0000   0.0000

          k = 0.1786 0.4330 0.0000 (   783 PWs)   bands (ev):

   -17.9601 -12.2867  -9.9380  -5.0918   2.0255   6.4077   7.2280   7.4382

     occupation numbers 
     1.0000   1.0000   1.0000   1.0000   0.0000   0.0000   0.0000   0.0000

          k = 0.1786 0.4743 0.0000 (   778 PWs)   bands (ev):

   -17.3098 -13.1564 -10.1532  -4.4095   1.1591   7.3134   8.0806   8.3537

     occupation numbers 
     1.0000   1.0000   1.0000   1.0000   0.0000   0.0000   0.0000   0.0000

          k = 0.1786 0.5155 0.0000 (   780 PWs)   bands (ev):

   -16.6289 -14.0095 -10.3014  -3.8019   0.3956   8.2931   8.8357   8.8965

     occupation numbers 
     1.0000   1.0000   1.0000   1.0000   0.0000   0.0000   0.0000   0.0000

          k = 0.1786 0.5567 0.0000 (   780 PWs)   bands (ev):

   -16.0043 -14.7160 -10.3752  -3.4002  -0.0710   8.8037   9.3392   9.4200

     occupation numbers 
     1.0000   1.0000   1.0000   1.0000   0.0000   0.0000   0.0000   0.0000

          k = 0.2143 0.3712 0.0000 (   775 PWs)   bands (ev):

   -18.5787 -11.1924  -9.8414  -5.7602   3.0914   5.5396   6.3757   6.5623

     occupation numbers 
     1.0000   1.0000   1.0000   1.0000   0.0000   0.0000   0.0000   0.0000

          k = 0.2143 0.4124 0.0000 (   787 PWs)   bands (ev):

   -18.0361 -11.9000 -10.3631  -5.1454   2.1992   6.3235   7.1289   7.3538

     occupation numbers 
     1.0000   1.0000   1.0000   1.0000   0.0000   0.0000   0.0000   0.0000

          k = 0.2143 0.4536 0.0000 (   783 PWs)   bands (ev):

   -17.4022 -12.6434 -10.7025  -4.4782   1.3571   7.1891   7.9143   8.2290

     occupation numbers 
     1.0000   1.0000   1.0000   1.0000   0.0000   0.0000   0.0000   0.0000

          k = 0.2143 0.4949 0.0000 (   778 PWs)   bands (ev):

   -16.7380 -13.4386 -10.9066  -3.8145   0.5839   8.1281   8.6129   9.1832

     occupation numbers 
     1.0000   1.0000   1.0000   1.0000   0.0000   0.0000   0.0000   0.0000

          k = 0.2143 0.5361 0.0000 (   780 PWs)   bands (ev):

   -16.0704 -14.2114 -11.0519  -3.2609  -0.0462   8.9757   9.1337   9.9136

     occupation numbers 
     1.0000   1.0000   1.0000   1.0000   0.0000   0.0000   0.0000   0.0000

          k = 0.2143 0.5774 0.0000 (   786 PWs)   bands (ev):

   -15.6453 -14.6927 -11.1047  -3.0280  -0.3292   9.0446   9.8721  10.1536

     occupation numbers 
     1.0000   1.0000   1.0000   1.0000   0.0000   0.0000   0.0000   0.0000

          k = 0.2500 0.4330 0.0000 (   781 PWs)   bands (ev):

   -17.4325 -12.3923 -10.9701  -4.4912   1.4569   7.1476   7.8566   8.1871

     occupation numbers 
     1.0000   1.0000   1.0000   1.0000   0.0000   0.0000   0.0000   0.0000

          k = 0.2500 0.4743 0.0000 (   779 PWs)   bands (ev):

   -16.7941 -13.0027 -11.3835  -3.8326   0.7074   8.0453   8.4478   9.0997

     occupation numbers 
     1.0000   1.0000   1.0000   1.0000   0.0000   0.0000   0.0000   0.0000

          k = 0.2500 0.5155 0.0000 (   778 PWs)   bands (ev):

   -16.1279 -13.6978 -11.6331  -3.1883   0.0039   8.6596   9.0102  10.0895

     occupation numbers 
     1.0000   1.0000   1.0000   1.0000   0.0000   0.0000   0.0000   0.0000

          k = 0.2500 0.5567 0.0000 (   780 PWs)   bands (ev):

   -15.5102 -14.3491 -11.7559  -2.7218  -0.4965   8.6602  10.0234  10.9454

     occupation numbers 
     1.0000   1.0000   1.0000   1.0000   0.0000   0.0000   0.0000   0.0000

          k = 0.2857 0.4949 0.0000 (   777 PWs)   bands (ev):

   -16.1509 -13.4397 -11.9195  -3.1530   0.0265   8.5458   8.9692  10.0477

     occupation numbers 
     1.0000   1.0000   1.0000   1.0000   0.0000   0.0000   0.0000   0.0000

          k = 0.2857 0.5361 0.0000 (   772 PWs)   bands (ev):

   -15.4863 -13.9470 -12.2296  -2.5234  -0.5892   8.4392   9.9449  11.0662

     occupation numbers 
     1.0000   1.0000   1.0000   1.0000   0.0000   0.0000   0.0000   0.0000

          k = 0.2857 0.5774 0.0000 (   770 PWs)   bands (ev):

   -15.0485 -14.3633 -12.3088  -2.1939  -0.9207   8.3844  10.8713  10.9757

     occupation numbers 
     1.0000   1.0000   1.0000   1.0017   0.0000   0.0000   0.0000   0.0000

          k = 0.3214 0.5567 0.0000 (   771 PWs)   bands (ev):

   -14.9057 -14.3033 -12.5772  -1.9138  -1.1845   8.2835  10.8746  11.5936

     occupation numbers 
     1.0000   1.0000   1.0000   0.9983   0.0000   0.0000   0.0000   0.0000

     the Fermi energy is    -1.7891 ev

!    total energy              =     -23.41281630 Ry
     estimated scf accuracy    <       0.00000043 Ry
     smearing contrib. (-TS)   =       0.00001306 Ry
     internal energy E=F+TS    =     -23.41282936 Ry

     The total energy is F=E-TS. E is the sum of the following terms:
     one-electron contribution =    -153.67129057 Ry
     hartree contribution      =      78.21117574 Ry
     xc contribution           =      -8.39545061 Ry
     ewald contribution        =      60.44273608 Ry

     convergence has been achieved in   4 iterations

     Forces acting on atoms (cartesian axes, Ry/au):

     atom    1 type  1   force =    -0.00000000   -0.00000000    0.00000000
     atom    2 type  1   force =     0.00000000    0.00000000    0.00000000
     The non-local contrib.  to forces
     atom    1 type  1   force =     0.00000000   -0.00000000   -0.00000000
     atom    2 type  1   force =    -0.00000000    0.00000000    0.00000000
     The ionic contribution  to forces
     atom    1 type  1   force =    -0.00000001    0.00000000   -0.00000000
     atom    2 type  1   force =     0.00000001   -0.00000000   -0.00000000
     The local contribution  to forces
     atom    1 type  1   force =     0.00000000   -0.00000000   -0.00000000
     atom    2 type  1   force =     0.00000000   -0.00000000   -0.00000000
     The core correction contribution to forces
     atom    1 type  1   force =     0.00000000   -0.00000000   -0.00000000
     atom    2 type  1   force =    -0.00000000    0.00000000    0.00000000
     The Hubbard contrib.    to forces
     atom    1 type  1   force =     0.00000000    0.00000000    0.00000000
     atom    2 type  1   force =     0.00000000    0.00000000    0.00000000
     The SCF correction term to forces
     atom    1 type  1   force =     0.00000000   -0.00000000    0.00000000
     atom    2 type  1   force =    -0.00000000    0.00000000    0.00000000

     Total force =     0.000000     Total SCF correction =     0.000000


     Computing stress (Cartesian axis) and pressure

          total   stress  (Ry/bohr**3)                   (kbar)     P=     -192.36
  -0.00106508  -0.00000000   0.00000000         -156.68       -0.00        0.00
  -0.00000000  -0.00106508   0.00000000           -0.00     -156.68        0.00
   0.00000000   0.00000000  -0.00179284            0.00        0.00     -263.74

     kinetic stress (kbar)   2772.19     -0.00      0.00
                               -0.00   2772.19      0.00
                                0.00      0.00   3034.06

     local   stress (kbar) -46952.83      0.00      0.00
                                0.00 -46952.83     -0.00
                                0.00     -0.00  47801.69

     nonloc. stress (kbar)   -150.21      0.00      0.00
                                0.00   -150.21      0.00
                                0.00      0.00    -98.01

     hartree stress (kbar)  22035.96      0.00      0.00
                                0.00  22035.96      0.00
                                0.00      0.00 -21835.46

     exc-cor stress (kbar)   -243.35      0.00      0.00
                                0.00   -243.35      0.00
                                0.00      0.00   -243.35

     corecor stress (kbar)   -451.95      0.00     -0.00
                                0.00   -451.95      0.00
                               -0.00      0.00   -440.30

     ewald   stress (kbar)  22833.51     -0.00     -0.00
                               -0.00  22833.51     -0.00
                               -0.00     -0.00 -28482.36

     hubbard stress (kbar)      0.00      0.00      0.00
                                0.00      0.00      0.00
                                0.00      0.00      0.00

     DFT-D   stress (kbar)      0.00      0.00      0.00
                                0.00      0.00      0.00
                                0.00      0.00      0.00

     XDM     stress (kbar)      0.00      0.00      0.00
                                0.00      0.00      0.00
                                0.00      0.00      0.00

     dft-nl  stress (kbar)      0.00      0.00      0.00
                                0.00      0.00      0.00
                                0.00      0.00      0.00

     TS-vdW  stress (kbar)      0.00      0.00      0.00
                                0.00      0.00      0.00
                                0.00      0.00      0.00



     Writing output data file ./tmp/graphene.save/

     init_run     :      0.46s CPU      0.18s WALL (       1 calls)
     electrons    :      6.17s CPU      2.45s WALL (       1 calls)
     forces       :      0.15s CPU      0.04s WALL (       1 calls)
     stress       :      0.54s CPU      0.23s WALL (       1 calls)

     Called by init_run:
     wfcinit      :      0.43s CPU      0.15s WALL (       1 calls)
     wfcinit:atom :      0.02s CPU      0.01s WALL (      80 calls)
     wfcinit:wfcr :      0.31s CPU      0.11s WALL (      80 calls)
     potinit      :      0.00s CPU      0.00s WALL (       1 calls)
     hinit0       :      0.02s CPU      0.02s WALL (       1 calls)

     Called by electrons:
     c_bands      :      5.47s CPU      2.16s WALL (       4 calls)
     sum_band     :      0.66s CPU      0.28s WALL (       4 calls)
     v_of_rho     :      0.01s CPU      0.01s WALL (       5 calls)
     v_h          :      0.00s CPU      0.00s WALL (       5 calls)
     v_xc         :      0.02s CPU      0.01s WALL (       7 calls)
     mix_rho      :      0.01s CPU      0.00s WALL (       4 calls)

     Called by c_bands:
     init_us_2    :      0.27s CPU      0.10s WALL (     880 calls)
     cegterg      :      5.07s CPU      2.00s WALL (     320 calls)

     Called by sum_band:
     sum_band:wei :      0.00s CPU      0.00s WALL (       4 calls)
     sum_band:loo :      0.65s CPU      0.28s WALL (       4 calls)
     sum_band:buf :      0.01s CPU      0.01s WALL (     320 calls)
     sum_band:ini :      0.09s CPU      0.04s WALL (     320 calls)

     Called by *egterg:
     cdiaghg      :      0.45s CPU      0.17s WALL (    2426 calls)
     cegterg:over :      0.22s CPU      0.08s WALL (    2106 calls)
     cegterg:upda :      0.16s CPU      0.06s WALL (    2106 calls)
     cegterg:last :      0.11s CPU      0.05s WALL (     989 calls)
     h_psi        :      4.21s CPU      1.67s WALL (    2506 calls)
     g_psi        :      0.08s CPU      0.03s WALL (    2106 calls)

     Called by h_psi:
     h_psi:calbec :      0.30s CPU      0.17s WALL (    2506 calls)
     vloc_psi     :      3.71s CPU      1.43s WALL (    2506 calls)
     add_vuspsi   :      0.12s CPU      0.05s WALL (    2506 calls)

     General routines
     calbec       :      0.34s CPU      0.19s WALL (    2906 calls)
     fft          :      0.01s CPU      0.00s WALL (      22 calls)
     ffts         :      0.00s CPU      0.00s WALL (       4 calls)
     fftw         :      2.88s CPU      1.13s WALL (   21820 calls)

     Parallel routines

     PWSCF        :      7.46s CPU      2.98s WALL


   This run was terminated on:  11:49:34  14Feb2024            

=------------------------------------------------------------------------------=
   JOB DONE.
=------------------------------------------------------------------------------=
