 CRYSTAL
 PRIMVEC
    2.468331225    0.000000000    0.000000000
   -1.234165612    2.137637546    0.000000000
    0.000000000    0.000000000   19.746649800
 PRIMCOORD
           4           1
C         0.000000000    0.000000000    0.000000000
C         0.000000000    0.000000000    3.307899534
C         1.234166847    0.712545136    0.000000000
C        -0.000001234    1.425092410    3.307899534
BEGIN_BLOCK_DATAGRID_3D
3D_PWSCF
BEGIN_DATAGRID_3D_UNKNOWN
          25          25         193
  0.000000  0.000000  0.000000
    2.468331    0.000000    0.000000
   -1.234166    2.137638    0.000000
    0.000000    0.000000   19.746650
  0.509102E-07  0.283316E-06  0.741872E-06  0.103504E-05  0.105267E-05  0.927928E-06
  0.791800E-06  0.683152E-06  0.591347E-06  0.510321E-06  0.450322E-06  0.418689E-06
  0.409960E-06  0.418689E-06  0.450322E-06  0.510321E-06  0.591347E-06  0.683152E-06
  0.791800E-06  0.927928E-06  0.105267E-05  0.103504E-05  0.741872E-06  0.283316E-06
  0.509102E-07  0.283316E-06  0.283316E-06  0.656291E-06  0.103678E-05  0.116560E-05
  0.109065E-05  0.962559E-06  0.856494E-06  0.771008E-06  0.690285E-06  0.619401E-06
  0.573158E-06  0.553942E-06  0.553942E-06  0.573158E-06  0.619401E-06  0.690285E-06
  0.771008E-06  0.856494E-06  0.962559E-06  0.109065E-05  0.116560E-05  0.103678E-05
  0.656291E-06  0.283316E-06  0.741872E-06  0.588210E-06  0.741872E-06  0.103678E-05
  0.120754E-05  0.119340E-05  0.109743E-05  0.100715E-05  0.938092E-06  0.874967E-06
  0.814601E-06  0.769353E-06  0.746873E-06  0.741308E-06  0.746873E-06  0.769353E-06
  0.814601E-06  0.874967E-06  0.938092E-06  0.100715E-05  0.109743E-05  0.119340E-05
  0.120754E-05  0.103678E-05  0.741872E-06  0.103504E-05  0.896453E-06  0.896453E-06
  0.103504E-05  0.116560E-05  0.119340E-05  0.114972E-05  0.109776E-05  0.106168E-05
  0.103622E-05  0.101575E-05  0.100061E-05  0.990540E-06  0.984991E-06  0.984991E-06
  0.990540E-06  0.100061E-05  0.101575E-05  0.103622E-05  0.106168E-05  0.109776E-05
  0.114972E-05  0.119340E-05  0.116560E-05  0.103504E-05  0.105267E-05  0.989917E-06
  0.956875E-06  0.989917E-06  0.105267E-05  0.109065E-05  0.109743E-05  0.109776E-05
  0.110813E-05  0.113404E-05  0.117798E-05  0.122677E-05  0.124704E-05  0.122738E-05
  0.120966E-05  0.122738E-05  0.124704E-05  0.122677E-05  0.117798E-05  0.113404E-05
  0.110813E-05  0.109776E-05  0.109743E-05  0.109065E-05  0.105267E-05  0.927928E-06
  0.901368E-06  0.884716E-06  0.884716E-06  0.901368E-06  0.927928E-06  0.962559E-06
  0.100715E-05  0.106168E-05  0.113404E-05  0.124182E-05  0.137269E-05  0.144384E-05
  0.137533E-05  0.124934E-05  0.124934E-05  0.137533E-05  0.144384E-05  0.137269E-05
  0.124182E-05  0.113404E-05  0.106168E-05  0.100715E-05  0.962559E-06  0.927928E-06
  0.791800E-06  0.755304E-06  0.744541E-06  0.743995E-06  0.744541E-06  0.755304E-06
  0.791800E-06  0.856494E-06  0.938092E-06  0.103622E-05  0.117798E-05  0.137269E-05
  0.151708E-05  0.141500E-05  0.107238E-05  0.868337E-06  0.107238E-05  0.141500E-05
  0.151708E-05  0.137269E-05  0.117798E-05  0.103622E-05  0.938092E-06  0.856494E-06
  0.791800E-06  0.683152E-06  0.622768E-06  0.599081E-06  0.597973E-06  0.597973E-06
  0.599081E-06  0.622768E-06  0.683152E-06  0.771008E-06  0.874967E-06  0.101575E-05
  0.122677E-05  0.144384E-05  0.141500E-05  0.946206E-06  0.387631E-06  0.387631E-06
  0.946206E-06  0.141500E-05  0.144384E-05  0.122677E-05  0.101575E-05  0.874967E-06
  0.771008E-06  0.683152E-06  0.591347E-06  0.514017E-06  0.471927E-06  0.462233E-06
  0.463381E-06  0.462233E-06  0.471927E-06  0.514017E-06  0.591347E-06  0.690285E-06
  0.814601E-06  0.100061E-05  0.124704E-05  0.137533E-05  0.107238E-05  0.387631E-06
  0.223458E-08  0.387631E-06  0.107238E-05  0.137533E-05  0.124704E-05  0.100061E-05
  0.814601E-06  0.690285E-06  0.591347E-06  0.510321E-06  0.423669E-06  0.366845E-06
  0.344258E-06  0.342094E-06  0.342094E-06  0.344258E-06  0.366845E-06  0.423669E-06
  0.510321E-06  0.619401E-06  0.769353E-06  0.990540E-06  0.122738E-05  0.124934E-05
  0.868337E-06  0.387631E-06  0.387631E-06  0.868337E-06  0.124934E-05  0.122738E-05
  0.990540E-06  0.769353E-06  0.619401E-06  0.510321E-06  0.450322E-06  0.355703E-06
  0.288307E-06  0.252694E-06  0.242138E-06  0.241373E-06  0.242138E-06  0.252694E-06
  0.288307E-06  0.355703E-06  0.450322E-06  0.573158E-06  0.746873E-06  0.984991E-06
  0.120966E-05  0.124934E-05  0.107238E-05  0.946206E-06  0.107238E-05  0.124934E-05
  0.120966E-05  0.984991E-06  0.746873E-06  0.573158E-06  0.450322E-06  0.418689E-06
  0.316114E-06  0.240662E-06  0.193961E-06  0.172301E-06  0.165877E-06  0.165877E-06
  0.172301E-06  0.193961E-06  0.240662E-06  0.316114E-06  0.418689E-06  0.553942E-06
  0.741308E-06  0.984991E-06  0.122738E-05  0.137533E-05  0.141500E-05  0.141500E-05
  0.137533E-05  0.122738E-05  0.984991E-06  0.741308E-06  0.553942E-06  0.418689E-06
  0.409960E-06  0.300860E-06  0.219952E-06  0.165478E-06  0.133406E-06  0.117671E-06
  0.113114E-06  0.117671E-06  0.133406E-06  0.165478E-06  0.219952E-06  0.300860E-06
  0.409960E-06  0.553942E-06  0.746873E-06  0.990540E-06  0.124704E-05  0.144384E-05
  0.151708E-05  0.144384E-05  0.124704E-05  0.990540E-06  0.746873E-06  0.553942E-06
  0.409960E-06  0.418689E-06  0.300860E-06  0.215146E-06  0.156472E-06  0.117572E-06
  0.927457E-07  0.802315E-07  0.802315E-07  0.927457E-07  0.117572E-06  0.156472E-06
  0.215146E-06  0.300860E-06  0.418689E-06  0.573158E-06  0.769353E-06  0.100061E-05
  0.122677E-05  0.137269E-05  0.137269E-05  0.122677E-05  0.100061E-05  0.769353E-06
  0.573158E-06  0.418689E-06  0.450322E-06  0.316114E-06  0.219952E-06  0.156472E-06
  0.114011E-06  0.834207E-07  0.631963E-07  0.559777E-07  0.631963E-07  0.834207E-07
  0.114011E-06  0.156472E-06  0.219952E-06  0.316114E-06  0.450322E-06  0.619401E-06
  0.814601E-06  0.101575E-05  0.117798E-05  0.124182E-05  0.117798E-05  0.101575E-05
  0.814601E-06  0.619401E-06  0.450322E-06  0.510321E-06  0.355703E-06  0.240662E-06
  0.165478E-06  0.117572E-06  0.834207E-07  0.581074E-07  0.440781E-07  0.440781E-07
  0.581074E-07  0.834207E-07  0.117572E-06  0.165478E-06  0.240662E-06  0.355703E-06
  0.510321E-06  0.690285E-06  0.874967E-06  0.103622E-05  0.113404E-05  0.113404E-05
  0.103622E-05  0.874967E-06  0.690285E-06  0.510321E-06  0.591347E-06  0.423669E-06
  0.288307E-06  0.193961E-06  0.133406E-06  0.927457E-07  0.631963E-07  0.440781E-07
  0.374627E-07  0.440781E-07  0.631963E-07  0.927457E-07  0.133406E-06  0.193961E-06
  0.288307E-06  0.423669E-06  0.591347E-06  0.771008E-06  0.938092E-06  0.106168E-05
  0.110813E-05  0.106168E-05  0.938092E-06  0.771008E-06  0.591347E-06  0.683152E-06
  0.514017E-06  0.366845E-06  0.252694E-06  0.172301E-06  0.117671E-06  0.802315E-07
  0.559777E-07  0.440781E-07  0.440781E-07  0.559777E-07  0.802315E-07  0.117671E-06
  0.172301E-06  0.252694E-06  0.366845E-06  0.514017E-06  0.683152E-06  0.856494E-06
  0.100715E-05  0.109776E-05  0.109776E-05  0.100715E-05  0.856494E-06  0.683152E-06
  0.791800E-06  0.622768E-06  0.471927E-06  0.344258E-06  0.242138E-06  0.165877E-06
  0.113114E-06  0.802315E-07  0.631963E-07  0.581074E-07  0.631963E-07  0.802315E-07
  0.113114E-06  0.165877E-06  0.242138E-06  0.344258E-06  0.471927E-06  0.622768E-06
  0.791800E-06  0.962559E-06  0.109743E-05  0.114972E-05  0.109743E-05  0.962559E-06
  0.791800E-06  0.927928E-06  0.755304E-06  0.599081E-06  0.462233E-06  0.342094E-06
  0.241373E-06  0.165877E-06  0.117671E-06  0.927457E-07  0.834207E-07  0.834207E-07
  0.927457E-07  0.117671E-06  0.165877E-06  0.241373E-06  0.342094E-06  0.462233E-06
  0.599081E-06  0.755304E-06  0.927928E-06  0.109065E-05  0.119340E-05  0.119340E-05
  0.109065E-05  0.927928E-06  0.105267E-05  0.901368E-06  0.744541E-06  0.597973E-06
  0.463381E-06  0.342094E-06  0.242138E-06  0.172301E-06  0.133406E-06  0.117572E-06
  0.114011E-06  0.117572E-06  0.133406E-06  0.172301E-06  0.242138E-06  0.342094E-06
  0.463381E-06  0.597973E-06  0.744541E-06  0.901368E-06  0.105267E-05  0.116560E-05
  0.120754E-05  0.116560E-05  0.105267E-05  0.103504E-05  0.989917E-06  0.884716E-06
  0.743995E-06  0.597973E-06  0.462233E-06  0.344258E-06  0.252694E-06  0.193961E-06
  0.165478E-06  0.156472E-06  0.156472E-06  0.165478E-06  0.193961E-06  0.252694E-06
  0.344258E-06  0.462233E-06  0.597973E-06  0.743995E-06  0.884716E-06  0.989917E-06
  0.103504E-05  0.103678E-05  0.103678E-05  0.103504E-05  0.741872E-06  0.896453E-06
  0.956875E-06  0.884716E-06  0.744541E-06  0.599081E-06  0.471927E-06  0.366845E-06
  0.288307E-06  0.240662E-06  0.219952E-06  0.215146E-06  0.219952E-06  0.240662E-06
  0.288307E-06  0.366845E-06  0.471927E-06  0.599081E-06  0.744541E-06  0.884716E-06
  0.956875E-06  0.896453E-06  0.741872E-06  0.656291E-06  0.741872E-06  0.283316E-06
  0.588210E-06  0.896453E-06  0.989917E-06  0.901368E-06  0.755304E-06  0.622768E-06
  0.514017E-06  0.423669E-06  0.355703E-06  0.316114E-06  0.300860E-06  0.300860E-06
  0.316114E-06  0.355703E-06  0.423669E-06  0.514017E-06  0.622768E-06  0.755304E-06
  0.901368E-06  0.989917E-06  0.896453E-06  0.588210E-06  0.283316E-06  0.283316E-06
  0.509102E-07  0.283316E-06  0.741872E-06  0.103504E-05  0.105267E-05  0.927928E-06
  0.791800E-06  0.683152E-06  0.591347E-06  0.510321E-06  0.450322E-06  0.418689E-06
  0.409960E-06  0.418689E-06  0.450322E-06  0.510321E-06  0.591347E-06  0.683152E-06
  0.791800E-06  0.927928E-06  0.105267E-05  0.103504E-05  0.741872E-06  0.283316E-06
  0.509102E-07  0.490984E-03  0.434697E-03  0.305915E-03  0.179515E-03  0.964019E-04
  0.537620E-04  0.343446E-04  0.256834E-04  0.220774E-04  0.212275E-04  0.217799E-04
  0.226214E-04  0.229900E-04  0.226214E-04  0.217799E-04  0.212275E-04  0.220774E-04
  0.256834E-04  0.343446E-04  0.537620E-04  0.964019E-04  0.179515E-03  0.305915E-03
  0.434697E-03  0.490984E-03  0.434697E-03  0.434697E-03  0.343741E-03  0.221826E-03
  0.125806E-03  0.707694E-04  0.448333E-04  0.339075E-04  0.301409E-04  0.302780E-04
  0.326763E-04  0.357535E-04  0.378550E-04  0.378550E-04  0.357535E-04  0.326763E-04
  0.302780E-04  0.301409E-04  0.339075E-04  0.448333E-04  0.707694E-04  0.125806E-03
  0.221826E-03  0.343741E-03  0.434697E-03  0.305915E-03  0.342436E-03  0.305915E-03
  0.221826E-03  0.138188E-03  0.821926E-04  0.533237E-04  0.412083E-04  0.380044E-04
  0.401961E-04  0.463799E-04  0.548709E-04  0.625281E-04  0.656541E-04  0.625281E-04
  0.548709E-04  0.463799E-04  0.401961E-04  0.380044E-04  0.412083E-04  0.533237E-04
  0.821926E-04  0.138188E-03  0.221826E-03  0.305915E-03  0.179515E-03  0.218816E-03
  0.218816E-03  0.179515E-03  0.125806E-03  0.821926E-04  0.566467E-04  0.455945E-04
  0.438803E-04  0.491058E-04  0.613055E-04  0.802169E-04  0.101666E-03  0.116600E-03
  0.116600E-03  0.101666E-03  0.802169E-04  0.613055E-04  0.491058E-04  0.438803E-04
  0.455945E-04  0.566467E-04  0.821926E-04  0.125806E-03  0.179515E-03  0.964019E-04
  0.121339E-03  0.131966E-03  0.121339E-03  0.964019E-04  0.707694E-04  0.533237E-04
  0.455945E-04  0.460762E-04  0.545104E-04  0.736018E-04  0.107240E-03  0.153875E-03
  0.198679E-03  0.217742E-03  0.198679E-03  0.153875E-03  0.107240E-03  0.736018E-04
  0.545104E-04  0.460762E-04  0.455945E-04  0.533237E-04  0.707694E-04  0.964019E-04
  0.537620E-04  0.649948E-04  0.730364E-04  0.730364E-04  0.649948E-04  0.537620E-04
  0.448333E-04  0.412083E-04  0.438803E-04  0.545104E-04  0.784609E-04  0.125602E-03
  0.203312E-03  0.298662E-03  0.368615E-03  0.368615E-03  0.298662E-03  0.203312E-03
  0.125602E-03  0.784609E-04  0.545104E-04  0.438803E-04  0.412083E-04  0.448333E-04
  0.537620E-04  0.343446E-04  0.375005E-04  0.410213E-04  0.425391E-04  0.410213E-04
  0.375005E-04  0.343446E-04  0.339075E-04  0.380044E-04  0.491058E-04  0.736018E-04
  0.125602E-03  0.224239E-03  0.371834E-03  0.521050E-03  0.586086E-03  0.521050E-03
  0.371834E-03  0.224239E-03  0.125602E-03  0.736018E-04  0.491058E-04  0.380044E-04
  0.339075E-04  0.343446E-04  0.256834E-04  0.245084E-04  0.249338E-04  0.255541E-04
  0.255541E-04  0.249338E-04  0.245084E-04  0.256834E-04  0.301409E-04  0.401961E-04
  0.613055E-04  0.107240E-03  0.203312E-03  0.371834E-03  0.587479E-03  0.749232E-03
  0.749232E-03  0.587479E-03  0.371834E-03  0.203312E-03  0.107240E-03  0.613055E-04
  0.401961E-04  0.301409E-04  0.256834E-04  0.220774E-04  0.181057E-04  0.165405E-04
  0.161018E-04  0.160328E-04  0.161018E-04  0.165405E-04  0.181057E-04  0.220774E-04
  0.302780E-04  0.463799E-04  0.802169E-04  0.153875E-03  0.298662E-03  0.521050E-03
  0.749232E-03  0.849314E-03  0.749232E-03  0.521050E-03  0.298662E-03  0.153875E-03
  0.802169E-04  0.463799E-04  0.302780E-04  0.220774E-04  0.212275E-04  0.150747E-04
  0.119946E-04  0.106293E-04  0.101249E-04  0.101249E-04  0.106293E-04  0.119946E-04
  0.150747E-04  0.212275E-04  0.326763E-04  0.548709E-04  0.101666E-03  0.198679E-03
  0.368615E-03  0.586086E-03  0.749232E-03  0.749232E-03  0.586086E-03  0.368615E-03
  0.198679E-03  0.101666E-03  0.548709E-04  0.326763E-04  0.212275E-04  0.217799E-04
  0.139703E-04  0.969337E-05  0.752836E-05  0.653303E-05  0.624009E-05  0.653303E-05
  0.752836E-05  0.969337E-05  0.139703E-04  0.217799E-04  0.357535E-04  0.625281E-04
  0.116600E-03  0.217742E-03  0.368615E-03  0.521050E-03  0.587479E-03  0.521050E-03
  0.368615E-03  0.217742E-03  0.116600E-03  0.625281E-04  0.357535E-04  0.217799E-04
  0.226214E-04  0.137977E-04  0.869269E-05  0.590982E-05  0.448465E-05  0.386605E-05
  0.386605E-05  0.448465E-05  0.590982E-05  0.869269E-05  0.137977E-04  0.226214E-04
  0.378550E-04  0.656541E-04  0.116600E-03  0.198679E-03  0.298662E-03  0.371834E-03
  0.371834E-03  0.298662E-03  0.198679E-03  0.116600E-03  0.656541E-04  0.378550E-04
  0.226214E-04  0.229900E-04  0.138707E-04  0.832441E-05  0.513097E-05  0.338725E-05
  0.250039E-05  0.222103E-05  0.250039E-05  0.338725E-05  0.513097E-05  0.832441E-05
  0.138707E-04  0.229900E-04  0.378550E-04  0.625281E-04  0.101666E-03  0.153875E-03
  0.203312E-03  0.224239E-03  0.203312E-03  0.153875E-03  0.101666E-03  0.625281E-04
  0.378550E-04  0.229900E-04  0.226214E-04  0.138707E-04  0.823364E-05  0.481066E-05
  0.284231E-05  0.175854E-05  0.126209E-05  0.126209E-05  0.175854E-05  0.284231E-05
  0.481066E-05  0.823364E-05  0.138707E-04  0.226214E-04  0.357535E-04  0.548709E-04
  0.802169E-04  0.107240E-03  0.125602E-03  0.125602E-03  0.107240E-03  0.802169E-04
  0.548709E-04  0.357535E-04  0.226214E-04  0.217799E-04  0.137977E-04  0.832441E-05
  0.481066E-05  0.267338E-05  0.142605E-05  0.766490E-06  0.558352E-06  0.766490E-06
  0.142605E-05  0.267338E-05  0.481066E-05  0.832441E-05  0.137977E-04  0.217799E-04
  0.326763E-04  0.463799E-04  0.613055E-04  0.736018E-04  0.784609E-04  0.736018E-04
  0.613055E-04  0.463799E-04  0.326763E-04  0.217799E-04  0.212275E-04  0.139703E-04
  0.869269E-05  0.513097E-05  0.284231E-05  0.142605E-05  0.613903E-06  0.247651E-06
  0.247651E-06  0.613903E-06  0.142605E-05  0.284231E-05  0.513097E-05  0.869269E-05
  0.139703E-04  0.212275E-04  0.302780E-04  0.401961E-04  0.491058E-04  0.545104E-04
  0.545104E-04  0.491058E-04  0.401961E-04  0.302780E-04  0.212275E-04  0.220774E-04
  0.150747E-04  0.969337E-05  0.590982E-05  0.338725E-05  0.175854E-05  0.766490E-06
  0.247651E-06  0.897206E-07  0.247651E-06  0.766490E-06  0.175854E-05  0.338725E-05
  0.590982E-05  0.969337E-05  0.150747E-04  0.220774E-04  0.301409E-04  0.380044E-04
  0.438803E-04  0.460762E-04  0.438803E-04  0.380044E-04  0.301409E-04  0.220774E-04
  0.256834E-04  0.181057E-04  0.119946E-04  0.752836E-05  0.448465E-05  0.250039E-05
  0.126209E-05  0.558352E-06  0.247651E-06  0.247651E-06  0.558352E-06  0.126209E-05
  0.250039E-05  0.448465E-05  0.752836E-05  0.119946E-04  0.181057E-04  0.256834E-04
  0.339075E-04  0.412083E-04  0.455945E-04  0.455945E-04  0.412083E-04  0.339075E-04
  0.256834E-04  0.343446E-04  0.245084E-04  0.165405E-04  0.106293E-04  0.653303E-05
  0.386605E-05  0.222103E-05  0.126209E-05  0.766490E-06  0.613903E-06  0.766490E-06
  0.126209E-05  0.222103E-05  0.386605E-05  0.653303E-05  0.106293E-04  0.165405E-04
  0.245084E-04  0.343446E-04  0.448333E-04  0.533237E-04  0.566467E-04  0.533237E-04
  0.448333E-04  0.343446E-04  0.537620E-04  0.375005E-04  0.249338E-04  0.161018E-04
  0.101249E-04  0.624009E-05  0.386605E-05  0.250039E-05  0.175854E-05  0.142605E-05
  0.142605E-05  0.175854E-05  0.250039E-05  0.386605E-05  0.624009E-05  0.101249E-04
  0.161018E-04  0.249338E-04  0.375005E-04  0.537620E-04  0.707694E-04  0.821926E-04
  0.821926E-04  0.707694E-04  0.537620E-04  0.964019E-04  0.649948E-04  0.410213E-04
  0.255541E-04  0.160328E-04  0.101249E-04  0.653303E-05  0.448465E-05  0.338725E-05
  0.284231E-05  0.267338E-05  0.284231E-05  0.338725E-05  0.448465E-05  0.653303E-05
  0.101249E-04  0.160328E-04  0.255541E-04  0.410213E-04  0.649948E-04  0.964019E-04
  0.125806E-03  0.138188E-03  0.125806E-03  0.964019E-04  0.179515E-03  0.121339E-03
  0.730364E-04  0.425391E-04  0.255541E-04  0.161018E-04  0.106293E-04  0.752836E-05
  0.590982E-05  0.513097E-05  0.481066E-05  0.481066E-05  0.513097E-05  0.590982E-05
  0.752836E-05  0.106293E-04  0.161018E-04  0.255541E-04  0.425391E-04  0.730364E-04
  0.121339E-03  0.179515E-03  0.221826E-03  0.221826E-03  0.179515E-03  0.305915E-03
  0.218816E-03  0.131966E-03  0.730364E-04  0.410213E-04  0.249338E-04  0.165405E-04
  0.119946E-04  0.969337E-05  0.869269E-05  0.832441E-05  0.823364E-05  0.832441E-05
  0.869269E-05  0.969337E-05  0.119946E-04  0.165405E-04  0.249338E-04  0.410213E-04
  0.730364E-04  0.131966E-03  0.218816E-03  0.305915E-03  0.343741E-03  0.305915E-03
  0.434697E-03  0.342436E-03  0.218816E-03  0.121339E-03  0.649948E-04  0.375005E-04
  0.245084E-04  0.181057E-04  0.150747E-04  0.139703E-04  0.137977E-04  0.138707E-04
  0.138707E-04  0.137977E-04  0.139703E-04  0.150747E-04  0.181057E-04  0.245084E-04
  0.375005E-04  0.649948E-04  0.121339E-03  0.218816E-03  0.342436E-03  0.434697E-03
  0.434697E-03  0.490984E-03  0.434697E-03  0.305915E-03  0.179515E-03  0.964019E-04
  0.537620E-04  0.343446E-04  0.256834E-04  0.220774E-04  0.212275E-04  0.217799E-04
  0.226214E-04  0.229900E-04  0.226214E-04  0.217799E-04  0.212275E-04  0.220774E-04
  0.256834E-04  0.343446E-04  0.537620E-04  0.964019E-04  0.179515E-03  0.305915E-03
  0.434697E-03  0.490984E-03  0.134239E-02  0.119380E-02  0.852684E-03  0.514869E-03
  0.288639E-03  0.168850E-03  0.111855E-03  0.854086E-04  0.744489E-04  0.723915E-04
  0.747944E-04  0.779087E-04  0.792304E-04  0.779087E-04  0.747944E-04  0.723915E-04
  0.744489E-04  0.854086E-04  0.111855E-03  0.168850E-03  0.288639E-03  0.514869E-03
  0.852684E-03  0.119380E-02  0.134239E-02  0.119380E-02  0.119380E-02  0.953232E-03
  0.628904E-03  0.370141E-03  0.218293E-03  0.144229E-03  0.111970E-03  0.101054E-03
  0.102513E-03  0.111061E-03  0.121393E-03  0.128263E-03  0.128263E-03  0.121393E-03
  0.111061E-03  0.102513E-03  0.101054E-03  0.111970E-03  0.144229E-03  0.218293E-03
  0.370141E-03  0.628904E-03  0.953232E-03  0.119380E-02  0.852684E-03  0.949486E-03
  0.852684E-03  0.628904E-03  0.404136E-03  0.250933E-03  0.169905E-03  0.135216E-03
  0.126737E-03  0.135004E-03  0.155412E-03  0.182142E-03  0.205552E-03  0.214972E-03
  0.205552E-03  0.182142E-03  0.155412E-03  0.135004E-03  0.126737E-03  0.135216E-03
  0.169905E-03  0.250933E-03  0.404136E-03  0.628904E-03  0.852684E-03  0.514869E-03
  0.619948E-03  0.619948E-03  0.514869E-03  0.370141E-03  0.250933E-03  0.179844E-03
  0.149033E-03  0.145741E-03  0.163705E-03  0.202302E-03  0.259366E-03  0.322011E-03
  0.364808E-03  0.364808E-03  0.322011E-03  0.259366E-03  0.202302E-03  0.163705E-03
  0.145741E-03  0.149033E-03  0.179844E-03  0.250933E-03  0.370141E-03  0.514869E-03
  0.288639E-03  0.356307E-03  0.384969E-03  0.356307E-03  0.288639E-03  0.218293E-03
  0.169905E-03  0.149033E-03  0.152802E-03  0.180897E-03  0.240039E-03  0.339068E-03
  0.471484E-03  0.595890E-03  0.648272E-03  0.595890E-03  0.471484E-03  0.339068E-03
  0.240039E-03  0.180897E-03  0.152802E-03  0.149033E-03  0.169905E-03  0.218293E-03
  0.288639E-03  0.168850E-03  0.199802E-03  0.221781E-03  0.221781E-03  0.199802E-03
  0.168850E-03  0.144229E-03  0.135216E-03  0.145741E-03  0.180897E-03  0.254766E-03
  0.392184E-03  0.609689E-03  0.869837E-03  0.105814E-02  0.105814E-02  0.869837E-03
  0.609689E-03  0.392184E-03  0.254766E-03  0.180897E-03  0.145741E-03  0.135216E-03
  0.144229E-03  0.168850E-03  0.111855E-03  0.120211E-03  0.129769E-03  0.133879E-03
  0.129769E-03  0.120211E-03  0.111855E-03  0.111970E-03  0.126737E-03  0.163705E-03
  0.240039E-03  0.392184E-03  0.667552E-03  0.106751E-02  0.146529E-02  0.163745E-02
  0.146529E-02  0.106751E-02  0.667552E-03  0.392184E-03  0.240039E-03  0.163705E-03
  0.126737E-03  0.111970E-03  0.111855E-03  0.854086E-04  0.807092E-04  0.812599E-04
  0.826799E-04  0.826799E-04  0.812599E-04  0.807092E-04  0.854086E-04  0.101054E-03
  0.135004E-03  0.202302E-03  0.339068E-03  0.609689E-03  0.106751E-02  0.164144E-02
  0.206771E-02  0.206771E-02  0.164144E-02  0.106751E-02  0.609689E-03  0.339068E-03
  0.202302E-03  0.135004E-03  0.101054E-03  0.854086E-04  0.744489E-04  0.605970E-04
  0.548784E-04  0.529763E-04  0.525566E-04  0.529763E-04  0.548784E-04  0.605970E-04
  0.744489E-04  0.102513E-03  0.155412E-03  0.259366E-03  0.471484E-03  0.869837E-03
  0.146529E-02  0.206771E-02  0.233042E-02  0.206771E-02  0.146529E-02  0.869837E-03
  0.471484E-03  0.259366E-03  0.155412E-03  0.102513E-03  0.744489E-04  0.723915E-04
  0.511479E-04  0.403749E-04  0.354244E-04  0.334818E-04  0.334818E-04  0.354244E-04
  0.403749E-04  0.511479E-04  0.723915E-04  0.111061E-03  0.182142E-03  0.322011E-03
  0.595890E-03  0.105814E-02  0.163745E-02  0.206771E-02  0.206771E-02  0.163745E-02
  0.105814E-02  0.595890E-03  0.322011E-03  0.182142E-03  0.111061E-03  0.723915E-04
  0.747944E-04  0.479576E-04  0.331114E-04  0.254803E-04  0.218633E-04  0.207700E-04
  0.218633E-04  0.254803E-04  0.331114E-04  0.479576E-04  0.747944E-04  0.121393E-03
  0.205552E-03  0.364808E-03  0.648272E-03  0.105814E-02  0.146529E-02  0.164144E-02
  0.146529E-02  0.105814E-02  0.648272E-03  0.364808E-03  0.205552E-03  0.121393E-03
  0.747944E-04  0.779087E-04  0.477157E-04  0.300390E-04  0.203189E-04  0.152540E-04
  0.130136E-04  0.130136E-04  0.152540E-04  0.203189E-04  0.300390E-04  0.477157E-04
  0.779087E-04  0.128263E-03  0.214972E-03  0.364808E-03  0.595890E-03  0.869837E-03
  0.106751E-02  0.106751E-02  0.869837E-03  0.595890E-03  0.364808E-03  0.214972E-03
  0.128263E-03  0.779087E-04  0.792304E-04  0.481237E-04  0.289522E-04  0.178319E-04
  0.116892E-04  0.852641E-05  0.752403E-05  0.852641E-05  0.116892E-04  0.178319E-04
  0.289522E-04  0.481237E-04  0.792304E-04  0.128263E-03  0.205552E-03  0.322011E-03
  0.471484E-03  0.609689E-03  0.667552E-03  0.609689E-03  0.471484E-03  0.322011E-03
  0.205552E-03  0.128263E-03  0.792304E-04  0.779087E-04  0.481237E-04  0.286933E-04
  0.168002E-04  0.988898E-05  0.604815E-05  0.428440E-05  0.428440E-05  0.604815E-05
  0.988898E-05  0.168002E-04  0.286933E-04  0.481237E-04  0.779087E-04  0.121393E-03
  0.182142E-03  0.259366E-03  0.339068E-03  0.392184E-03  0.392184E-03  0.339068E-03
  0.259366E-03  0.182142E-03  0.121393E-03  0.779087E-04  0.747944E-04  0.477157E-04
  0.289522E-04  0.168002E-04  0.932325E-05  0.491701E-05  0.258373E-05  0.185003E-05
  0.258373E-05  0.491701E-05  0.932325E-05  0.168002E-04  0.289522E-04  0.477157E-04
  0.747944E-04  0.111061E-03  0.155412E-03  0.202302E-03  0.240039E-03  0.254766E-03
  0.240039E-03  0.202302E-03  0.155412E-03  0.111061E-03  0.747944E-04  0.723915E-04
  0.479576E-04  0.300390E-04  0.178319E-04  0.988898E-05  0.491701E-05  0.205437E-05
  0.767381E-06  0.767381E-06  0.205437E-05  0.491701E-05  0.988898E-05  0.178319E-04
  0.300390E-04  0.479576E-04  0.723915E-04  0.102513E-03  0.135004E-03  0.163705E-03
  0.180897E-03  0.180897E-03  0.163705E-03  0.135004E-03  0.102513E-03  0.723915E-04
  0.744489E-04  0.511479E-04  0.331114E-04  0.203189E-04  0.116892E-04  0.604815E-05
  0.258373E-05  0.767381E-06  0.214825E-06  0.767381E-06  0.258373E-05  0.604815E-05
  0.116892E-04  0.203189E-04  0.331114E-04  0.511479E-04  0.744489E-04  0.101054E-03
  0.126737E-03  0.145741E-03  0.152802E-03  0.145741E-03  0.126737E-03  0.101054E-03
  0.744489E-04  0.854086E-04  0.605970E-04  0.403749E-04  0.254803E-04  0.152540E-04
  0.852641E-05  0.428440E-05  0.185003E-05  0.767381E-06  0.767381E-06  0.185003E-05
  0.428440E-05  0.852641E-05  0.152540E-04  0.254803E-04  0.403749E-04  0.605970E-04
  0.854086E-04  0.111970E-03  0.135216E-03  0.149033E-03  0.149033E-03  0.135216E-03
  0.111970E-03  0.854086E-04  0.111855E-03  0.807092E-04  0.548784E-04  0.354244E-04
  0.218633E-04  0.130136E-04  0.752403E-05  0.428440E-05  0.258373E-05  0.205437E-05
  0.258373E-05  0.428440E-05  0.752403E-05  0.130136E-04  0.218633E-04  0.354244E-04
  0.548784E-04  0.807092E-04  0.111855E-03  0.144229E-03  0.169905E-03  0.179844E-03
  0.169905E-03  0.144229E-03  0.111855E-03  0.168850E-03  0.120211E-03  0.812599E-04
  0.529763E-04  0.334818E-04  0.207700E-04  0.130136E-04  0.852641E-05  0.604815E-05
  0.491701E-05  0.491701E-05  0.604815E-05  0.852641E-05  0.130136E-04  0.207700E-04
  0.334818E-04  0.529763E-04  0.812599E-04  0.120211E-03  0.168850E-03  0.218293E-03
  0.250933E-03  0.250933E-03  0.218293E-03  0.168850E-03  0.288639E-03  0.199802E-03
  0.129769E-03  0.826799E-04  0.525566E-04  0.334818E-04  0.218633E-04  0.152540E-04
  0.116892E-04  0.988898E-05  0.932325E-05  0.988898E-05  0.116892E-04  0.152540E-04
  0.218633E-04  0.334818E-04  0.525566E-04  0.826799E-04  0.129769E-03  0.199802E-03
  0.288639E-03  0.370141E-03  0.404136E-03  0.370141E-03  0.288639E-03  0.514869E-03
  0.356307E-03  0.221781E-03  0.133879E-03  0.826799E-04  0.529763E-04  0.354244E-04
  0.254803E-04  0.203189E-04  0.178319E-04  0.168002E-04  0.168002E-04  0.178319E-04
  0.203189E-04  0.254803E-04  0.354244E-04  0.529763E-04  0.826799E-04  0.133879E-03
  0.221781E-03  0.356307E-03  0.514869E-03  0.628904E-03  0.628904E-03  0.514869E-03
  0.852684E-03  0.619948E-03  0.384969E-03  0.221781E-03  0.129769E-03  0.812599E-04
  0.548784E-04  0.403749E-04  0.331114E-04  0.300390E-04  0.289522E-04  0.286933E-04
  0.289522E-04  0.300390E-04  0.331114E-04  0.403749E-04  0.548784E-04  0.812599E-04
  0.129769E-03  0.221781E-03  0.384969E-03  0.619948E-03  0.852684E-03  0.953232E-03
  0.852684E-03  0.119380E-02  0.949486E-03  0.619948E-03  0.356307E-03  0.199802E-03
  0.120211E-03  0.807092E-04  0.605970E-04  0.511479E-04  0.479576E-04  0.477157E-04
  0.481237E-04  0.481237E-04  0.477157E-04  0.479576E-04  0.511479E-04  0.605970E-04
  0.807092E-04  0.120211E-03  0.199802E-03  0.356307E-03  0.619948E-03  0.949486E-03
  0.119380E-02  0.119380E-02  0.134239E-02  0.119380E-02  0.852684E-03  0.514869E-03
  0.288639E-03  0.168850E-03  0.111855E-03  0.854086E-04  0.744489E-04  0.723915E-04
  0.747944E-04  0.779087E-04  0.792304E-04  0.779087E-04  0.747944E-04  0.723915E-04
  0.744489E-04  0.854086E-04  0.111855E-03  0.168850E-03  0.288639E-03  0.514869E-03
  0.852684E-03  0.119380E-02  0.134239E-02  0.167873E-02  0.151018E-02  0.111856E-02
  0.719886E-03  0.439463E-03  0.279388E-03  0.195660E-03  0.153437E-03  0.135367E-03
  0.132274E-03  0.136616E-03  0.141949E-03  0.144172E-03  0.141949E-03  0.136616E-03
  0.132274E-03  0.135367E-03  0.153437E-03  0.195660E-03  0.279388E-03  0.439463E-03
  0.719886E-03  0.111856E-02  0.151018E-02  0.167873E-02  0.151018E-02  0.151018E-02
  0.123552E-02  0.858033E-03  0.545416E-03  0.350627E-03  0.247584E-03  0.198849E-03
  0.181808E-03  0.184979E-03  0.199573E-03  0.216449E-03  0.227367E-03  0.227367E-03
  0.216449E-03  0.199573E-03  0.184979E-03  0.181808E-03  0.198849E-03  0.247584E-03
  0.350627E-03  0.545416E-03  0.858033E-03  0.123552E-02  0.151018E-02  0.111856E-02
  0.122979E-02  0.111856E-02  0.858033E-03  0.588723E-03  0.396200E-03  0.287545E-03
  0.237923E-03  0.226097E-03  0.240656E-03  0.273664E-03  0.314673E-03  0.349170E-03
  0.362751E-03  0.349170E-03  0.314673E-03  0.273664E-03  0.240656E-03  0.226097E-03
  0.237923E-03  0.287545E-03  0.396200E-03  0.588723E-03  0.858033E-03  0.111856E-02
  0.719886E-03  0.843812E-03  0.843812E-03  0.719886E-03  0.545416E-03  0.396200E-03
  0.302760E-03  0.260863E-03  0.258534E-03  0.288803E-03  0.348738E-03  0.431719E-03
  0.518219E-03  0.575446E-03  0.575446E-03  0.518219E-03  0.431719E-03  0.348738E-03
  0.288803E-03  0.258534E-03  0.260863E-03  0.302760E-03  0.396200E-03  0.545416E-03
  0.719886E-03  0.439463E-03  0.522530E-03  0.557189E-03  0.522530E-03  0.439463E-03
  0.350627E-03  0.287545E-03  0.260863E-03  0.270511E-03  0.317187E-03  0.407092E-03
  0.546245E-03  0.721108E-03  0.878854E-03  0.943983E-03  0.878854E-03  0.721108E-03
  0.546245E-03  0.407092E-03  0.317187E-03  0.270511E-03  0.260863E-03  0.287545E-03
  0.350627E-03  0.439463E-03  0.279388E-03  0.319019E-03  0.346656E-03  0.346656E-03
  0.319019E-03  0.279388E-03  0.247584E-03  0.237923E-03  0.258534E-03  0.317187E-03
  0.429437E-03  0.620078E-03  0.900682E-03  0.122037E-02  0.144563E-02  0.144563E-02
  0.122037E-02  0.900682E-03  0.620078E-03  0.429437E-03  0.317187E-03  0.258534E-03
  0.237923E-03  0.247584E-03  0.279388E-03  0.195660E-03  0.205732E-03  0.217842E-03
  0.223032E-03  0.217842E-03  0.205732E-03  0.195660E-03  0.198849E-03  0.226097E-03
  0.288803E-03  0.407092E-03  0.620078E-03  0.974307E-03  0.145991E-02  0.192681E-02
  0.212583E-02  0.192681E-02  0.145991E-02  0.974307E-03  0.620078E-03  0.407092E-03
  0.288803E-03  0.226097E-03  0.198849E-03  0.195660E-03  0.153437E-03  0.143832E-03
  0.143146E-03  0.144416E-03  0.144416E-03  0.143146E-03  0.143832E-03  0.153437E-03
  0.181808E-03  0.240656E-03  0.348738E-03  0.546245E-03  0.900682E-03  0.145991E-02
  0.213176E-02  0.261992E-02  0.261992E-02  0.213176E-02  0.145991E-02  0.900682E-03