
     Program PWSCF v.7.2 starts on 15Apr2024 at 16:11: 5 

     This program is part of the open-source Quantum ESPRESSO suite
     for quantum simulation of materials; please cite
         "P. Giannozzi et al., J. Phys.:Condens. Matter 21 395502 (2009);
         "P. Giannozzi et al., J. Phys.:Condens. Matter 29 465901 (2017);
         "P. Giannozzi et al., J. Chem. Phys. 152 154105 (2020);
          URL http://www.quantum-espresso.org", 
     in publications or presentations arising from this work. More details at
     http://www.quantum-espresso.org/quote

     Parallel version (MPI & OpenMP), running on       8 processor cores
     Number of MPI processes:                 8
     Threads/MPI process:                     1

     MPI processes distributed on     1 nodes
     0 MiB available memory on the printing compute node when the environment starts

     Waiting for input...
     Reading input from standard input
Warning: card &IONS ignored
Warning: card / ignored

     Current dimensions of program PWSCF are:
     Max number of different atomic species (ntypx) = 10
     Max number of k-points (npk) =  40000
     Max angular momentum in pseudopotentials (lmaxx) =  4

     Atomic positions and unit cell read from directory:
     ./tmp/C2L_AB_PBE_vdW.save/
     Atomic positions from file used, from input discarded


     IMPORTANT: XC functional enforced from input :
     Exchange-correlation= VDW-DF2-B86R
                           (   1   4  26   0   2   0   0)
     Any further DFT definition will be discarded
     Please, verify this is what you really want


     R & G space division:  proc/nbgrp/npool/nimage =       8
     Subspace diagonalization in iterative solution of the eigenvalue problem:
     a serial algorithm will be used


     Parallelization info
     --------------------
     sticks:   dense  smooth     PW     G-vecs:    dense   smooth      PW
     Min          45      45     13                 5519     5519     935
     Max          46      46     14                 5546     5546     964
     Sum         361     361    109                44285    44285    7615

     Using Slab Decomposition



     bravais-lattice index     =            4
     lattice parameter (alat)  =       4.6645  a.u.
     unit-cell volume          =     703.1169 (a.u.)^3
     number of atoms/cell      =            4
     number of atomic types    =            1
     number of electrons       =        16.00
     number of Kohn-Sham states=           16
     kinetic-energy cutoff     =      60.0000  Ry
     charge density cutoff     =     240.0000  Ry
     Exchange-correlation= VDW-DF2-B86R
                           (   1   4  26   0   2   0   0)

     celldm(1)=   4.664470  celldm(2)=   0.000000  celldm(3)=   8.000000
     celldm(4)=   0.000000  celldm(5)=   0.000000  celldm(6)=   0.000000

     crystal axes: (cart. coord. in units of alat)
               a(1) = (   1.000000   0.000000   0.000000 )  
               a(2) = (  -0.500000   0.866025   0.000000 )  
               a(3) = (   0.000000   0.000000   8.000000 )  

     reciprocal axes: (cart. coord. in units 2 pi/alat)
               b(1) = (  1.000000  0.577350 -0.000000 )  
               b(2) = (  0.000000  1.154701  0.000000 )  
               b(3) = (  0.000000 -0.000000  0.125000 )  


     PseudoPot. # 1 for C  read from file:
     ../../../../Pseudo/PBE/C.upf
     MD5 check sum: 34a24e64c0a39f27c6c36b90a16ac686
     Pseudo is Norm-conserving + core correction, Zval =  4.0
     Generated using ONCVPSP code by D. R. Hamann
     Using radial grid of 1248 points,  4 beta functions with: 
                l(1) =   0
                l(2) =   0
                l(3) =   1
                l(4) =   1

     atomic species   valence    mass     pseudopotential
        C              4.00    12.01100     C ( 1.00)

      6 Sym. Ops. (no inversion) found


                                    s                        frac. trans.

      isym =  1     identity                                     

 cryst.   s( 1) = (     1          0          0      )
                  (     0          1          0      )
                  (     0          0          1      )

 cart.    s( 1) = (  1.0000000  0.0000000  0.0000000 )
                  (  0.0000000  1.0000000  0.0000000 )
                  (  0.0000000  0.0000000  1.0000000 )


      isym =  2     120 deg rotation - cryst. axis [0,0,1]       

 cryst.   s( 2) = (     0          1          0      )
                  (    -1         -1          0      )
                  (     0          0          1      )

 cart.    s( 2) = ( -0.5000000 -0.8660254  0.0000000 )
                  (  0.8660254 -0.5000000  0.0000000 )
                  (  0.0000000  0.0000000  1.0000000 )


      isym =  3     120 deg rotation - cryst. axis [0,0,-1]      

 cryst.   s( 3) = (    -1         -1          0      )
                  (     1          0          0      )
                  (     0          0          1      )

 cart.    s( 3) = ( -0.5000000  0.8660254  0.0000000 )
                  ( -0.8660254 -0.5000000  0.0000000 )
                  (  0.0000000  0.0000000  1.0000000 )


      isym =  4     inv. 180 deg rotation - cart. axis [1,0,0]   

 cryst.   s( 4) = (    -1          0          0      )
                  (     1          1          0      )
                  (     0          0          1      )

 cart.    s( 4) = ( -1.0000000  0.0000000  0.0000000 )
                  (  0.0000000  1.0000000  0.0000000 )
                  (  0.0000000  0.0000000  1.0000000 )


      isym =  5     inv. 180 deg rotation - cryst. axis [0,1,0]  

 cryst.   s( 5) = (     1          1          0      )
                  (     0         -1          0      )
                  (     0          0          1      )

 cart.    s( 5) = (  0.5000000  0.8660254  0.0000000 )
                  (  0.8660254 -0.5000000  0.0000000 )
                  (  0.0000000  0.0000000  1.0000000 )


      isym =  6     inv. 180 deg rotation - cryst. axis [1,1,0]  

 cryst.   s( 6) = (     0         -1          0      )
                  (    -1          0          0      )
                  (     0          0          1      )

 cart.    s( 6) = (  0.5000000 -0.8660254  0.0000000 )
                  ( -0.8660254 -0.5000000  0.0000000 )
                  (  0.0000000  0.0000000  1.0000000 )


     point group C_3v (3m)  
     there are  3 classes
     the character table:

       E     2C3   3s_v 
A_1    1.00  1.00  1.00
A_2    1.00  1.00 -1.00
E      2.00 -1.00  0.00

     the symmetry operations in each class and the name of the first element:

     E        1
          identity                                               
     2C3      2    3
          120 deg rotation - cryst. axis [0,0,1]                 
     3s_v     4    5    6
          inv. 180 deg rotation - cart. axis [1,0,0]             

   Cartesian axes

     site n.     atom                  positions (alat units)
         1           C   tau(   1) = (   0.0000000   0.0000000   0.0000000  )
         2           C   tau(   2) = (   0.0000000   0.0000000   1.3401360  )
         3           C   tau(   3) = (   0.5000005   0.2886748   0.0000000  )
         4           C   tau(   4) = (  -0.0000005   0.5773506   1.3401360  )

   Crystallographic axes

     site n.     atom                  positions (cryst. coord.)
         1           C   tau(   1) = (  0.0000000  0.0000000  0.0000000  )
         2           C   tau(   2) = (  0.0000000  0.0000000  0.1675170  )
         3           C   tau(   3) = (  0.6666670  0.3333330  0.0000000  )
         4           C   tau(   4) = (  0.3333330  0.6666670  0.1675170  )

     number of k points=   234  Marzari-Vanderbilt smearing, width (Ry)=  0.0050
                       cart. coord. in units 2pi/alat
        k(    1) = (   0.0000000   0.0000000   0.0000000), wk =   0.0008000
        k(    2) = (   0.0000000   0.0230940   0.0000000), wk =   0.0048000
        k(    3) = (   0.0000000   0.0461880   0.0000000), wk =   0.0048000
        k(    4) = (   0.0000000   0.0692820   0.0000000), wk =   0.0048000
        k(    5) = (   0.0000000   0.0923760   0.0000000), wk =   0.0048000
        k(    6) = (   0.0000000   0.1154701   0.0000000), wk =   0.0048000
        k(    7) = (   0.0000000   0.1385641   0.0000000), wk =   0.0048000
        k(    8) = (   0.0000000   0.1616581   0.0000000), wk =   0.0048000
        k(    9) = (   0.0000000   0.1847521   0.0000000), wk =   0.0048000
        k(   10) = (   0.0000000   0.2078461   0.0000000), wk =   0.0048000
        k(   11) = (   0.0000000   0.2309401   0.0000000), wk =   0.0048000
        k(   12) = (   0.0000000   0.2540341   0.0000000), wk =   0.0048000
        k(   13) = (   0.0000000   0.2771281   0.0000000), wk =   0.0048000
        k(   14) = (   0.0000000   0.3002221   0.0000000), wk =   0.0048000
        k(   15) = (   0.0000000   0.3233162   0.0000000), wk =   0.0048000
        k(   16) = (   0.0000000   0.3464102   0.0000000), wk =   0.0048000
        k(   17) = (   0.0000000   0.3695042   0.0000000), wk =   0.0048000
        k(   18) = (   0.0000000   0.3925982   0.0000000), wk =   0.0048000
        k(   19) = (   0.0000000   0.4156922   0.0000000), wk =   0.0048000
        k(   20) = (   0.0000000   0.4387862   0.0000000), wk =   0.0048000
        k(   21) = (   0.0000000   0.4618802   0.0000000), wk =   0.0048000
        k(   22) = (   0.0000000   0.4849742   0.0000000), wk =   0.0048000
        k(   23) = (   0.0000000   0.5080682   0.0000000), wk =   0.0048000
        k(   24) = (   0.0000000   0.5311622   0.0000000), wk =   0.0048000
        k(   25) = (   0.0000000   0.5542563   0.0000000), wk =   0.0048000
        k(   26) = (   0.0000000  -0.5773503   0.0000000), wk =   0.0024000
        k(   27) = (   0.0200000   0.0346410   0.0000000), wk =   0.0048000
        k(   28) = (   0.0200000   0.0577350   0.0000000), wk =   0.0096000
        k(   29) = (   0.0200000   0.0808290   0.0000000), wk =   0.0096000
        k(   30) = (   0.0200000   0.1039230   0.0000000), wk =   0.0096000
        k(   31) = (   0.0200000   0.1270171   0.0000000), wk =   0.0096000
        k(   32) = (   0.0200000   0.1501111   0.0000000), wk =   0.0096000
        k(   33) = (   0.0200000   0.1732051   0.0000000), wk =   0.0096000
        k(   34) = (   0.0200000   0.1962991   0.0000000), wk =   0.0096000
        k(   35) = (   0.0200000   0.2193931   0.0000000), wk =   0.0096000
        k(   36) = (   0.0200000   0.2424871   0.0000000), wk =   0.0096000
        k(   37) = (   0.0200000   0.2655811   0.0000000), wk =   0.0096000
        k(   38) = (   0.0200000   0.2886751   0.0000000), wk =   0.0096000
        k(   39) = (   0.0200000   0.3117691   0.0000000), wk =   0.0096000
        k(   40) = (   0.0200000   0.3348632   0.0000000), wk =   0.0096000
        k(   41) = (   0.0200000   0.3579572   0.0000000), wk =   0.0096000
        k(   42) = (   0.0200000   0.3810512   0.0000000), wk =   0.0096000
        k(   43) = (   0.0200000   0.4041452   0.0000000), wk =   0.0096000
        k(   44) = (   0.0200000   0.4272392   0.0000000), wk =   0.0096000
        k(   45) = (   0.0200000   0.4503332   0.0000000), wk =   0.0096000
        k(   46) = (   0.0200000   0.4734272   0.0000000), wk =   0.0096000
        k(   47) = (   0.0200000   0.4965212   0.0000000), wk =   0.0096000
        k(   48) = (   0.0200000   0.5196152   0.0000000), wk =   0.0096000
        k(   49) = (   0.0200000   0.5427093   0.0000000), wk =   0.0096000
        k(   50) = (   0.0200000   0.5658033   0.0000000), wk =   0.0096000
        k(   51) = (   0.0400000   0.0692820   0.0000000), wk =   0.0048000
        k(   52) = (   0.0400000   0.0923760   0.0000000), wk =   0.0096000
        k(   53) = (   0.0400000   0.1154701   0.0000000), wk =   0.0096000
        k(   54) = (   0.0400000   0.1385641   0.0000000), wk =   0.0096000
        k(   55) = (   0.0400000   0.1616581   0.0000000), wk =   0.0096000
        k(   56) = (   0.0400000   0.1847521   0.0000000), wk =   0.0096000
        k(   57) = (   0.0400000   0.2078461   0.0000000), wk =   0.0096000
        k(   58) = (   0.0400000   0.2309401   0.0000000), wk =   0.0096000
        k(   59) = (   0.0400000   0.2540341   0.0000000), wk =   0.0096000
        k(   60) = (   0.0400000   0.2771281   0.0000000), wk =   0.0096000
        k(   61) = (   0.0400000   0.3002221   0.0000000), wk =   0.0096000
        k(   62) = (   0.0400000   0.3233162   0.0000000), wk =   0.0096000
        k(   63) = (   0.0400000   0.3464102   0.0000000), wk =   0.0096000
        k(   64) = (   0.0400000   0.3695042   0.0000000), wk =   0.0096000
        k(   65) = (   0.0400000   0.3925982   0.0000000), wk =   0.0096000
        k(   66) = (   0.0400000   0.4156922   0.0000000), wk =   0.0096000
        k(   67) = (   0.0400000   0.4387862   0.0000000), wk =   0.0096000
        k(   68) = (   0.0400000   0.4618802   0.0000000), wk =   0.0096000
        k(   69) = (   0.0400000   0.4849742   0.0000000), wk =   0.0096000
        k(   70) = (   0.0400000   0.5080682   0.0000000), wk =   0.0096000
        k(   71) = (   0.0400000   0.5311622   0.0000000), wk =   0.0096000
        k(   72) = (   0.0400000   0.5542563   0.0000000), wk =   0.0096000
        k(   73) = (   0.0400000   0.5773503   0.0000000), wk =   0.0048000
        k(   74) = (   0.0600000   0.1039230   0.0000000), wk =   0.0048000
        k(   75) = (   0.0600000   0.1270171   0.0000000), wk =   0.0096000
        k(   76) = (   0.0600000   0.1501111   0.0000000), wk =   0.0096000
        k(   77) = (   0.0600000   0.1732051   0.0000000), wk =   0.0096000
        k(   78) = (   0.0600000   0.1962991   0.0000000), wk =   0.0096000
        k(   79) = (   0.0600000   0.2193931   0.0000000), wk =   0.0096000
        k(   80) = (   0.0600000   0.2424871   0.0000000), wk =   0.0096000
        k(   81) = (   0.0600000   0.2655811   0.0000000), wk =   0.0096000
        k(   82) = (   0.0600000   0.2886751   0.0000000), wk =   0.0096000
        k(   83) = (   0.0600000   0.3117691   0.0000000), wk =   0.0096000
        k(   84) = (   0.0600000   0.3348632   0.0000000), wk =   0.0096000
        k(   85) = (   0.0600000   0.3579572   0.0000000), wk =   0.0096000
        k(   86) = (   0.0600000   0.3810512   0.0000000), wk =   0.0096000
        k(   87) = (   0.0600000   0.4041452   0.0000000), wk =   0.0096000
        k(   88) = (   0.0600000   0.4272392   0.0000000), wk =   0.0096000
        k(   89) = (   0.0600000   0.4503332   0.0000000), wk =   0.0096000
        k(   90) = (   0.0600000   0.4734272   0.0000000), wk =   0.0096000
        k(   91) = (   0.0600000   0.4965212   0.0000000), wk =   0.0096000
        k(   92) = (   0.0600000   0.5196152   0.0000000), wk =   0.0096000
        k(   93) = (   0.0600000   0.5427093   0.0000000), wk =   0.0096000
        k(   94) = (   0.0600000   0.5658033   0.0000000), wk =   0.0096000
        k(   95) = (   0.0800000   0.1385641   0.0000000), wk =   0.0048000
        k(   96) = (   0.0800000   0.1616581   0.0000000), wk =   0.0096000
        k(   97) = (   0.0800000   0.1847521   0.0000000), wk =   0.0096000
        k(   98) = (   0.0800000   0.2078461   0.0000000), wk =   0.0096000
        k(   99) = (   0.0800000   0.2309401   0.0000000), wk =   0.0096000
        k(  100) = (   0.0800000   0.2540341   0.0000000), wk =   0.0096000
        k(  101) = (   0.0800000   0.2771281   0.0000000), wk =   0.0096000
        k(  102) = (   0.0800000   0.3002221   0.0000000), wk =   0.0096000
        k(  103) = (   0.0800000   0.3233162   0.0000000), wk =   0.0096000
        k(  104) = (   0.0800000   0.3464102   0.0000000), wk =   0.0096000
        k(  105) = (   0.0800000   0.3695042   0.0000000), wk =   0.0096000
        k(  106) = (   0.0800000   0.3925982   0.0000000), wk =   0.0096000
        k(  107) = (   0.0800000   0.4156922   0.0000000), wk =   0.0096000
        k(  108) = (   0.0800000   0.4387862   0.0000000), wk =   0.0096000
        k(  109) = (   0.0800000   0.4618802   0.0000000), wk =   0.0096000
        k(  110) = (   0.0800000   0.4849742   0.0000000), wk =   0.0096000
        k(  111) = (   0.0800000   0.5080682   0.0000000), wk =   0.0096000
        k(  112) = (   0.0800000   0.5311622   0.0000000), wk =   0.0096000
        k(  113) = (   0.0800000   0.5542563   0.0000000), wk =   0.0096000
        k(  114) = (   0.0800000   0.5773503   0.0000000), wk =   0.0048000
        k(  115) = (   0.1000000   0.1732051   0.0000000), wk =   0.0048000
        k(  116) = (   0.1000000   0.1962991   0.0000000), wk =   0.0096000
        k(  117) = (   0.1000000   0.2193931   0.0000000), wk =   0.0096000
        k(  118) = (   0.1000000   0.2424871   0.0000000), wk =   0.0096000
        k(  119) = (   0.1000000   0.2655811   0.0000000), wk =   0.0096000
        k(  120) = (   0.1000000   0.2886751   0.0000000), wk =   0.0096000
        k(  121) = (   0.1000000   0.3117691   0.0000000), wk =   0.0096000
        k(  122) = (   0.1000000   0.3348632   0.0000000), wk =   0.0096000
        k(  123) = (   0.1000000   0.3579572   0.0000000), wk =   0.0096000
        k(  124) = (   0.1000000   0.3810512   0.0000000), wk =   0.0096000
        k(  125) = (   0.1000000   0.4041452   0.0000000), wk =   0.0096000
        k(  126) = (   0.1000000   0.4272392   0.0000000), wk =   0.0096000
        k(  127) = (   0.1000000   0.4503332   0.0000000), wk =   0.0096000
        k(  128) = (   0.1000000   0.4734272   0.0000000), wk =   0.0096000
        k(  129) = (   0.1000000   0.4965212   0.0000000), wk =   0.0096000
        k(  130) = (   0.1000000   0.5196152   0.0000000), wk =   0.0096000
        k(  131) = (   0.1000000   0.5427093   0.0000000), wk =   0.0096000
        k(  132) = (   0.1000000   0.5658033   0.0000000), wk =   0.0096000
        k(  133) = (   0.1200000   0.2078461   0.0000000), wk =   0.0048000
        k(  134) = (   0.1200000   0.2309401   0.0000000), wk =   0.0096000
        k(  135) = (   0.1200000   0.2540341   0.0000000), wk =   0.0096000
        k(  136) = (   0.1200000   0.2771281   0.0000000), wk =   0.0096000
        k(  137) = (   0.1200000   0.3002221   0.0000000), wk =   0.0096000
        k(  138) = (   0.1200000   0.3233162   0.0000000), wk =   0.0096000
        k(  139) = (   0.1200000   0.3464102   0.0000000), wk =   0.0096000
        k(  140) = (   0.1200000   0.3695042   0.0000000), wk =   0.0096000
        k(  141) = (   0.1200000   0.3925982   0.0000000), wk =   0.0096000
        k(  142) = (   0.1200000   0.4156922   0.0000000), wk =   0.0096000
        k(  143) = (   0.1200000   0.4387862   0.0000000), wk =   0.0096000
        k(  144) = (   0.1200000   0.4618802   0.0000000), wk =   0.0096000
        k(  145) = (   0.1200000   0.4849742   0.0000000), wk =   0.0096000
        k(  146) = (   0.1200000   0.5080682   0.0000000), wk =   0.0096000
        k(  147) = (   0.1200000   0.5311622   0.0000000), wk =   0.0096000
        k(  148) = (   0.1200000   0.5542563   0.0000000), wk =   0.0096000
        k(  149) = (   0.1200000   0.5773503   0.0000000), wk =   0.0048000
        k(  150) = (   0.1400000   0.2424871   0.0000000), wk =   0.0048000
        k(  151) = (   0.1400000   0.2655811   0.0000000), wk =   0.0096000
        k(  152) = (   0.1400000   0.2886751   0.0000000), wk =   0.0096000
        k(  153) = (   0.1400000   0.3117691   0.0000000), wk =   0.0096000
        k(  154) = (   0.1400000   0.3348632   0.0000000), wk =   0.0096000
        k(  155) = (   0.1400000   0.3579572   0.0000000), wk =   0.0096000
        k(  156) = (   0.1400000   0.3810512   0.0000000), wk =   0.0096000
        k(  157) = (   0.1400000   0.4041452   0.0000000), wk =   0.0096000
        k(  158) = (   0.1400000   0.4272392   0.0000000), wk =   0.0096000
        k(  159) = (   0.1400000   0.4503332   0.0000000), wk =   0.0096000
        k(  160) = (   0.1400000   0.4734272   0.0000000), wk =   0.0096000
        k(  161) = (   0.1400000   0.4965212   0.0000000), wk =   0.0096000
        k(  162) = (   0.1400000   0.5196152   0.0000000), wk =   0.0096000
        k(  163) = (   0.1400000   0.5427093   0.0000000), wk =   0.0096000
        k(  164) = (   0.1400000   0.5658033   0.0000000), wk =   0.0096000
        k(  165) = (   0.1600000   0.2771281   0.0000000), wk =   0.0048000
        k(  166) = (   0.1600000   0.3002221   0.0000000), wk =   0.0096000
        k(  167) = (   0.1600000   0.3233162   0.0000000), wk =   0.0096000
        k(  168) = (   0.1600000   0.3464102   0.0000000), wk =   0.0096000
        k(  169) = (   0.1600000   0.3695042   0.0000000), wk =   0.0096000
        k(  170) = (   0.1600000   0.3925982   0.0000000), wk =   0.0096000
        k(  171) = (   0.1600000   0.4156922   0.0000000), wk =   0.0096000
        k(  172) = (   0.1600000   0.4387862   0.0000000), wk =   0.0096000
        k(  173) = (   0.1600000   0.4618802   0.0000000), wk =   0.0096000
        k(  174) = (   0.1600000   0.4849742   0.0000000), wk =   0.0096000
        k(  175) = (   0.1600000   0.5080682   0.0000000), wk =   0.0096000
        k(  176) = (   0.1600000   0.5311622   0.0000000), wk =   0.0096000
        k(  177) = (   0.1600000   0.5542563   0.0000000), wk =   0.0096000
        k(  178) = (   0.1600000   0.5773503   0.0000000), wk =   0.0048000
        k(  179) = (   0.1800000   0.3117691   0.0000000), wk =   0.0048000
        k(  180) = (   0.1800000   0.3348632   0.0000000), wk =   0.0096000
        k(  181) = (   0.1800000   0.3579572   0.0000000), wk =   0.0096000
        k(  182) = (   0.1800000   0.3810512   0.0000000), wk =   0.0096000
        k(  183) = (   0.1800000   0.4041452   0.0000000), wk =   0.0096000
        k(  184) = (   0.1800000   0.4272392   0.0000000), wk =   0.0096000
        k(  185) = (   0.1800000   0.4503332   0.0000000), wk =   0.0096000
        k(  186) = (   0.1800000   0.4734272   0.0000000), wk =   0.0096000
        k(  187) = (   0.1800000   0.4965212   0.0000000), wk =   0.0096000
        k(  188) = (   0.1800000   0.5196152   0.0000000), wk =   0.0096000
        k(  189) = (   0.1800000   0.5427093   0.0000000), wk =   0.0096000
        k(  190) = (   0.1800000   0.5658033   0.0000000), wk =   0.0096000
        k(  191) = (   0.2000000   0.3464102   0.0000000), wk =   0.0048000
        k(  192) = (   0.2000000   0.3695042   0.0000000), wk =   0.0096000
        k(  193) = (   0.2000000   0.3925982   0.0000000), wk =   0.0096000
        k(  194) = (   0.2000000   0.4156922   0.0000000), wk =   0.0096000
        k(  195) = (   0.2000000   0.4387862   0.0000000), wk =   0.0096000
        k(  196) = (   0.2000000   0.4618802   0.0000000), wk =   0.0096000
        k(  197) = (   0.2000000   0.4849742   0.0000000), wk =   0.0096000
        k(  198) = (   0.2000000   0.5080682   0.0000000), wk =   0.0096000
        k(  199) = (   0.2000000   0.5311622   0.0000000), wk =   0.0096000
        k(  200) = (   0.2000000   0.5542563   0.0000000), wk =   0.0096000
        k(  201) = (   0.2000000   0.5773503   0.0000000), wk =   0.0048000
        k(  202) = (   0.2200000   0.3810512   0.0000000), wk =   0.0048000
        k(  203) = (   0.2200000   0.4041452   0.0000000), wk =   0.0096000
        k(  204) = (   0.2200000   0.4272392   0.0000000), wk =   0.0096000
        k(  205) = (   0.2200000   0.4503332   0.0000000), wk =   0.0096000
        k(  206) = (   0.2200000   0.4734272   0.0000000), wk =   0.0096000
        k(  207) = (   0.2200000   0.4965212   0.0000000), wk =   0.0096000
        k(  208) = (   0.2200000   0.5196152   0.0000000), wk =   0.0096000
        k(  209) = (   0.2200000   0.5427093   0.0000000), wk =   0.0096000
        k(  210) = (   0.2200000   0.5658033   0.0000000), wk =   0.0096000
        k(  211) = (   0.2400000   0.4156922   0.0000000), wk =   0.0048000
        k(  212) = (   0.2400000   0.4387862   0.0000000), wk =   0.0096000
        k(  213) = (   0.2400000   0.4618802   0.0000000), wk =   0.0096000
        k(  214) = (   0.2400000   0.4849742   0.0000000), wk =   0.0096000
        k(  215) = (   0.2400000   0.5080682   0.0000000), wk =   0.0096000
        k(  216) = (   0.2400000   0.5311622   0.0000000), wk =   0.0096000
        k(  217) = (   0.2400000   0.5542563   0.0000000), wk =   0.0096000
        k(  218) = (   0.2400000   0.5773503   0.0000000), wk =   0.0048000
        k(  219) = (   0.2600000   0.4503332   0.0000000), wk =   0.0048000
        k(  220) = (   0.2600000   0.4734272   0.0000000), wk =   0.0096000
        k(  221) = (   0.2600000   0.4965212   0.0000000), wk =   0.0096000
        k(  222) = (   0.2600000   0.5196152   0.0000000), wk =   0.0096000
        k(  223) = (   0.2600000   0.5427093   0.0000000), wk =   0.0096000
        k(  224) = (   0.2600000   0.5658033   0.0000000), wk =   0.0096000
        k(  225) = (   0.2800000   0.4849742   0.0000000), wk =   0.0048000
        k(  226) = (   0.2800000   0.5080682   0.0000000), wk =   0.0096000
        k(  227) = (   0.2800000   0.5311622   0.0000000), wk =   0.0096000
        k(  228) = (   0.2800000   0.5542563   0.0000000), wk =   0.0096000
        k(  229) = (   0.2800000   0.5773503   0.0000000), wk =   0.0048000
        k(  230) = (   0.3000000   0.5196152   0.0000000), wk =   0.0048000
        k(  231) = (   0.3000000   0.5427093   0.0000000), wk =   0.0096000
        k(  232) = (   0.3000000   0.5658033   0.0000000), wk =   0.0096000
        k(  233) = (   0.3200000   0.5542563   0.0000000), wk =   0.0048000
        k(  234) = (   0.3200000   0.5773503   0.0000000), wk =   0.0048000

                       cryst. coord.
        k(    1) = (   0.0000000   0.0000000   0.0000000), wk =   0.0008000
        k(    2) = (   0.0000000   0.0200000   0.0000000), wk =   0.0048000
        k(    3) = (   0.0000000   0.0400000   0.0000000), wk =   0.0048000
        k(    4) = (   0.0000000   0.0600000   0.0000000), wk =   0.0048000
        k(    5) = (   0.0000000   0.0800000   0.0000000), wk =   0.0048000
        k(    6) = (   0.0000000   0.1000000   0.0000000), wk =   0.0048000
        k(    7) = (   0.0000000   0.1200000   0.0000000), wk =   0.0048000
        k(    8) = (   0.0000000   0.1400000   0.0000000), wk =   0.0048000
        k(    9) = (   0.0000000   0.1600000   0.0000000), wk =   0.0048000
        k(   10) = (   0.0000000   0.1800000   0.0000000), wk =   0.0048000
        k(   11) = (   0.0000000   0.2000000   0.0000000), wk =   0.0048000
        k(   12) = (   0.0000000   0.2200000   0.0000000), wk =   0.0048000
        k(   13) = (   0.0000000   0.2400000   0.0000000), wk =   0.0048000
        k(   14) = (   0.0000000   0.2600000   0.0000000), wk =   0.0048000
        k(   15) = (   0.0000000   0.2800000   0.0000000), wk =   0.0048000
        k(   16) = (   0.0000000   0.3000000   0.0000000), wk =   0.0048000
        k(   17) = (   0.0000000   0.3200000   0.0000000), wk =   0.0048000
        k(   18) = (   0.0000000   0.3400000   0.0000000), wk =   0.0048000
        k(   19) = (   0.0000000   0.3600000   0.0000000), wk =   0.0048000
        k(   20) = (   0.0000000   0.3800000   0.0000000), wk =   0.0048000
        k(   21) = (   0.0000000   0.4000000   0.0000000), wk =   0.0048000
        k(   22) = (   0.0000000   0.4200000   0.0000000), wk =   0.0048000
        k(   23) = (   0.0000000   0.4400000   0.0000000), wk =   0.0048000
        k(   24) = (   0.0000000   0.4600000   0.0000000), wk =   0.0048000
        k(   25) = (   0.0000000   0.4800000   0.0000000), wk =   0.0048000
        k(   26) = (   0.0000000  -0.5000000   0.0000000), wk =   0.0024000
        k(   27) = (   0.0200000   0.0200000   0.0000000), wk =   0.0048000
        k(   28) = (   0.0200000   0.0400000   0.0000000), wk =   0.0096000
        k(   29) = (   0.0200000   0.0600000   0.0000000), wk =   0.0096000
        k(   30) = (   0.0200000   0.0800000   0.0000000), wk =   0.0096000
        k(   31) = (   0.0200000   0.1000000   0.0000000), wk =   0.0096000
        k(   32) = (   0.0200000   0.1200000   0.0000000), wk =   0.0096000
        k(   33) = (   0.0200000   0.1400000   0.0000000), wk =   0.0096000
        k(   34) = (   0.0200000   0.1600000   0.0000000), wk =   0.0096000
        k(   35) = (   0.0200000   0.1800000   0.0000000), wk =   0.0096000
        k(   36) = (   0.0200000   0.2000000   0.0000000), wk =   0.0096000
        k(   37) = (   0.0200000   0.2200000   0.0000000), wk =   0.0096000
        k(   38) = (   0.0200000   0.2400000   0.0000000), wk =   0.0096000
        k(   39) = (   0.0200000   0.2600000   0.0000000), wk =   0.0096000
        k(   40) = (   0.0200000   0.2800000   0.0000000), wk =   0.0096000
        k(   41) = (   0.0200000   0.3000000   0.0000000), wk =   0.0096000
        k(   42) = (   0.0200000   0.3200000   0.0000000), wk =   0.0096000
        k(   43) = (   0.0200000   0.3400000   0.0000000), wk =   0.0096000
        k(   44) = (   0.0200000   0.3600000   0.0000000), wk =   0.0096000
        k(   45) = (   0.0200000   0.3800000   0.0000000), wk =   0.0096000
        k(   46) = (   0.0200000   0.4000000   0.0000000), wk =   0.0096000
        k(   47) = (   0.0200000   0.4200000   0.0000000), wk =   0.0096000
        k(   48) = (   0.0200000   0.4400000   0.0000000), wk =   0.0096000
        k(   49) = (   0.0200000   0.4600000   0.0000000), wk =   0.0096000
        k(   50) = (   0.0200000   0.4800000   0.0000000), wk =   0.0096000
        k(   51) = (   0.0400000   0.0400000   0.0000000), wk =   0.0048000
        k(   52) = (   0.0400000   0.0600000   0.0000000), wk =   0.0096000
        k(   53) = (   0.0400000   0.0800000   0.0000000), wk =   0.0096000
        k(   54) = (   0.0400000   0.1000000   0.0000000), wk =   0.0096000
        k(   55) = (   0.0400000   0.1200000   0.0000000), wk =   0.0096000
        k(   56) = (   0.0400000   0.1400000   0.0000000), wk =   0.0096000
        k(   57) = (   0.0400000   0.1600000   0.0000000), wk =   0.0096000
        k(   58) = (   0.0400000   0.1800000   0.0000000), wk =   0.0096000
        k(   59) = (   0.0400000   0.2000000   0.0000000), wk =   0.0096000
        k(   60) = (   0.0400000   0.2200000   0.0000000), wk =   0.0096000
        k(   61) = (   0.0400000   0.2400000   0.0000000), wk =   0.0096000
        k(   62) = (   0.0400000   0.2600000   0.0000000), wk =   0.0096000
        k(   63) = (   0.0400000   0.2800000   0.0000000), wk =   0.0096000
        k(   64) = (   0.0400000   0.3000000   0.0000000), wk =   0.0096000
        k(   65) = (   0.0400000   0.3200000   0.0000000), wk =   0.0096000
        k(   66) = (   0.0400000   0.3400000   0.0000000), wk =   0.0096000
        k(   67) = (   0.0400000   0.3600000   0.0000000), wk =   0.0096000
        k(   68) = (   0.0400000   0.3800000   0.0000000), wk =   0.0096000
        k(   69) = (   0.0400000   0.4000000   0.0000000), wk =   0.0096000
        k(   70) = (   0.0400000   0.4200000   0.0000000), wk =   0.0096000
        k(   71) = (   0.0400000   0.4400000   0.0000000), wk =   0.0096000
        k(   72) = (   0.0400000   0.4600000   0.0000000), wk =   0.0096000
        k(   73) = (   0.0400000   0.4800000   0.0000000), wk =   0.0048000
        k(   74) = (   0.0600000   0.0600000   0.0000000), wk =   0.0048000
        k(   75) = (   0.0600000   0.0800000   0.0000000), wk =   0.0096000
        k(   76) = (   0.0600000   0.1000000   0.0000000), wk =   0.0096000
        k(   77) = (   0.0600000   0.1200000   0.0000000), wk =   0.0096000
        k(   78) = (   0.0600000   0.1400000   0.0000000), wk =   0.0096000
        k(   79) = (   0.0600000   0.1600000   0.0000000), wk =   0.0096000
        k(   80) = (   0.0600000   0.1800000   0.0000000), wk =   0.0096000
        k(   81) = (   0.0600000   0.2000000   0.0000000), wk =   0.0096000
        k(   82) = (   0.0600000   0.2200000   0.0000000), wk =   0.0096000
        k(   83) = (   0.0600000   0.2400000   0.0000000), wk =   0.0096000
        k(   84) = (   0.0600000   0.2600000   0.0000000), wk =   0.0096000
        k(   85) = (   0.0600000   0.2800000   0.0000000), wk =   0.0096000
        k(   86) = (   0.0600000   0.3000000   0.0000000), wk =   0.0096000
        k(   87) = (   0.0600000   0.3200000   0.0000000), wk =   0.0096000
        k(   88) = (   0.0600000   0.3400000   0.0000000), wk =   0.0096000
        k(   89) = (   0.0600000   0.3600000   0.0000000), wk =   0.0096000
        k(   90) = (   0.0600000   0.3800000   0.0000000), wk =   0.0096000
        k(   91) = (   0.0600000   0.4000000   0.0000000), wk =   0.0096000
        k(   92) = (   0.0600000   0.4200000   0.0000000), wk =   0.0096000
        k(   93) = (   0.0600000   0.4400000   0.0000000), wk =   0.0096000
        k(   94) = (   0.0600000   0.4600000   0.0000000), wk =   0.0096000
        k(   95) = (   0.0800000   0.0800000   0.0000000), wk =   0.0048000
        k(   96) = (   0.0800000   0.1000000   0.0000000), wk =   0.0096000
        k(   97) = (   0.0800000   0.1200000   0.0000000), wk =   0.0096000
        k(   98) = (   0.0800000   0.1400000   0.0000000), wk =   0.0096000
        k(   99) = (   0.0800000   0.1600000   0.0000000), wk =   0.0096000
        k(  100) = (   0.0800000   0.1800000   0.0000000), wk =   0.0096000
        k(  101) = (   0.0800000   0.2000000   0.0000000), wk =   0.0096000
        k(  102) = (   0.0800000   0.2200000   0.0000000), wk =   0.0096000
        k(  103) = (   0.0800000   0.2400000   0.0000000), wk =   0.0096000
        k(  104) = (   0.0800000   0.2600000   0.0000000), wk =   0.0096000
        k(  105) = (   0.0800000   0.2800000   0.0000000), wk =   0.0096000
        k(  106) = (   0.0800000   0.3000000   0.0000000), wk =   0.0096000
        k(  107) = (   0.0800000   0.3200000   0.0000000), wk =   0.0096000
        k(  108) = (   0.0800000   0.3400000   0.0000000), wk =   0.0096000
        k(  109) = (   0.0800000   0.3600000   0.0000000), wk =   0.0096000
        k(  110) = (   0.0800000   0.3800000   0.0000000), wk =   0.0096000
        k(  111) = (   0.0800000   0.4000000   0.0000000), wk =   0.0096000
        k(  112) = (   0.0800000   0.4200000   0.0000000), wk =   0.0096000
        k(  113) = (   0.0800000   0.4400000   0.0000000), wk =   0.0096000
        k(  114) = (   0.0800000   0.4600000   0.0000000), wk =   0.0048000
        k(  115) = (   0.1000000   0.1000000   0.0000000), wk =   0.0048000
        k(  116) = (   0.1000000   0.1200000   0.0000000), wk =   0.0096000
        k(  117) = (   0.1000000   0.1400000   0.0000000), wk =   0.0096000
        k(  118) = (   0.1000000   0.1600000   0.0000000), wk =   0.0096000
        k(  119) = (   0.1000000   0.1800000   0.0000000), wk =   0.0096000
        k(  120) = (   0.1000000   0.2000000   0.0000000), wk =   0.0096000
        k(  121) = (   0.1000000   0.2200000   0.0000000), wk =   0.0096000
        k(  122) = (   0.1000000   0.2400000   0.0000000), wk =   0.0096000
        k(  123) = (   0.1000000   0.2600000   0.0000000), wk =   0.0096000
        k(  124) = (   0.1000000   0.2800000   0.0000000), wk =   0.0096000
        k(  125) = (   0.1000000   0.3000000   0.0000000), wk =   0.0096000
        k(  126) = (   0.1000000   0.3200000   0.0000000), wk =   0.0096000
        k(  127) = (   0.1000000   0.3400000   0.0000000), wk =   0.0096000
        k(  128) = (   0.1000000   0.3600000   0.0000000), wk =   0.0096000
        k(  129) = (   0.1000000   0.3800000   0.0000000), wk =   0.0096000
        k(  130) = (   0.1000000   0.4000000   0.0000000), wk =   0.0096000
        k(  131) = (   0.1000000   0.4200000   0.0000000), wk =   0.0096000
        k(  132) = (   0.1000000   0.4400000   0.0000000), wk =   0.0096000
        k(  133) = (   0.1200000   0.1200000   0.0000000), wk =   0.0048000
        k(  134) = (   0.1200000   0.1400000   0.0000000), wk =   0.0096000
        k(  135) = (   0.1200000   0.1600000   0.0000000), wk =   0.0096000
        k(  136) = (   0.1200000   0.1800000   0.0000000), wk =   0.0096000
        k(  137) = (   0.1200000   0.2000000   0.0000000), wk =   0.0096000
        k(  138) = (   0.1200000   0.2200000   0.0000000), wk =   0.0096000
        k(  139) = (   0.1200000   0.2400000   0.0000000), wk =   0.0096000
        k(  140) = (   0.1200000   0.2600000   0.0000000), wk =   0.0096000
        k(  141) = (   0.1200000   0.2800000   0.0000000), wk =   0.0096000
        k(  142) = (   0.1200000   0.3000000   0.0000000), wk =   0.0096000
        k(  143) = (   0.1200000   0.3200000   0.0000000), wk =   0.0096000
        k(  144) = (   0.1200000   0.3400000   0.0000000), wk =   0.0096000
        k(  145) = (   0.1200000   0.3600000   0.0000000), wk =   0.0096000
        k(  146) = (   0.1200000   0.3800000   0.0000000), wk =   0.0096000
        k(  147) = (   0.1200000   0.4000000   0.0000000), wk =   0.0096000
        k(  148) = (   0.1200000   0.4200000   0.0000000), wk =   0.0096000
        k(  149) = (   0.1200000   0.4400000   0.0000000), wk =   0.0048000
        k(  150) = (   0.1400000   0.1400000   0.0000000), wk =   0.0048000
        k(  151) = (   0.1400000   0.1600000   0.0000000), wk =   0.0096000
        k(  152) = (   0.1400000   0.1800000   0.0000000), wk =   0.0096000
        k(  153) = (   0.1400000   0.2000000   0.0000000), wk =   0.0096000
        k(  154) = (   0.1400000   0.2200000   0.0000000), wk =   0.0096000
        k(  155) = (   0.1400000   0.2400000   0.0000000), wk =   0.0096000
        k(  156) = (   0.1400000   0.2600000   0.0000000), wk =   0.0096000
        k(  157) = (   0.1400000   0.2800000   0.0000000), wk =   0.0096000
        k(  158) = (   0.1400000   0.3000000   0.0000000), wk =   0.0096000
        k(  159) = (   0.1400000   0.3200000   0.0000000), wk =   0.0096000
        k(  160) = (   0.1400000   0.3400000   0.0000000), wk =   0.0096000
        k(  161) = (   0.1400000   0.3600000   0.0000000), wk =   0.0096000
        k(  162) = (   0.1400000   0.3800000   0.0000000), wk =   0.0096000
        k(  163) = (   0.1400000   0.4000000   0.0000000), wk =   0.0096000
        k(  164) = (   0.1400000   0.4200000   0.0000000), wk =   0.0096000
        k(  165) = (   0.1600000   0.1600000   0.0000000), wk =   0.0048000
        k(  166) = (   0.1600000   0.1800000   0.0000000), wk =   0.0096000
        k(  167) = (   0.1600000   0.2000000   0.0000000), wk =   0.0096000
        k(  168) = (   0.1600000   0.2200000   0.0000000), wk =   0.0096000
        k(  169) = (   0.1600000   0.2400000   0.0000000), wk =   0.0096000
        k(  170) = (   0.1600000   0.2600000   0.0000000), wk =   0.0096000
        k(  171) = (   0.1600000   0.2800000   0.0000000), wk =   0.0096000
        k(  172) = (   0.1600000   0.3000000   0.0000000), wk =   0.0096000
        k(  173) = (   0.1600000   0.3200000   0.0000000), wk =   0.0096000
        k(  174) = (   0.1600000   0.3400000   0.0000000), wk =   0.0096000
        k(  175) = (   0.1600000   0.3600000   0.0000000), wk =   0.0096000
        k(  176) = (   0.1600000   0.3800000   0.0000000), wk =   0.0096000
        k(  177) = (   0.1600000   0.4000000   0.0000000), wk =   0.0096000
        k(  178) = (   0.1600000   0.4200000   0.0000000), wk =   0.0048000
        k(  179) = (   0.1800000   0.1800000   0.0000000), wk =   0.0048000
        k(  180) = (   0.1800000   0.2000000   0.0000000), wk =   0.0096000
        k(  181) = (   0.1800000   0.2200000   0.0000000), wk =   0.0096000
        k(  182) = (   0.1800000   0.2400000   0.0000000), wk =   0.0096000
        k(  183) = (   0.1800000   0.2600000   0.0000000), wk =   0.0096000
        k(  184) = (   0.1800000   0.2800000   0.0000000), wk =   0.0096000
        k(  185) = (   0.1800000   0.3000000   0.0000000), wk =   0.0096000
        k(  186) = (   0.1800000   0.3200000   0.0000000), wk =   0.0096000
        k(  187) = (   0.1800000   0.3400000   0.0000000), wk =   0.0096000
        k(  188) = (   0.1800000   0.3600000   0.0000000), wk =   0.0096000
        k(  189) = (   0.1800000   0.3800000   0.0000000), wk =   0.0096000
        k(  190) = (   0.1800000   0.4000000   0.0000000), wk =   0.0096000
        k(  191) = (   0.2000000   0.2000000   0.0000000), wk =   0.0048000
        k(  192) = (   0.2000000   0.2200000   0.0000000), wk =   0.0096000
        k(  193) = (   0.2000000   0.2400000   0.0000000), wk =   0.0096000
        k(  194) = (   0.2000000   0.2600000   0.0000000), wk =   0.0096000
        k(  195) = (   0.2000000   0.2800000   0.0000000), wk =   0.0096000
        k(  196) = (   0.2000000   0.3000000   0.0000000), wk =   0.0096000
        k(  197) = (   0.2000000   0.3200000   0.0000000), wk =   0.0096000
        k(  198) = (   0.2000000   0.3400000   0.0000000), wk =   0.0096000
        k(  199) = (   0.2000000   0.3600000   0.0000000), wk =   0.0096000
        k(  200) = (   0.2000000   0.3800000   0.0000000), wk =   0.0096000
        k(  201) = (   0.2000000   0.4000000   0.0000000), wk =   0.0048000
        k(  202) = (   0.2200000   0.2200000   0.0000000), wk =   0.0048000
        k(  203) = (   0.2200000   0.2400000   0.0000000), wk =   0.0096000
        k(  204) = (   0.2200000   0.2600000   0.0000000), wk =   0.0096000
        k(  205) = (   0.2200000   0.2800000   0.0000000), wk =   0.0096000
        k(  206) = (   0.2200000   0.3000000   0.0000000), wk =   0.0096000
        k(  207) = (   0.2200000   0.3200000   0.0000000), wk =   0.0096000
        k(  208) = (   0.2200000   0.3400000   0.0000000), wk =   0.0096000
        k(  209) = (   0.2200000   0.3600000   0.0000000), wk =   0.0096000
        k(  210) = (   0.2200000   0.3800000   0.0000000), wk =   0.0096000
        k(  211) = (   0.2400000   0.2400000   0.0000000), wk =   0.0048000
        k(  212) = (   0.2400000   0.2600000   0.0000000), wk =   0.0096000
        k(  213) = (   0.2400000   0.2800000   0.0000000), wk =   0.0096000
        k(  214) = (   0.2400000   0.3000000   0.0000000), wk =   0.0096000
        k(  215) = (   0.2400000   0.3200000   0.0000000), wk =   0.0096000
        k(  216) = (   0.2400000   0.3400000   0.0000000), wk =   0.0096000
        k(  217) = (   0.2400000   0.3600000   0.0000000), wk =   0.0096000
        k(  218) = (   0.2400000   0.3800000   0.0000000), wk =   0.0048000
        k(  219) = (   0.2600000   0.2600000   0.0000000), wk =   0.0048000
        k(  220) = (   0.2600000   0.2800000   0.0000000), wk =   0.0096000
        k(  221) = (   0.2600000   0.3000000   0.0000000), wk =   0.0096000
        k(  222) = (   0.2600000   0.3200000   0.0000000), wk =   0.0096000
        k(  223) = (   0.2600000   0.3400000   0.0000000), wk =   0.0096000
        k(  224) = (   0.2600000   0.3600000   0.0000000), wk =   0.0096000
        k(  225) = (   0.2800000   0.2800000   0.0000000), wk =   0.0048000
        k(  226) = (   0.2800000   0.3000000   0.0000000), wk =   0.0096000
        k(  227) = (   0.2800000   0.3200000   0.0000000), wk =   0.0096000
        k(  228) = (   0.2800000   0.3400000   0.0000000), wk =   0.0096000
        k(  229) = (   0.2800000   0.3600000   0.0000000), wk =   0.0048000
        k(  230) = (   0.3000000   0.3000000   0.0000000), wk =   0.0048000
        k(  231) = (   0.3000000   0.3200000   0.0000000), wk =   0.0096000
        k(  232) = (   0.3000000   0.3400000   0.0000000), wk =   0.0096000
        k(  233) = (   0.3200000   0.3200000   0.0000000), wk =   0.0048000
        k(  234) = (   0.3200000   0.3400000   0.0000000), wk =   0.0048000

     Dense  grid:    44285 G-vectors     FFT dimensions: (  24,  24, 192)

     Dynamical RAM for                 wfc:       0.17 MB

     Dynamical RAM for     wfc (w. buffer):       0.17 MB

     Dynamical RAM for           str. fact:       0.08 MB

     Dynamical RAM for           local pot:       0.00 MB

     Dynamical RAM for          nlocal pot:       0.34 MB

     Dynamical RAM for                qrad:       0.36 MB

     Dynamical RAM for          rho,v,vnew:       0.57 MB

     Dynamical RAM for           G-vectors:       0.36 MB

     Dynamical RAM for          h,s,v(r/c):       0.05 MB

     Dynamical RAM for          <psi|beta>:       0.01 MB

     Dynamical RAM for                 psi:       0.34 MB

     Dynamical RAM for                hpsi:       0.34 MB

     Dynamical RAM for      wfcinit/wfcrot:       0.34 MB

     Estimated static dynamical RAM per process >       2.57 MB

     Estimated max dynamical RAM per process >       3.30 MB

     Estimated total dynamical RAM >      26.38 MB

     The potential is recalculated from file :
     ./tmp/C2L_AB_PBE_vdW.save/charge-density



     %%%%%%%%%%%%%%%%%%%%%%%%%%%%%%%%%%%%%%%%%%%%%%%%%%%%%%%%%%%%%%%%%%%%%%%%
     %                                                                      %
     % You are using vdW-DF, which was implemented by the Thonhauser group. %
     % Please cite the following two papers that made this development      %
     % possible and the two reviews that describe the various versions:     %
     %                                                                      %
     %   T. Thonhauser et al., PRL 115, 136402 (2015).                      %
     %   T. Thonhauser et al., PRB 76, 125112 (2007).                       %
     %   K. Berland et al., Rep. Prog. Phys. 78, 066501 (2015).             %
     %   D.C. Langreth et al., J. Phys.: Condens. Matter 21, 084203 (2009). %
     %                                                                      %
     % If you are calculating stress with vdW-DF, please also cite:         %
     %                                                                      %
     %   R. Sabatini et al., J. Phys.: Condens. Matter 24, 424209 (2012).   %
     %                                                                      %
     %%%%%%%%%%%%%%%%%%%%%%%%%%%%%%%%%%%%%%%%%%%%%%%%%%%%%%%%%%%%%%%%%%%%%%%%

     %%%%%%%%%%%%%%%%%%%%%%%%%%%%%%%%%%%%%%%%%%%%%%%%%%%%%%%%%%%%%%%%%%%%%%%%
     %                                                                      %
     %  vdW-DF NEWS:                                                        %
     %                                                                      %
     %  * vdW-DF3 is now available. DOI: 10.1021/acs.jctc.0c00471           %
     %    use with input_dft = 'vdW-DF3-opt1' or 'vdW-DF3-opt2'             %
     %                                                                      %
     %  * Unscreened and range-separated hybrid vdW-DF-cx functionals       %
     %    DOI: 10.1063/1.4986522 and 10.1088/1361-648X/ac2ad2               %
     %    use with input_dft = 'vdW-DF-cx0'    and 'vdW-DF-ahcx'            %
     %  * Unscreened and range-separated hybrid vdW-DF2-b86r functionals    %
     %    DOI: 10.1063/1.4986522 and DOI: 10.1103/PhysRevX.12.041003        %
     %    use with input_dft = 'vdW-DF2-br0' and 'vdW-DF2-ahbr'             %
     %                                                                      %
     %%%%%%%%%%%%%%%%%%%%%%%%%%%%%%%%%%%%%%%%%%%%%%%%%%%%%%%%%%%%%%%%%%%%%%%%


     Carrying out vdW-DF run using the following parameters:
     Nqs    =  20  Npoints =  1024  r_max =  100.000
     q_mesh =  0.00001000  0.04494208  0.09755937  0.15916263
               0.23128650  0.31572767  0.41458969  0.53033537
               0.66584808  0.82450364  1.01025438  1.22772762
               1.48234092  1.78043706  2.12944203  2.53805004
               3.01644009  3.57652955  4.23227104  5.00000000


     -----------------------------------------------
     Non-local corr. energy    =       0.19408375 Ry
     -----------------------------------------------

     Starting wfcs are   16 randomized atomic wfcs

     Band Structure Calculation
     Davidson diagonalization with overlap

     Computing kpt #:     1  of   234
     total cpu time spent up to now is        9.6 secs

     Computing kpt #:     2  of   234
     total cpu time spent up to now is        9.7 secs

     Computing kpt #:     3  of   234
     total cpu time spent up to now is        9.9 secs

     Computing kpt #:     4  of   234
     total cpu time spent up to now is       10.0 secs

     Computing kpt #:     5  of   234
     total cpu time spent up to now is       10.2 secs

     Computing kpt #:     6  of   234
     total cpu time spent up to now is       10.3 secs

     Computing kpt #:     7  of   234
     total cpu time spent up to now is       10.4 secs

     Computing kpt #:     8  of   234
     total cpu time spent up to now is       10.5 secs

     Computing kpt #:     9  of   234
     total cpu time spent up to now is       10.7 secs

     Computing kpt #:    10  of   234
     total cpu time spent up to now is       10.8 secs

     Computing kpt #:    11  of   234
     total cpu time spent up to now is       10.9 secs

     Computing kpt #:    12  of   234
     total cpu time spent up to now is       11.1 secs

     Computing kpt #:    13  of   234
     total cpu time spent up to now is       11.2 secs

     Computing kpt #:    14  of   234
     total cpu time spent up to now is       11.3 secs

     Computing kpt #:    15  of   234
     total cpu time spent up to now is       11.5 secs

     Computing kpt #:    16  of   234
     total cpu time spent up to now is       11.6 secs

     Computing kpt #:    17  of   234
     total cpu time spent up to now is       11.8 secs

     Computing kpt #:    18  of   234
     total cpu time spent up to now is       11.9 secs

     Computing kpt #:    19  of   234
     total cpu time spent up to now is       12.0 secs

     Computing kpt #:    20  of   234
     total cpu time spent up to now is       12.2 secs

     Computing kpt #:    21  of   234
     total cpu time spent up to now is       12.3 secs

     Computing kpt #:    22  of   234
     total cpu time spent up to now is       12.5 secs

     Computing kpt #:    23  of   234
     total cpu time spent up to now is       12.6 secs

     Computing kpt #:    24  of   234
     total cpu time spent up to now is       12.8 secs

     Computing kpt #:    25  of   234
     total cpu time spent up to now is       12.9 secs

     Computing kpt #:    26  of   234
     total cpu time spent up to now is       13.0 secs

     Computing kpt #:    27  of   234
     total cpu time spent up to now is       13.2 secs

     Computing kpt #:    28  of   234
     total cpu time spent up to now is       13.4 secs

     Computing kpt #:    29  of   234
     total cpu time spent up to now is       13.5 secs

     Computing kpt #:    30  of   234
     total cpu time spent up to now is       13.7 secs

     Computing kpt #:    31  of   234
     total cpu time spent up to now is       13.8 secs

     Computing kpt #:    32  of   234
     total cpu time spent up to now is       13.9 secs

     Computing kpt #:    33  of   234
     total cpu time spent up to now is       14.1 secs

     Computing kpt #:    34  of   234
     total cpu time spent up to now is       14.2 secs

     Computing kpt #:    35  of   234
     total cpu time spent up to now is       14.4 secs

     Computing kpt #:    36  of   234
     total cpu time spent up to now is       14.5 secs

     Computing kpt #:    37  of   234
     total cpu time spent up to now is       14.7 secs

     Computing kpt #:    38  of   234
     total cpu time spent up to now is       14.9 secs

     Computing kpt #:    39  of   234
     total cpu time spent up to now is       15.0 secs

     Computing kpt #:    40  of   234
     total cpu time spent up to now is       15.1 secs

     Computing kpt #:    41  of   234
     total cpu time spent up to now is       15.3 secs

     Computing kpt #:    42  of   234
     total cpu time spent up to now is       15.4 secs

     Computing kpt #:    43  of   234
     total cpu time spent up to now is       15.6 secs

     Computing kpt #:    44  of   234
     total cpu time spent up to now is       15.7 secs

     Computing kpt #:    45  of   234
     total cpu time spent up to now is       15.9 secs

     Computing kpt #:    46  of   234
     total cpu time spent up to now is       16.0 secs

     Computing kpt #:    47  of   234
     total cpu time spent up to now is       16.1 secs

     Computing kpt #:    48  of   234
     total cpu time spent up to now is       16.2 secs

     Computing kpt #:    49  of   234
     total cpu time spent up to now is       16.4 secs

     Computing kpt #:    50  of   234
     total cpu time spent up to now is       16.5 secs

     Computing kpt #:    51  of   234
     total cpu time spent up to now is       16.6 secs

     Computing kpt #:    52  of   234
     total cpu time spent up to now is       16.8 secs

     Computing kpt #:    53  of   234
     total cpu time spent up to now is       16.9 secs

     Computing kpt #:    54  of   234
     total cpu time spent up to now is       17.1 secs

     Computing kpt #:    55  of   234
     total cpu time spent up to now is       17.2 secs

     Computing kpt #:    56  of   234
     total cpu time spent up to now is       17.4 secs

     Computing kpt #:    57  of   234
     total cpu time spent up to now is       17.5 secs

     Computing kpt #:    58  of   234
     total cpu time spent up to now is       17.7 secs

     Computing kpt #:    59  of   234
     total cpu time spent up to now is       17.8 secs

     Computing kpt #:    60  of   234
     total cpu time spent up to now is       18.0 secs

     Computing kpt #:    61  of   234
     total cpu time spent up to now is       18.1 secs

     Computing kpt #:    62  of   234
     total cpu time spent up to now is       18.3 secs

     Computing kpt #:    63  of   234
     total cpu time spent up to now is       18.4 secs

     Computing kpt #:    64  of   234
     total cpu time spent up to now is       18.6 secs

     Computing kpt #:    65  of   234
     total cpu time spent up to now is       18.7 secs

     Computing kpt #:    66  of   234
     total cpu time spent up to now is       18.9 secs

     Computing kpt #:    67  of   234
     total cpu time spent up to now is       19.0 secs

     Computing kpt #:    68  of   234
     total cpu time spent up to now is       19.1 secs

     Computing kpt #:    69  of   234
     total cpu time spent up to now is       19.3 secs

     Computing kpt #:    70  of   234
     total cpu time spent up to now is       19.4 secs

     Computing kpt #:    71  of   234
     total cpu time spent up to now is       19.6 secs

     Computing kpt #:    72  of   234
     total cpu time spent up to now is       19.7 secs

     Computing kpt #:    73  of   234
     total cpu time spent up to now is       19.8 secs

     Computing kpt #:    74  of   234
     total cpu time spent up to now is       20.0 secs

     Computing kpt #:    75  of   234
     total cpu time spent up to now is       20.1 secs

     Computing kpt #:    76  of   234
     total cpu time spent up to now is       20.3 secs

     Computing kpt #:    77  of   234
     total cpu time spent up to now is       20.4 secs

     Computing kpt #:    78  of   234
     total cpu time spent up to now is       20.6 secs

     Computing kpt #:    79  of   234
     total cpu time spent up to now is       20.8 secs

     Computing kpt #:    80  of   234
     total cpu time spent up to now is       20.9 secs

     Computing kpt #:    81  of   234
     total cpu time spent up to now is       21.1 secs

     Computing kpt #:    82  of   234
     total cpu time spent up to now is       21.2 secs

     Computing kpt #:    83  of   234
     total cpu time spent up to now is       21.4 secs

     Computing kpt #:    84  of   234
     total cpu time spent up to now is       21.5 secs

     Computing kpt #:    85  of   234
     total cpu time spent up to now is       21.7 secs

     Computing kpt #:    86  of   234
     total cpu time spent up to now is       21.8 secs

     Computing kpt #:    87  of   234
     total cpu time spent up to now is       22.0 secs

     Computing kpt #:    88  of   234
     total cpu time spent up to now is       22.1 secs

     Computing kpt #:    89  of   234
     total cpu time spent up to now is       22.3 secs

     Computing kpt #:    90  of   234
     total cpu time spent up to now is       22.4 secs

     Computing kpt #:    91  of   234
     total cpu time spent up to now is       22.5 secs

     Computing kpt #:    92  of   234
     total cpu time spent up to now is       22.7 secs

     Computing kpt #:    93  of   234
     total cpu time spent up to now is       22.8 secs

     Computing kpt #:    94  of   234
     total cpu time spent up to now is       22.9 secs

     Computing kpt #:    95  of   234
     total cpu time spent up to now is       23.0 secs

     Computing kpt #:    96  of   234
     total cpu time spent up to now is       23.2 secs

     Computing kpt #:    97  of   234
     total cpu time spent up to now is       23.4 secs

     Computing kpt #:    98  of   234
     total cpu time spent up to now is       23.5 secs

     Computing kpt #:    99  of   234
     total cpu time spent up to now is       23.7 secs

     Computing kpt #:   100  of   234
     total cpu time spent up to now is       23.8 secs

     Computing kpt #:   101  of   234
     total cpu time spent up to now is       24.0 secs

     Computing kpt #:   102  of   234
     total cpu time spent up to now is       24.1 secs

     Computing kpt #:   103  of   234
     total cpu time spent up to now is       24.3 secs

     Computing kpt #:   104  of   234
     total cpu time spent up to now is       24.4 secs

     Computing kpt #:   105  of   234
     total cpu time spent up to now is       24.6 secs

     Computing kpt #:   106  of   234
     total cpu time spent up to now is       24.7 secs

     Computing kpt #:   107  of   234
     total cpu time spent up to now is       24.8 secs

     Computing kpt #:   108  of   234
     total cpu time spent up to now is       25.0 secs

     Computing kpt #:   109  of   234
     total cpu time spent up to now is       25.1 secs

     Computing kpt #:   110  of   234
     total cpu time spent up to now is       25.3 secs

     Computing kpt #:   111  of   234
     total cpu time spent up to now is       25.4 secs

     Computing kpt #:   112  of   234
     total cpu time spent up to now is       25.6 secs

     Computing kpt #:   113  of   234
     total cpu time spent up to now is       25.7 secs

     Computing kpt #:   114  of   234
     total cpu time spent up to now is       25.8 secs

     Computing kpt #:   115  of   234
     total cpu time spent up to now is       26.0 secs

     Computing kpt #:   116  of   234
     total cpu time spent up to now is       26.2 secs

     Computing kpt #:   117  of   234
     total cpu time spent up to now is       26.3 secs

     Computing kpt #:   118  of   234
     total cpu time spent up to now is       26.5 secs

     Computing kpt #:   119  of   234
     total cpu time spent up to now is       26.6 secs

     Computing kpt #:   120  of   234
     total cpu time spent up to now is       26.8 secs

     Computing kpt #:   121  of   234
     total cpu time spent up to now is       27.0 secs

     Computing kpt #:   122  of   234
     total cpu time spent up to now is       27.1 secs

     Computing kpt #:   123  of   234
     total cpu time spent up to now is       27.3 secs

     Computing kpt #:   124  of   234
     total cpu time spent up to now is       27.4 secs

     Computing kpt #:   125  of   234
     total cpu time spent up to now is       27.6 secs

     Computing kpt #:   126  of   234
     total cpu time spent up to now is       27.7 secs

     Computing kpt #:   127  of   234
     total cpu time spent up to now is       27.9 secs

     Computing kpt #:   128  of   234
     total cpu time spent up to now is       28.0 secs

     Computing kpt #:   129  of   234
     total cpu time spent up to now is       28.2 secs

     Computing kpt #:   130  of   234
     total cpu time spent up to now is       28.3 secs

     Computing kpt #:   131  of   234
     total cpu time spent up to now is       28.5 secs

     Computing kpt #:   132  of   234
     total cpu time spent up to now is       28.6 secs

     Computing kpt #:   133  of   234
     total cpu time spent up to now is       28.7 secs

     Computing kpt #:   134  of   234
     total cpu time spent up to now is       28.9 secs

     Computing kpt #:   135  of   234
     total cpu time spent up to now is       29.0 secs

     Computing kpt #:   136  of   234
     total cpu time spent up to now is       29.1 secs

     Computing kpt #:   137  of   234
     total cpu time spent up to now is       29.3 secs

     Computing kpt #:   138  of   234
     total cpu time spent up to now is       29.5 secs

     Computing kpt #:   139  of   234
     total cpu time spent up to now is       29.6 secs

     Computing kpt #:   140  of   234
     total cpu time spent up to now is       29.8 secs

     Computing kpt #:   141  of   234
     total cpu time spent up to now is       30.0 secs

     Computing kpt #:   142  of   234
     total cpu time spent up to now is       30.1 secs

     Computing kpt #:   143  of   234
     total cpu time spent up to now is       30.2 secs

     Computing kpt #:   144  of   234
     total cpu time spent up to now is       30.4 secs

     Computing kpt #:   145  of   234
     total cpu time spent up to now is       30.5 secs

     Computing kpt #:   146  of   234
     total cpu time spent up to now is       30.7 secs

     Computing kpt #:   147  of   234
     total cpu time spent up to now is       30.8 secs

     Computing kpt #:   148  of   234
     total cpu time spent up to now is       30.9 secs

     Computing kpt #:   149  of   234
     total cpu time spent up to now is       31.0 secs

     Computing kpt #:   150  of   234
     total cpu time spent up to now is       31.2 secs

     Computing kpt #:   151  of   234
     total cpu time spent up to now is       31.3 secs

     Computing kpt #:   152  of   234
     total cpu time spent up to now is       31.5 secs

     Computing kpt #:   153  of   234
     total cpu time spent up to now is       31.6 secs

     Computing kpt #:   154  of   234
     total cpu time spent up to now is       31.7 secs

     Computing kpt #:   155  of   234
     total cpu time spent up to now is       31.9 secs

     Computing kpt #:   156  of   234
     total cpu time spent up to now is       32.1 secs

     Computing kpt #:   157  of   234
     total cpu time spent up to now is       32.2 secs

     Computing kpt #:   158  of   234
     total cpu time spent up to now is       32.3 secs

     Computing kpt #:   159  of   234
     total cpu time spent up to now is       32.5 secs

     Computing kpt #:   160  of   234
     total cpu time spent up to now is       32.6 secs

     Computing kpt #:   161  of   234
     total cpu time spent up to now is       32.8 secs

     Computing kpt #:   162  of   234
     total cpu time spent up to now is       32.9 secs

     Computing kpt #:   163  of   234
     total cpu time spent up to now is       33.0 secs

     Computing kpt #:   164  of   234
     total cpu time spent up to now is       33.1 secs

     Computing kpt #:   165  of   234
     total cpu time spent up to now is       33.3 secs

     Computing kpt #:   166  of   234
     total cpu time spent up to now is       33.5 secs

     Computing kpt #:   167  of   234
     total cpu time spent up to now is       33.6 secs

     Computing kpt #:   168  of   234
     total cpu time spent up to now is       33.8 secs

     Computing kpt #:   169  of   234
     total cpu time spent up to now is       33.9 secs

     Computing kpt #:   170  of   234
     total cpu time spent up to now is       34.1 secs

     Computing kpt #:   171  of   234
     total cpu time spent up to now is       34.2 secs

     Computing kpt #:   172  of   234
     total cpu time spent up to now is       34.4 secs

     Computing kpt #:   173  of   234
     total cpu time spent up to now is       34.5 secs

     Computing kpt #:   174  of   234
     total cpu time spent up to now is       34.6 secs

     Computing kpt #:   175  of   234
     total cpu time spent up to now is       34.8 secs

     Computing kpt #:   176  of   234
     total cpu time spent up to now is       34.9 secs

     Computing kpt #:   177  of   234
     total cpu time spent up to now is       35.0 secs

     Computing kpt #:   178  of   234
     total cpu time spent up to now is       35.2 secs

     Computing kpt #:   179  of   234
     total cpu time spent up to now is       35.3 secs

     Computing kpt #:   180  of   234
     total cpu time spent up to now is       35.5 secs

     Computing kpt #:   181  of   234
     total cpu time spent up to now is       35.6 secs

     Computing kpt #:   182  of   234
     total cpu time spent up to now is       35.8 secs

     Computing kpt #:   183  of   234
     total cpu time spent up to now is       36.0 secs

     Computing kpt #:   184  of   234
     total cpu time spent up to now is       36.1 secs

     Computing kpt #:   185  of   234
     total cpu time spent up to now is       36.2 secs

     Computing kpt #:   186  of   234
     total cpu time spent up to now is       36.4 secs

     Computing kpt #:   187  of   234
     total cpu time spent up to now is       36.6 secs

     Computing kpt #:   188  of   234
     total cpu time spent up to now is       36.7 secs

     Computing kpt #:   189  of   234
     total cpu time spent up to now is       36.9 secs

     Computing kpt #:   190  of   234
     total cpu time spent up to now is       37.0 secs

     Computing kpt #:   191  of   234
     total cpu time spent up to now is       37.2 secs

     Computing kpt #:   192  of   234
     total cpu time spent up to now is       37.3 secs

     Computing kpt #:   193  of   234
     total cpu time spent up to now is       37.5 secs

     Computing kpt #:   194  of   234
     total cpu time spent up to now is       37.7 secs

     Computing kpt #:   195  of   234
     total cpu time spent up to now is       37.9 secs

     Computing kpt #:   196  of   234
     total cpu time spent up to now is       38.1 secs

     Computing kpt #:   197  of   234
     total cpu time spent up to now is       38.2 secs

     Computing kpt #:   198  of   234
     total cpu time spent up to now is       38.4 secs

     Computing kpt #:   199  of   234
     total cpu time spent up to now is       38.6 secs

     Computing kpt #:   200  of   234
     total cpu time spent up to now is       38.7 secs

     Computing kpt #:   201  of   234
     total cpu time spent up to now is       38.8 secs

     Computing kpt #:   202  of   234
     total cpu time spent up to now is       39.0 secs

     Computing kpt #:   203  of   234
     total cpu time spent up to now is       39.2 secs

     Computing kpt #:   204  of   234
     total cpu time spent up to now is       39.4 secs

     Computing kpt #:   205  of   234
     total cpu time spent up to now is       39.6 secs

     Computing kpt #:   206  of   234
     total cpu time spent up to now is       39.7 secs

     Computing kpt #:   207  of   234
     total cpu time spent up to now is       39.9 secs

     Computing kpt #:   208  of   234
     total cpu time spent up to now is       40.1 secs

     Computing kpt #:   209  of   234
     total cpu time spent up to now is       40.2 secs

     Computing kpt #:   210  of   234
     total cpu time spent up to now is       40.4 secs

     Computing kpt #:   211  of   234
     total cpu time spent up to now is       40.5 secs

     Computing kpt #:   212  of   234
     total cpu time spent up to now is       40.7 secs

     Computing kpt #:   213  of   234
     total cpu time spent up to now is       40.8 secs

     Computing kpt #:   214  of   234
     total cpu time spent up to now is       41.0 secs

     Computing kpt #:   215  of   234
     total cpu time spent up to now is       41.2 secs

     Computing kpt #:   216  of   234
     total cpu time spent up to now is       41.4 secs

     Computing kpt #:   217  of   234
     total cpu time spent up to now is       41.5 secs

     Computing kpt #:   218  of   234
     total cpu time spent up to now is       41.7 secs

     Computing kpt #:   219  of   234
     total cpu time spent up to now is       41.8 secs

     Computing kpt #:   220  of   234
     total cpu time spent up to now is       42.0 secs

     Computing kpt #:   221  of   234
     total cpu time spent up to now is       42.2 secs

     Computing kpt #:   222  of   234
     total cpu time spent up to now is       42.4 secs

     Computing kpt #:   223  of   234
     total cpu time spent up to now is       42.5 secs

     Computing kpt #:   224  of   234
     total cpu time spent up to now is       42.7 secs

     Computing kpt #:   225  of   234
     total cpu time spent up to now is       42.9 secs

     Computing kpt #:   226  of   234
     total cpu time spent up to now is       43.0 secs

     Computing kpt #:   227  of   234
     total cpu time spent up to now is       43.2 secs

     Computing kpt #:   228  of   234
     total cpu time spent up to now is       43.3 secs

     Computing kpt #:   229  of   234
     total cpu time spent up to now is       43.5 secs

     Computing kpt #:   230  of   234
     total cpu time spent up to now is       43.7 secs

     Computing kpt #:   231  of   234
     total cpu time spent up to now is       43.8 secs

     Computing kpt #:   232  of   234
     total cpu time spent up to now is       44.0 secs

     Computing kpt #:   233  of   234
     total cpu time spent up to now is       44.1 secs

     Computing kpt #:   234  of   234
     total cpu time spent up to now is       44.2 secs

     ethr =  5.00E-06,  avg # of iterations = 28.1

     total cpu time spent up to now is       44.2 secs

     End of band structure calculation

          k = 0.0000 0.0000 0.0000 (  5505 PWs)   bands (ev):

   -20.1542 -19.9802  -8.7240  -7.6484  -3.6426  -3.6426  -3.6203  -3.6202
     2.5622   2.9846   4.0512   5.1938   5.6433   7.4810   7.8220   7.8221

     occupation numbers 
     1.0000   1.0000   1.0000   1.0000   1.0000   1.0000   1.0000   1.0000
     0.0000   0.0000   0.0000   0.0000   0.0000   0.0000   0.0000   0.0000

          k = 0.0000 0.0231 0.0000 (  5489 PWs)   bands (ev):

   -20.1446 -19.9707  -8.7123  -7.6371  -3.6817  -3.6634  -3.6590  -3.6408
     2.5749   2.9974   4.0642   5.2068   5.6554   7.4924   7.8277   7.8637

     occupation numbers 
     1.0000   1.0000   1.0000   1.0000   1.0000   1.0000   1.0000   1.0000
     0.0000   0.0000   0.0000   0.0000   0.0000   0.0000   0.0000   0.0000

          k = 0.0000 0.0462 0.0000 (  5500 PWs)   bands (ev):

   -20.1162 -19.9426  -8.6779  -7.6038  -3.7993  -3.7758  -3.7249  -3.7019
     2.6129   3.0357   4.1034   5.2456   5.6916   7.5262   7.8403   7.8849

     occupation numbers 
     1.0000   1.0000   1.0000   1.0000   1.0000   1.0000   1.0000   1.0000
     0.0000   0.0000   0.0000   0.0000   0.0000   0.0000   0.0000   0.0000

          k = 0.0000 0.0693 0.0000 (  5522 PWs)   bands (ev):

   -20.0689 -19.8958  -8.6203  -7.5482  -3.9905  -3.9653  -3.8251  -3.8011
     2.6763   3.0996   4.1685   5.3102   5.7520   7.5824   7.8565   7.9126

     occupation numbers 
     1.0000   1.0000   1.0000   1.0000   1.0000   1.0000   1.0000   1.0000
     0.0000   0.0000   0.0000   0.0000   0.0000   0.0000   0.0000   0.0000

          k = 0.0000 0.0924 0.0000 (  5514 PWs)   bands (ev):

   -20.0027 -19.8302  -8.5400  -7.4705  -4.2469  -4.2199  -3.9575  -3.9323
     2.7651   3.1891   4.2598   5.4008   5.8365   7.6600   7.8707   7.9435

     occupation numbers 
     1.0000   1.0000   1.0000   1.0000   1.0000   1.0000   1.0000   1.0000
     0.0000   0.0000   0.0000   0.0000   0.0000   0.0000   0.0000   0.0000

          k = 0.0000 0.1155 0.0000 (  5520 PWs)   bands (ev):

   -19.9177 -19.7461  -8.4371  -7.3713  -4.5628  -4.5327  -4.1173  -4.0910
     2.8792   3.3040   4.3771   5.5172   5.9451   7.7533   7.8771   7.9726

     occupation numbers 
     1.0000   1.0000   1.0000   1.0000   1.0000   1.0000   1.0000   1.0000
     0.0000   0.0000   0.0000   0.0000   0.0000   0.0000   0.0000   0.0000

          k = 0.0000 0.1386 0.0000 (  5518 PWs)   bands (ev):

   -19.8137 -19.6432  -8.3115  -7.2500  -4.9295  -4.8961  -4.2987  -4.2714
     3.0187   3.4445   4.5205   5.6593   6.0775   7.8408   7.8768   8.0129

     occupation numbers 
     1.0000   1.0000   1.0000   1.0000   1.0000   1.0000   1.0000   1.0000
     0.0000   0.0000   0.0000   0.0000   0.0000   0.0000   0.0000   0.0000

          k = 0.0000 0.1617 0.0000 (  5518 PWs)   bands (ev):

   -19.6911 -19.5218  -8.1634  -7.1073  -5.3392  -5.3017  -4.4965  -4.4679
     3.1834   3.6102   4.6900   5.8272   6.2334   7.8394   7.9034   8.1064

     occupation numbers 
     1.0000   1.0000   1.0000   1.0000   1.0000   1.0000   1.0000   1.0000
     0.0000   0.0000   0.0000   0.0000   0.0000   0.0000   0.0000   0.0000

          k = 0.0000 0.1848 0.0000 (  5534 PWs)   bands (ev):

   -19.5499 -19.3822  -7.9934  -6.9436  -5.7833  -5.7415  -4.7047  -4.6751
     3.3735   3.8013   4.8855   6.0207   6.4121   7.7986   7.8958   8.2553

     occupation numbers 
     1.0000   1.0000   1.0000   1.0000   1.0000   1.0000   1.0000   1.0000
     0.0000   0.0000   0.0000   0.0000   0.0000   0.0000   0.0000   0.0000

          k = 0.0000 0.2078 0.0000 (  5524 PWs)   bands (ev):

   -19.3900 -19.2239  -7.8012  -6.7588  -6.2544  -6.2090  -4.9184  -4.8878
     3.5887   4.0174   5.1070   6.2394   6.6121   7.7413   7.8601   8.3174

     occupation numbers 
     1.0000   1.0000   1.0000   1.0000   1.0000   1.0000   1.0000   1.0000
     0.0000   0.0000   0.0000   0.0000   0.0000   0.0000   0.0000   0.0000

          k = 0.0000 0.2309 0.0000 (  5518 PWs)   bands (ev):

   -19.2116 -19.0474  -7.5875  -6.7477  -6.6983  -6.5528  -5.1338  -5.1022
     3.8291   4.2583   5.3545   6.4827   6.8296   7.6672   7.7570   7.9154

     occupation numbers 
     1.0000   1.0000   1.0000   1.0000   1.0000   1.0000   1.0000   1.0000
     0.0000   0.0000   0.0000   0.0000   0.0000   0.0000   0.0000   0.0000

          k = 0.0000 0.2540 0.0000 (  5514 PWs)   bands (ev):

   -19.0150 -18.8529  -7.3534  -7.2560  -7.2022  -6.3281  -5.3467  -5.3144
     4.0946   4.5233   5.6278   6.7457   7.0461   7.3158   7.5448   7.6980

     occupation numbers 
     1.0000   1.0000   1.0000   1.0000   1.0000   1.0000   1.0000   1.0000
     0.0000   0.0000   0.0000   0.0000   0.0000   0.0000   0.0000   0.0000

          k = 0.0000 0.2771 0.0000 (  5518 PWs)   bands (ev):

   -18.8002 -18.6404  -7.7775  -7.7183  -7.0972  -6.0838  -5.5547  -5.5217
     4.3848   4.8108   5.9267   6.7453   7.0216   7.0739   7.3688   7.5503

     occupation numbers 
     1.0000   1.0000   1.0000   1.0000   1.0000   1.0000   1.0000   1.0000
     0.0000   0.0000   0.0000   0.0000   0.0000   0.0000   0.0000   0.0000

          k = 0.0000 0.3002 0.0000 (  5514 PWs)   bands (ev):

   -18.5677 -18.4102  -8.3050  -8.2412  -6.8218  -5.8213  -5.7546  -5.7212
     4.6996   5.1140   6.2158   6.2505   6.5539   7.3332   7.4474   7.5216

     occupation numbers 
     1.0000   1.0000   1.0000   1.0000   1.0000   1.0000   1.0000   1.0000
     0.0000   0.0000   0.0000   0.0000   0.0000   0.0000   0.0000   0.0000

          k = 0.0000 0.3233 0.0000 (  5526 PWs)   bands (ev):

   -18.3174 -18.1625  -8.8356  -8.7681  -6.5275  -5.9447  -5.9107  -5.5423
     5.0373   5.3581   5.7419   6.0352   6.6027   7.3249   7.4695   7.7521

     occupation numbers 
     1.0000   1.0000   1.0000   1.0000   1.0000   1.0000   1.0000   1.0000
     0.0000   0.0000   0.0000   0.0000   0.0000   0.0000   0.0000   0.0000

          k = 0.0000 0.3464 0.0000 (  5528 PWs)   bands (ev):

   -18.0496 -17.8974  -9.3675  -9.2954  -6.2152  -6.1235  -6.0887  -5.2474
     5.0012   5.3913   5.4938   5.9083   6.9719   7.2496   7.4197   8.1169

     occupation numbers 
     1.0000   1.0000   1.0000   1.0000   1.0000   1.0000   1.0000   1.0000
     0.0000   0.0000   0.0000   0.0000   0.0000   0.0000   0.0000   0.0000

          k = 0.0000 0.3695 0.0000 (  5534 PWs)   bands (ev):

   -17.7648 -17.6153  -9.8973  -9.8207  -6.2886  -6.2535  -5.8864  -4.9391
     4.4495   4.9443   5.7953   6.2706   7.1621   7.3012   7.4394   8.5135

     occupation numbers 
     1.0000   1.0000   1.0000   1.0000   1.0000   1.0000   1.0000   1.0000
     0.0000   0.0000   0.0000   0.0000   0.0000   0.0000   0.0000   0.0000

          k = 0.0000 0.3926 0.0000 (  5536 PWs)   bands (ev):

   -17.4631 -17.3169 -10.4221 -10.3413  -6.4392  -6.4035  -5.5436  -4.6197
     3.8889   4.4102   6.2037   6.6711   7.0998   7.2765   7.8275   8.9366

     occupation numbers 
     1.0000   1.0000   1.0000   1.0000   1.0000   1.0000   1.0000   1.0000
     0.0000   0.0000   0.0000   0.0000   0.0000   0.0000   0.0000   0.0000

          k = 0.0000 0.4157 0.0000 (  5540 PWs)   bands (ev):

   -17.1455 -17.0025 -10.9403 -10.8550  -6.5740  -6.5383  -5.1884  -4.2940
     3.3380   3.8825   6.6275   6.9740   7.1646   7.2329   8.2774   9.3854

     occupation numbers 
     1.0000   1.0000   1.0000   1.0000   1.0000   1.0000   1.0000   1.0000
     0.0000   0.0000   0.0000   0.0000   0.0000   0.0000   0.0000   0.0000

          k = 0.0000 0.4388 0.0000 (  5528 PWs)   bands (ev):

   -16.8123 -16.6732 -11.4493 -11.3597  -6.6924  -6.6562  -4.8250  -3.9674
     2.8076   3.3681   6.9115   7.0520   7.2423   7.6013   8.7554   9.8592

     occupation numbers 
     1.0000   1.0000   1.0000   1.0000   1.0000   1.0000   1.0000   1.0000
     0.0000   0.0000   0.0000   0.0000   0.0000   0.0000   0.0000   0.0000

          k = 0.0000 0.4619 0.0000 (  5524 PWs)   bands (ev):

   -16.4651 -16.3301 -11.9467 -11.8536  -6.7937  -6.7572  -4.4594  -3.6491
     2.3087   2.8753   6.8795   7.0873   7.6267   8.0832   9.2591  10.3574

     occupation numbers 
     1.0000   1.0000   1.0000   1.0000   1.0000   1.0000   1.0000   1.0000
     0.0000   0.0000   0.0000   0.0000   0.0000   0.0000   0.0000   0.0000

          k = 0.0000 0.4850 0.0000 (  5532 PWs)   bands (ev):

   -16.1062 -15.9757 -12.4293 -12.3331  -6.8772  -6.8409  -4.1000  -3.3521
     1.8565   2.4134   6.8380   7.0562   8.1223   8.5914   9.7875  10.8569

     occupation numbers 
     1.0000   1.0000   1.0000   1.0000   1.0000   1.0000   1.0000   1.0000
     0.0000   0.0000   0.0000   0.0000   0.0000   0.0000   0.0000   0.0000

          k = 0.0000 0.5081 0.0000 (  5546 PWs)   bands (ev):

   -15.7401 -15.6151 -12.8914 -12.7929  -6.9426  -6.9064  -3.7605  -3.0948
     1.4716   1.9989   6.8033   7.0267   8.6474   9.1226  10.3392  11.3058

     occupation numbers 
     1.0000   1.0000   1.0000   1.0000   1.0000   1.0000   1.0000   1.0000
     0.0000   0.0000   0.0000   0.0000   0.0000   0.0000   0.0000   0.0000

          k = 0.0000 0.5312 0.0000 (  5538 PWs)   bands (ev):

   -15.3768 -15.2606 -13.3190 -13.2229  -6.9894  -6.9532  -3.4623  -2.9008
     1.1792   1.6546   6.7782   7.0046   9.1952   9.6745  10.9115  11.5607

     occupation numbers 
     1.0000   1.0000   1.0000   1.0000   1.0000   1.0000   1.0000   1.0000
     0.0000   0.0000   0.0000   0.0000   0.0000   0.0000   0.0000   0.0000

          k = 0.0000 0.5543 0.0000 (  5526 PWs)   bands (ev):

   -15.0495 -14.9529 -13.6712 -13.5895  -7.0174  -6.9812  -3.2426  -2.7904
     1.0018   1.4147   6.7630   6.9911   9.7625  10.2433  10.9544  11.3853

     occupation numbers 
     1.0000   1.0000   1.0000   1.0000   1.0000   1.0000   1.0000   1.0000
     0.0000   0.0000   0.0000   0.0000   0.0000   0.0000   0.0000   0.0000

          k = 0.0000-0.5774 0.0000 (  5540 PWs)   bands (ev):

   -14.8837 -14.8155 -13.8229 -13.7698  -7.0274  -6.9909  -3.1575  -2.7589
     0.9439   1.3258   6.7578   6.9864  10.3081  10.3860  10.8001  10.8687

     occupation numbers 
     1.0000   1.0000   1.0000   1.0000   1.0000   1.0000   1.0000   1.0000
     0.0000   0.0000   0.0000   0.0000   0.0000   0.0000   0.0000   0.0000

          k = 0.0200 0.0346 0.0000 (  5505 PWs)   bands (ev):

[...]
     0.7841   0.9572   9.5497   9.8834  10.5669  10.7093  10.9049  11.2582

     occupation numbers 
     1.0000   1.0000   1.0000   1.0000   1.0000   1.0000   1.0000   1.0000
     0.0000   0.0000   0.0000   0.0000   0.0000   0.0000   0.0000   0.0000

          k = 0.2000 0.3464 0.0000 (  5522 PWs)   bands (ev):

   -17.3644 -17.2196  -9.5471  -9.5055  -8.0545  -8.0205  -5.4090  -4.4806
     4.1661   4.4703   6.3488   6.7678   7.9550   9.0426   9.1265  10.2309

     occupation numbers 
     1.0000   1.0000   1.0000   1.0000   1.0000   1.0000   1.0000   1.0000
     0.0000   0.0000   0.0000   0.0000   0.0000   0.0000   0.0000   0.0000

          k = 0.2000 0.3695 0.0000 (  5512 PWs)   bands (ev):

   -17.0841 -16.9419  -9.9024  -9.8570  -8.3473  -8.3109  -5.0857  -4.1783
     3.7220   4.0377   6.7353   7.1466   8.3552   9.4291   9.4359  10.3890

     occupation numbers 
     1.0000   1.0000   1.0000   1.0000   1.0000   1.0000   1.0000   1.0000
     0.0000   0.0000   0.0000   0.0000   0.0000   0.0000   0.0000   0.0000

          k = 0.2000 0.3926 0.0000 (  5504 PWs)   bands (ev):

   -16.7873 -16.6483 -10.2871 -10.2345  -8.6012  -8.5598  -4.7475  -3.8636
     3.2713   3.6027   7.1452   7.5458   8.7791   9.7360   9.8333  10.4121

     occupation numbers 
     1.0000   1.0000   1.0000   1.0000   1.0000   1.0000   1.0000   1.0000
     0.0000   0.0000   0.0000   0.0000   0.0000   0.0000   0.0000   0.0000

          k = 0.2000 0.4157 0.0000 (  5498 PWs)   bands (ev):

   -16.4754 -16.3396 -10.6950 -10.6338  -8.8157  -8.7688  -4.3965  -3.5404
     2.8182   3.1681   7.5778   7.9627   9.2239  10.0139  10.2125  10.4213

     occupation numbers 
     1.0000   1.0000   1.0000   1.0000   1.0000   1.0000   1.0000   1.0000
     0.0000   0.0000   0.0000   0.0000   0.0000   0.0000   0.0000   0.0000

          k = 0.2000 0.4388 0.0000 (  5513 PWs)   bands (ev):

   -16.1492 -16.0170 -11.1185 -11.0493  -8.9934  -8.9415  -4.0361  -3.2128
     2.3697   2.7379   8.0322   8.3937   9.6814  10.2502  10.2800  10.7349

     occupation numbers 
     1.0000   1.0000   1.0000   1.0000   1.0000   1.0000   1.0000   1.0000
     0.0000   0.0000   0.0000   0.0000   0.0000   0.0000   0.0000   0.0000

          k = 0.2000 0.4619 0.0000 (  5510 PWs)   bands (ev):

   -15.8100 -15.6816 -11.5489 -11.4727  -9.1374  -9.0818  -3.6700  -2.8878
     1.9352   2.3166   8.5072   8.8319  10.1069  10.2363  10.4548  10.7759

     occupation numbers 
     1.0000   1.0000   1.0000   1.0000   1.0000   1.0000   1.0000   1.0000
     0.0000   0.0000   0.0000   0.0000   0.0000   0.0000   0.0000   0.0000

          k = 0.2000 0.4850 0.0000 (  5509 PWs)   bands (ev):

   -15.4600 -15.3361 -11.9790 -11.8973  -9.2517  -9.1932  -3.3057  -2.5758
     1.5274   1.9104   9.0010   9.2644  10.1967  10.3274  10.7066  10.9341

     occupation numbers 
     1.0000   1.0000   1.0000   1.0000   1.0000   1.0000   1.0000   1.0000
     0.0000   0.0000   0.0000   0.0000   0.0000   0.0000   0.0000   0.0000

          k = 0.2000 0.5081 0.0000 (  5506 PWs)   bands (ev):

   -15.1038 -14.9857 -12.3994 -12.3144  -9.3383  -9.2776  -2.9548  -2.2954
     1.1678   1.5295   9.5089   9.6608  10.1843  10.3757  10.8081  11.3905

     occupation numbers 
     1.0000   1.0000   1.0000   1.0000   1.0000   1.0000   1.0000   1.0000
     0.0000   0.0000   0.0000   0.0000   0.0000   0.0000   0.0000   0.0000

          k = 0.2000 0.5312 0.0000 (  5514 PWs)   bands (ev):

   -14.7518 -14.6427 -12.7951 -12.7109  -9.3992  -9.3373  -2.6383  -2.0746
     0.8891   1.1913   9.9101  10.0391  10.2561  10.3974  10.8393  11.8505

     occupation numbers 
     1.0000   1.0000   1.0000   1.0000   1.0000   1.0000   1.0000   1.0000
     0.0000   0.0000   0.0000   0.0000   0.0000   0.0000   0.0000   0.0000

          k = 0.2000 0.5543 0.0000 (  5522 PWs)   bands (ev):

   -14.4361 -14.3457 -13.1250 -13.0534  -9.4354  -9.3728  -2.3952  -1.9443
     0.7331   0.9254   9.9844  10.3371  10.4568  10.6092  10.8371  11.6357

     occupation numbers 
     1.0000   1.0000   1.0000   1.0000   1.0000   1.0000   1.0000   1.0000
     0.0000   0.0000   0.0000   0.0000   0.0000   0.0000   0.0000   0.0000

          k = 0.2000 0.5774 0.0000 (  5524 PWs)   bands (ev):

   -14.2766 -14.2125 -13.2671 -13.2238  -9.4474  -9.3844  -2.2970  -1.9079
     0.7068   0.7999   9.9935  10.3452  10.5599  10.8236  11.0670  11.1798

     occupation numbers 
     1.0000   1.0000   1.0000   1.0000   1.0000   1.0000   1.0000   1.0000
     0.0000   0.0000   0.0000   0.0000   0.0000   0.0000   0.0000   0.0000

          k = 0.2200 0.3811 0.0000 (  5514 PWs)   bands (ev):

   -16.7964 -16.6572 -10.2109 -10.1666  -8.6683  -8.6324  -4.7566  -3.8714
     3.3002   3.6208   7.1327   7.5313   8.7662   9.7259   9.8234  10.7402

     occupation numbers 
     1.0000   1.0000   1.0000   1.0000   1.0000   1.0000   1.0000   1.0000
     0.0000   0.0000   0.0000   0.0000   0.0000   0.0000   0.0000   0.0000

          k = 0.2200 0.4041 0.0000 (  5514 PWs)   bands (ev):

   -16.4933 -16.3573 -10.5497 -10.5015  -8.9487  -8.9102  -4.4133  -3.5535
     2.8724   3.2021   7.5529   7.9334   9.1983   9.9952  10.2279  10.8722

     occupation numbers 
     1.0000   1.0000   1.0000   1.0000   1.0000   1.0000   1.0000   1.0000
     0.0000   0.0000   0.0000   0.0000   0.0000   0.0000   0.0000   0.0000

          k = 0.2200 0.4272 0.0000 (  5499 PWs)   bands (ev):

   -16.1753 -16.0428 -10.9184 -10.8623  -9.1845  -9.1406  -4.0585  -3.2281
     2.4429   2.7862   7.9951   8.3487   9.6437  10.2316  10.6070  10.8937

     occupation numbers 
     1.0000   1.0000   1.0000   1.0000   1.0000   1.0000   1.0000   1.0000
     0.0000   0.0000   0.0000   0.0000   0.0000   0.0000   0.0000   0.0000

          k = 0.2200 0.4503 0.0000 (  5505 PWs)   bands (ev):

   -15.8442 -15.7153 -11.3097 -11.2450  -9.3765  -9.3266  -3.6953  -2.9006
     2.0182   2.3752   8.4580   8.7700  10.0645  10.4552  10.7383  11.1181

     occupation numbers 
     1.0000   1.0000   1.0000   1.0000   1.0000   1.0000   1.0000   1.0000
     0.0000   0.0000   0.0000   0.0000   0.0000   0.0000   0.0000   0.0000

          k = 0.2200 0.4734 0.0000 (  5500 PWs)   bands (ev):

   -15.5012 -15.3765 -11.7139 -11.6413  -9.5281  -9.4731  -3.3290  -2.5785
     1.6084   1.9738   8.9401   9.1846  10.3222  10.6990  10.8194  11.2273

     occupation numbers 
     1.0000   1.0000   1.0000   1.0000   1.0000   1.0000   1.0000   1.0000
     0.0000   0.0000   0.0000   0.0000   0.0000   0.0000   0.0000   0.0000

          k = 0.2200 0.4965 0.0000 (  5505 PWs)   bands (ev):

   -15.1495 -15.0299 -12.1210 -12.0425  -9.6441  -9.5853  -2.9681  -2.2747
     1.2287   1.5886   9.4384   9.5693  10.4055  10.6936  11.1846  11.3133

     occupation numbers 
     1.0000   1.0000   1.0000   1.0000   1.0000   1.0000   1.0000   1.0000
     0.0000   0.0000   0.0000   0.0000   0.0000   0.0000   0.0000   0.0000

          k = 0.2200 0.5196 0.0000 (  5504 PWs)   bands (ev):

   -14.7958 -14.6831 -12.5181 -12.4368  -9.7280  -9.6664  -2.6269  -2.0122
     0.9058   1.2317   9.8793   9.9531  10.4241  10.7059  11.1679  11.7712

     occupation numbers 
     1.0000   1.0000   1.0000   1.0000   1.0000   1.0000   1.0000   1.0000
     0.0000   0.0000   0.0000   0.0000   0.0000   0.0000   0.0000   0.0000

          k = 0.2200 0.5427 0.0000 (  5506 PWs)   bands (ev):

   -14.4572 -14.3567 -12.8805 -12.8035  -9.7827  -9.7192  -2.3334  -1.8246
     0.6816   0.9234  10.0809  10.4230  10.4630  10.7450  11.1547  11.9355

     occupation numbers 
     1.0000   1.0000   1.0000   1.0000   1.0000   1.0000   1.0000   1.0000
     0.0000   0.0000   0.0000   0.0000   0.0000   0.0000   0.0000   0.0000

          k = 0.2200 0.5658 0.0000 (  5502 PWs)   bands (ev):

   -14.1951 -14.1214 -13.1333 -13.0808  -9.8096  -9.7453  -2.1448  -1.7394
     0.6042   0.7008  10.1654  10.4237  10.7354  11.0026  11.1548  11.5288

     occupation numbers 
     1.0000   1.0000   1.0000   1.0000   1.0000   1.0000   1.0000   1.0000
     0.0000   0.0000   0.0000   0.0000   0.0000   0.0000   0.0000   0.0000

          k = 0.2400 0.4157 0.0000 (  5490 PWs)   bands (ev):

   -16.1841 -16.0514 -10.8379 -10.7910  -9.2576  -9.2204  -4.0656  -3.2331
     2.4686   2.8027   7.9827   8.3335   9.6307  10.2172  10.6204  11.2538

     occupation numbers 
     1.0000   1.0000   1.0000   1.0000   1.0000   1.0000   1.0000   1.0000
     0.0000   0.0000   0.0000   0.0000   0.0000   0.0000   0.0000   0.0000

          k = 0.2400 0.4388 0.0000 (  5488 PWs)   bands (ev):

   -15.8613 -15.7322 -11.1580 -11.1070  -9.5207  -9.4805  -3.7082  -2.9071
     2.0629   2.4053   8.4333   8.7383  10.0361  10.4254  10.9604  11.3604

     occupation numbers 
     1.0000   1.0000   1.0000   1.0000   1.0000   1.0000   1.0000   1.0000
     0.0000   0.0000   0.0000   0.0000   0.0000   0.0000   0.0000   0.0000

          k = 0.2400 0.4619 0.0000 (  5491 PWs)   bands (ev):

   -15.5260 -15.4009 -11.5082 -11.4490  -9.7338  -9.6877  -3.3435  -2.5803
     1.6617   2.0133   8.9032   9.1340  10.2696  10.7619  11.1179  11.4668

     occupation numbers 
     1.0000   1.0000   1.0000   1.0000   1.0000   1.0000   1.0000   1.0000
     0.0000   0.0000   0.0000   0.0000   0.0000   0.0000   0.0000   0.0000

          k = 0.2400 0.4850 0.0000 (  5488 PWs)   bands (ev):

   -15.1805 -15.0601 -11.8788 -11.8114  -9.8988  -9.8464  -2.9779  -2.2621
     1.2756   1.6316   9.3898   9.4969  10.3321  11.1261  11.2561  11.5564

     occupation numbers 
     1.0000   1.0000   1.0000   1.0000   1.0000   1.0000   1.0000   1.0000
     0.0000   0.0000   0.0000   0.0000   0.0000   0.0000   0.0000   0.0000

          k = 0.2400 0.5081 0.0000 (  5487 PWs)   bands (ev):

   -14.8293 -14.7145 -12.2573 -12.1836 -10.0200  -9.9629  -2.6214  -1.9679
     0.9235   1.2672   9.7885   9.8915  10.3340  11.1517  11.5891  11.7861

     occupation numbers 
     1.0000   1.0000   1.0000   1.0000   1.0000   1.0000   1.0000   1.0000
     0.0000   0.0000   0.0000   0.0000   0.0000   0.0000   0.0000   0.0000

          k = 0.2400 0.5312 0.0000 (  5492 PWs)   bands (ev):

   -14.4823 -14.3763 -12.6250 -12.5493 -10.1030 -10.0421  -2.2929  -1.7269
     0.6391   0.9345   9.9821  10.3165  10.3975  11.1737  11.6404  11.9623

     occupation numbers 
     1.0000   1.0000   1.0000   1.0000   1.0000   1.0000   1.0000   1.0000
     0.0000   0.0000   0.0000   0.0000   0.0000   0.0000   0.0000   0.0000

          k = 0.2400 0.5543 0.0000 (  5496 PWs)   bands (ev):

   -14.1700 -14.0815 -12.9392 -12.8742 -10.1514 -10.0884  -2.0322  -1.5793
     0.4759   0.6606  10.0794  10.2990  10.8912  11.1924  11.6583  11.8888

     occupation numbers 
     1.0000   1.0000   1.0000   1.0000   1.0000   1.0000   1.0000   1.0000
     0.0000   0.0000   0.0000   0.0000   0.0000   0.0000   0.0000   0.0000

          k = 0.2400 0.5774 0.0000 (  5498 PWs)   bands (ev):

   -14.0103 -13.9477 -13.0765 -13.0418 -10.1674 -10.1037  -1.9223  -1.5380
     0.4650   0.5107  10.1076  10.2919  11.1341  11.3920  11.4524  11.7047

     occupation numbers 
     1.0000   1.0000   1.0000   1.0000   1.0000   1.0000   1.0000   1.0000
     0.0000   0.0000   0.0000   0.0000   0.0000   0.0000   0.0000   0.0000

          k = 0.2600 0.4503 0.0000 (  5486 PWs)   bands (ev):

   -15.5342 -15.4089 -11.4249 -11.3753  -9.8126  -9.7742  -3.3483  -2.5810
     1.6802   2.0269   8.8909   9.1168  10.2492  10.7483  11.2080  11.7857

     occupation numbers 
     1.0000   1.0000   1.0000   1.0000   1.0000   1.0000   1.0000   1.0000
     0.0000   0.0000   0.0000   0.0000   0.0000   0.0000   0.0000   0.0000

          k = 0.2600 0.4734 0.0000 (  5483 PWs)   bands (ev):

   -15.1962 -15.0752 -11.7244 -11.6708 -10.0519 -10.0106  -2.9831  -2.2560
     1.3012   1.6541   9.3652   9.4588  10.2846  11.2144  11.3317  11.7893

     occupation numbers 
     1.0000   1.0000   1.0000   1.0000   1.0000   1.0000   1.0000   1.0000
     0.0000   0.0000   0.0000   0.0000   0.0000   0.0000   0.0000   0.0000

          k = 0.2600 0.4965 0.0000 (  5478 PWs)   bands (ev):

   -14.8501 -14.7343 -12.0524 -11.9914 -10.2360 -10.1887  -2.6191  -1.9416
     0.9367   1.2913   9.7261   9.8545  10.2591  11.4379  11.7038  11.8063

     occupation numbers 
     1.0000   1.0000   1.0000   1.0000   1.0000   1.0000   1.0000   1.0000
     0.0000   0.0000   0.0000   0.0000   0.0000   0.0000   0.0000   0.0000

          k = 0.2600 0.5196 0.0000 (  5481 PWs)   bands (ev):

   -14.5024 -14.3934 -12.3948 -12.3274 -10.3671 -10.3140  -2.2684  -1.6578
     0.6099   0.9475   9.8955  10.2154  10.3507  11.5626  11.8134  12.2806

     occupation numbers 
     1.0000   1.0000   1.0000   1.0000   1.0000   1.0000   1.0000   1.0000
     0.0000   0.0000   0.0000   0.0000   0.0000   0.0000   0.0000   0.0000

          k = 0.2600 0.5427 0.0000 (  5485 PWs)   bands (ev):

   -14.1686 -14.0709 -12.7240 -12.6569 -10.4506 -10.3933  -1.9562  -1.4423
     0.3644   0.6405   9.9779  10.1769  10.8420  11.5966  12.0073  12.1735

     occupation numbers 
     1.0000   1.0000   1.0000   1.0000   1.0000   1.0000   1.0000   1.0000
     0.0000   0.0000   0.0000   0.0000   0.0000   0.0000   0.0000   0.0000

          k = 0.2600 0.5658 0.0000 (  5486 PWs)   bands (ev):

   -13.9061 -13.8338 -12.9640 -12.9204 -10.4911 -10.4316  -1.7441  -1.3408
     0.2624   0.4168  10.0081  10.1542  11.2954  11.6010  11.8053  12.1834

     occupation numbers 
     1.0000   1.0000   1.0000   1.0000   1.0000   1.0000   1.0000   1.0000
     0.0000   0.0000   0.0000   0.0000   0.0000   0.0000   0.0000   0.0000

          k = 0.2800 0.4850 0.0000 (  5482 PWs)   bands (ev):

   -14.8572 -14.7409 -11.9692 -11.9174 -10.3180 -10.2794  -2.6186  -1.9330
     0.9416   1.2997   9.7045   9.8420  10.2323  11.4783  11.7144  12.0146

     occupation numbers 
     1.0000   1.0000   1.0000   1.0000   1.0000   1.0000   1.0000   1.0000
     0.0000   0.0000   0.0000   0.0000   0.0000   0.0000   0.0000   0.0000

          k = 0.2800 0.5081 0.0000 (  5485 PWs)   bands (ev):

   -14.5132 -14.4031 -12.2462 -12.1906 -10.5241 -10.4835  -2.2571  -1.6220
     0.5950   0.9552   9.8490  10.1598  10.3270  11.6991  11.9879  12.2718

     occupation numbers 
     1.0000   1.0000   1.0000   1.0000   1.0000   1.0000   1.0000   1.0000
     0.0000   0.0000   0.0000   0.0000   0.0000   0.0000   0.0000   0.0000

          k = 0.2800 0.5312 0.0000 (  5480 PWs)   bands (ev):

   -14.1729 -14.0708 -12.5439 -12.4833 -10.6680 -10.6226  -1.9128  -1.3478
     0.2878   0.6315   9.9098  10.0947  10.8077  11.9142  12.0630  12.3128

     occupation numbers 
     1.0000   1.0000   1.0000   1.0000   1.0000   1.0000   1.0000   1.0000
     0.0000   0.0000   0.0000   0.0000   0.0000   0.0000   0.0000   0.0000

          k = 0.2800 0.5543 0.0000 (  5473 PWs)   bands (ev):

   -13.8623 -13.7757 -12.8229 -12.7679 -10.7517 -10.7020  -1.6216  -1.1613
     0.0799   0.3550   9.9283  10.0486  11.2660  11.9019  12.1074  12.4122

     occupation numbers 
     1.0000   1.0000   1.0000   1.0000   1.0000   1.0000   1.0000   1.0000
     0.0000   0.0000   0.0000   0.0000   0.0000   0.0000   0.0000   0.0000

          k = 0.2800 0.5774 0.0000 (  5470 PWs)   bands (ev):

   -13.6961 -13.6352 -12.9522 -12.9323 -10.7791 -10.7277  -1.4870  -1.1098
     0.0270   0.2195   9.9319  10.0318  11.5855  11.7922  11.9851  12.5583

     occupation numbers 
     1.0000   1.0000   1.0000   1.0000   1.0000   1.0000   1.0000   1.0000
     0.0000   0.0000   0.0000   0.0000   0.0000   0.0000   0.0000   0.0000

          k = 0.3000 0.5196 0.0000 (  5476 PWs)   bands (ev):

   -14.1751 -14.0718 -12.4694 -12.4150 -10.7491 -10.7134  -1.8986  -1.3132
     0.2602   0.6287   9.8863  10.0659  10.7961  12.0254  12.0899  12.3442

     occupation numbers 
     1.0000   1.0000   1.0000   1.0000   1.0000   1.0000   1.0000   1.0000
     0.0000   0.0000   0.0000   0.0000   0.0000   0.0000   0.0000   0.0000

          k = 0.3000 0.5427 0.0000 (  5480 PWs)   bands (ev):

   -13.8478 -13.7543 -12.7179 -12.6618 -10.9023 -10.8669  -1.5596  -1.0428
    -0.0386   0.3230   9.8861   9.9915  11.2454  12.0767  12.2722  12.4539

     occupation numbers 
     1.0000   1.0000   1.0000   1.0000   1.0000   1.0000   1.0000   1.0000
     0.0000   0.0000   0.0000   0.0000   0.0000   0.0000   0.0000   0.0000

          k = 0.3000 0.5658 0.0000 (  5478 PWs)   bands (ev):

   -13.5760 -13.5041 -12.9349 -12.8933 -10.9794 -10.9423  -1.2979  -0.8927
    -0.2107   0.0860   9.8813   9.9489  11.6279  11.9950  12.2019  12.7364

     occupation numbers 
     1.0000   1.0000   1.0000   1.0000   1.0000   1.0000   1.0000   1.0000
     0.0000   0.0000   0.0000   0.0000   0.0000   0.0000   0.0000   0.0000

          k = 0.3200 0.5543 0.0000 (  5484 PWs)   bands (ev):

   -13.5408 -13.4586 -12.9237 -12.8669 -11.0513 -11.0248  -1.2263  -0.7672
    -0.3466   0.0361   9.8649   9.9186  11.6251  12.0917  12.2776  12.7753

     occupation numbers 
     1.0000   1.0000   1.0000   1.0000   1.0000   1.0000   1.0000   1.0143
     0.0000   0.0000   0.0000   0.0000   0.0000   0.0000   0.0000   0.0000

          k = 0.3200 0.5774 0.0000 (  5488 PWs)   bands (ev):

   -13.3369 -13.2777 -13.0756 -13.0328 -11.1023 -11.0795  -1.0262  -0.6638
    -0.4787  -0.1302   9.8611   9.8884  11.8204  12.0848  12.2213  12.9251

     occupation numbers 
     1.0000   1.0000   1.0000   1.0000   1.0000   1.0000   1.0000   0.9849
     0.0008   0.0000   0.0000   0.0000   0.0000   0.0000   0.0000   0.0000

     the Fermi energy is    -0.6038 ev
     (compare with:    -0.5713 eV, computed in scf)

     Writing all to output data dir ./tmp/C2L_AB_PBE_vdW.save/

     init_run     :      9.31s CPU      9.35s WALL (       1 calls)
     electrons    :     34.77s CPU     34.82s WALL (       1 calls)

     Called by init_run:
     wfcinit      :      0.00s CPU      0.00s WALL (       1 calls)
     wfcinit:atom :      0.04s CPU      0.04s WALL (     234 calls)
     wfcinit:wfcr :      1.65s CPU      1.65s WALL (     234 calls)
     potinit      :      8.96s CPU      8.99s WALL (       1 calls)
     hinit0       :      0.31s CPU      0.32s WALL (       1 calls)

     Called by electrons:
     c_bands      :     34.77s CPU     34.81s WALL (       1 calls)
     v_of_rho     :      8.96s CPU      8.99s WALL (       1 calls)
     v_h          :      0.00s CPU      0.00s WALL (       1 calls)
     v_xc         :      8.96s CPU      8.99s WALL (       1 calls)
     vdW_kernel   :      8.91s CPU      8.94s WALL (       1 calls)

     Called by c_bands:
     init_us_2    :      0.04s CPU      0.04s WALL (     234 calls)
     init_us_2:cp :      0.03s CPU      0.04s WALL (     234 calls)
     cegterg      :     32.82s CPU     32.82s WALL (     450 calls)

     Called by sum_band:

     Called by *egterg:
     cdiaghg      :      2.34s CPU      2.37s WALL (    6801 calls)
     cegterg:over :      2.52s CPU      2.58s WALL (    6567 calls)
     cegterg:upda :      2.20s CPU      2.10s WALL (    6567 calls)
     cegterg:last :      3.00s CPU      2.29s WALL (    3082 calls)
     h_psi        :     23.02s CPU     23.50s WALL (    7251 calls)
     g_psi        :      0.21s CPU      0.30s WALL (    6567 calls)

     Called by h_psi:
     h_psi:calbec :      1.60s CPU      1.65s WALL (    7251 calls)
     vloc_psi     :     19.25s CPU     19.92s WALL (    7251 calls)
     add_vuspsi   :      1.99s CPU      1.72s WALL (    7251 calls)

     General routines
     calbec       :      1.59s CPU      1.63s WALL (    7251 calls)
     fft          :      0.28s CPU      0.28s WALL (      61 calls)
     fftw         :     17.30s CPU     17.83s WALL (  108448 calls)
     davcio       :      0.00s CPU      0.05s WALL (     468 calls)

     Parallel routines

     PWSCF        :     44.67s CPU     45.04s WALL


   This run was terminated on:  16:11:50  15Apr2024            

=------------------------------------------------------------------------------=
   JOB DONE.
=------------------------------------------------------------------------------=
