
     Program PWSCF v.6.7MaX starts on 15Feb2024 at 11:24:37 

     This program is part of the open-source Quantum ESPRESSO suite
     for quantum simulation of materials; please cite
         "P. Giannozzi et al., J. Phys.:Condens. Matter 21 395502 (2009);
         "P. Giannozzi et al., J. Phys.:Condens. Matter 29 465901 (2017);
          URL http://www.quantum-espresso.org", 
     in publications or presentations arising from this work. More details at
     http://www.quantum-espresso.org/quote

     Parallel version (MPI), running on     1 processors

     MPI processes distributed on     1 nodes
     Waiting for input...
     Reading input from standard input

     Current dimensions of program PWSCF are:
     Max number of different atomic species (ntypx) = 10
     Max number of k-points (npk) =  40000
     Max angular momentum in pseudopotentials (lmaxx) =  3
     Message from routine read_pp_mesh:
     mesh size missing, using the one in header

     Subspace diagonalization in iterative solution of the eigenvalue problem:
     a serial algorithm will be used


     G-vector sticks info
     --------------------
     sticks:   dense  smooth     PW     G-vecs:    dense   smooth      PW
     Sum         361     361    109                32201    32201    5621



     bravais-lattice index     =            4
     lattice parameter (alat)  =       4.6203  a.u.
     unit-cell volume          =     512.4983 (a.u.)^3
     number of atoms/cell      =            4
     number of atomic types    =            1
     number of electrons       =        16.00
     number of Kohn-Sham states=            8
     kinetic-energy cutoff     =      60.0000  Ry
     charge density cutoff     =     240.0000  Ry
     scf convergence threshold =      1.0E-06
     mixing beta               =       0.7000
     number of iterations used =            8  plain     mixing
     energy convergence thresh.=      1.0E-04
     force convergence thresh. =      1.0E-03
     press convergence thresh. =      5.0E-01
     Exchange-correlation= PZ
                           (   1   1   0   0   0   0   0)
     nstep                     =           50


     celldm(1)=   4.620300  celldm(2)=   0.000000  celldm(3)=   6.000000
     celldm(4)=   0.000000  celldm(5)=   0.000000  celldm(6)=   0.000000

     crystal axes: (cart. coord. in units of alat)
               a(1) = (   1.000000   0.000000   0.000000 )  
               a(2) = (  -0.500000   0.866025   0.000000 )  
               a(3) = (   0.000000   0.000000   6.000000 )  

     reciprocal axes: (cart. coord. in units 2 pi/alat)
               b(1) = (  1.000000  0.577350 -0.000000 )  
               b(2) = (  0.000000  1.154701  0.000000 )  
               b(3) = (  0.000000 -0.000000  0.166667 )  


     PseudoPot. # 1 for C  read from file:
     ../../../Pseudo/LDA/C.upf
     MD5 check sum: 9ef9f0a1c6c947210c7947280cfb54e2
     Pseudo is Norm-conserving + core correction, Zval =  4.0
     Generated using ONCVPSP code by D. R. Hamann
     Using radial grid of 1230 points,  4 beta functions with: 
                l(1) =   0
                l(2) =   0
                l(3) =   1
                l(4) =   1

     atomic species   valence    mass     pseudopotential
        C              4.00    12.01100     C ( 1.00)

     24 Sym. Ops., with inversion, found (18 have fractional translation)


                                    s                        frac. trans.

      isym =  1     identity                                     

 cryst.   s( 1) = (     1          0          0      )
                  (     0          1          0      )
                  (     0          0          1      )

 cart.    s( 1) = (  1.0000000  0.0000000  0.0000000 )
                  (  0.0000000  1.0000000  0.0000000 )
                  (  0.0000000  0.0000000  1.0000000 )


      isym =  2     180 deg rotation - cart. axis [0,0,1]        

 cryst.   s( 2) = (    -1          0          0      )    f =( -0.3333333 )
                  (     0         -1          0      )       (  0.3333333 )
                  (     0          0          1      )       (  0.0000000 )

 cart.    s( 2) = ( -1.0000000  0.0000000  0.0000000 )    f =( -0.5000000 )
                  (  0.0000000 -1.0000000  0.0000000 )       (  0.2886751 )
                  (  0.0000000  0.0000000  1.0000000 )       (  0.0000000 )


      isym =  3     180 deg rotation - cart. axis [0,1,0]        

 cryst.   s( 3) = (    -1          0          0      )    f =(  0.0000000 )
                  (     1          1          0      )       (  0.0000000 )
                  (     0          0         -1      )       ( -0.2500000 )

 cart.    s( 3) = ( -1.0000000  0.0000000  0.0000000 )    f =(  0.0000000 )
                  (  0.0000000  1.0000000  0.0000000 )       (  0.0000000 )
                  (  0.0000000  0.0000000 -1.0000000 )       ( -1.5000000 )


      isym =  4     180 deg rotation - cart. axis [1,0,0]        

 cryst.   s( 4) = (     1          0          0      )    f =( -0.3333333 )
                  (    -1         -1          0      )       (  0.3333333 )
                  (     0          0         -1      )       ( -0.2500000 )

 cart.    s( 4) = (  1.0000000  0.0000000  0.0000000 )    f =( -0.5000000 )
                  (  0.0000000 -1.0000000  0.0000000 )       (  0.2886751 )
                  (  0.0000000  0.0000000 -1.0000000 )       ( -1.5000000 )


      isym =  5      60 deg rotation - cryst. axis [0,0,1]       

 cryst.   s( 5) = (     1          1          0      )    f =( -0.3333333 )
                  (    -1          0          0      )       (  0.3333333 )
                  (     0          0          1      )       (  0.0000000 )

 cart.    s( 5) = (  0.5000000 -0.8660254  0.0000000 )    f =( -0.5000000 )
                  (  0.8660254  0.5000000  0.0000000 )       (  0.2886751 )
                  (  0.0000000  0.0000000  1.0000000 )       (  0.0000000 )


      isym =  6      60 deg rotation - cryst. axis [0,0,-1]      

 cryst.   s( 6) = (     0         -1          0      )    f =( -0.3333333 )
                  (     1          1          0      )       (  0.3333333 )
                  (     0          0          1      )       (  0.0000000 )

 cart.    s( 6) = (  0.5000000  0.8660254  0.0000000 )    f =( -0.5000000 )
                  ( -0.8660254  0.5000000  0.0000000 )       (  0.2886751 )
                  (  0.0000000  0.0000000  1.0000000 )       (  0.0000000 )


      isym =  7     120 deg rotation - cryst. axis [0,0,1]       

 cryst.   s( 7) = (     0          1          0      )
                  (    -1         -1          0      )
                  (     0          0          1      )

 cart.    s( 7) = ( -0.5000000 -0.8660254  0.0000000 )
                  (  0.8660254 -0.5000000  0.0000000 )
                  (  0.0000000  0.0000000  1.0000000 )


      isym =  8     120 deg rotation - cryst. axis [0,0,-1]      

 cryst.   s( 8) = (    -1         -1          0      )
                  (     1          0          0      )
                  (     0          0          1      )

 cart.    s( 8) = ( -0.5000000  0.8660254  0.0000000 )
                  ( -0.8660254 -0.5000000  0.0000000 )
                  (  0.0000000  0.0000000  1.0000000 )


      isym =  9     180 deg rotation - cryst. axis [1,-1,0]      

 cryst.   s( 9) = (     0         -1          0      )    f =(  0.0000000 )
                  (    -1          0          0      )       (  0.0000000 )
                  (     0          0         -1      )       ( -0.2500000 )

 cart.    s( 9) = (  0.5000000 -0.8660254  0.0000000 )    f =(  0.0000000 )
                  ( -0.8660254 -0.5000000  0.0000000 )       (  0.0000000 )
                  (  0.0000000  0.0000000 -1.0000000 )       ( -1.5000000 )


      isym = 10     180 deg rotation - cryst. axis [2,1,0]       

 cryst.   s(10) = (     1          1          0      )    f =(  0.0000000 )
                  (     0         -1          0      )       (  0.0000000 )
                  (     0          0         -1      )       ( -0.2500000 )

 cart.    s(10) = (  0.5000000  0.8660254  0.0000000 )    f =(  0.0000000 )
                  (  0.8660254 -0.5000000  0.0000000 )       (  0.0000000 )
                  (  0.0000000  0.0000000 -1.0000000 )       ( -1.5000000 )


      isym = 11     180 deg rotation - cryst. axis [0,1,0]       

 cryst.   s(11) = (    -1         -1          0      )    f =( -0.3333333 )
                  (     0          1          0      )       (  0.3333333 )
                  (     0          0         -1      )       ( -0.2500000 )

 cart.    s(11) = ( -0.5000000 -0.8660254  0.0000000 )    f =( -0.5000000 )
                  ( -0.8660254  0.5000000  0.0000000 )       (  0.2886751 )
                  (  0.0000000  0.0000000 -1.0000000 )       ( -1.5000000 )


      isym = 12     180 deg rotation - cryst. axis [1,1,0]       

 cryst.   s(12) = (     0          1          0      )    f =( -0.3333333 )
                  (     1          0          0      )       (  0.3333333 )
                  (     0          0         -1      )       ( -0.2500000 )

 cart.    s(12) = ( -0.5000000  0.8660254  0.0000000 )    f =( -0.5000000 )
                  (  0.8660254  0.5000000  0.0000000 )       (  0.2886751 )
                  (  0.0000000  0.0000000 -1.0000000 )       ( -1.5000000 )


      isym = 13     inversion                                    

 cryst.   s(13) = (    -1          0          0      )    f =( -0.3333333 )
                  (     0         -1          0      )       (  0.3333333 )
                  (     0          0         -1      )       ( -0.2500000 )

 cart.    s(13) = ( -1.0000000  0.0000000  0.0000000 )    f =( -0.5000000 )
                  (  0.0000000 -1.0000000  0.0000000 )       (  0.2886751 )
                  (  0.0000000  0.0000000 -1.0000000 )       ( -1.5000000 )


      isym = 14     inv. 180 deg rotation - cart. axis [0,0,1]   

 cryst.   s(14) = (     1          0          0      )    f =(  0.0000000 )
                  (     0          1          0      )       (  0.0000000 )
                  (     0          0         -1      )       ( -0.2500000 )

 cart.    s(14) = (  1.0000000  0.0000000  0.0000000 )    f =(  0.0000000 )
                  (  0.0000000  1.0000000  0.0000000 )       (  0.0000000 )
                  (  0.0000000  0.0000000 -1.0000000 )       ( -1.5000000 )


      isym = 15     inv. 180 deg rotation - cart. axis [0,1,0]   

 cryst.   s(15) = (     1          0          0      )    f =( -0.3333333 )
                  (    -1         -1          0      )       (  0.3333333 )
                  (     0          0          1      )       (  0.0000000 )

 cart.    s(15) = (  1.0000000  0.0000000  0.0000000 )    f =( -0.5000000 )
                  (  0.0000000 -1.0000000  0.0000000 )       (  0.2886751 )
                  (  0.0000000  0.0000000  1.0000000 )       (  0.0000000 )


      isym = 16     inv. 180 deg rotation - cart. axis [1,0,0]   

 cryst.   s(16) = (    -1          0          0      )
                  (     1          1          0      )
                  (     0          0          1      )

 cart.    s(16) = ( -1.0000000  0.0000000  0.0000000 )
                  (  0.0000000  1.0000000  0.0000000 )
                  (  0.0000000  0.0000000  1.0000000 )


      isym = 17     inv.  60 deg rotation - cryst. axis [0,0,1]  

 cryst.   s(17) = (    -1         -1          0      )    f =(  0.0000000 )
                  (     1          0          0      )       (  0.0000000 )
                  (     0          0         -1      )       ( -0.2500000 )

 cart.    s(17) = ( -0.5000000  0.8660254  0.0000000 )    f =(  0.0000000 )
                  ( -0.8660254 -0.5000000  0.0000000 )       (  0.0000000 )
                  (  0.0000000  0.0000000 -1.0000000 )       ( -1.5000000 )


      isym = 18     inv.  60 deg rotation - cryst. axis [0,0,-1] 

 cryst.   s(18) = (     0          1          0      )    f =(  0.0000000 )
                  (    -1         -1          0      )       (  0.0000000 )
                  (     0          0         -1      )       ( -0.2500000 )

 cart.    s(18) = ( -0.5000000 -0.8660254  0.0000000 )    f =(  0.0000000 )
                  (  0.8660254 -0.5000000  0.0000000 )       (  0.0000000 )
                  (  0.0000000  0.0000000 -1.0000000 )       ( -1.5000000 )


      isym = 19     inv. 120 deg rotation - cryst. axis [0,0,1]  

 cryst.   s(19) = (     0         -1          0      )    f =( -0.3333333 )
                  (     1          1          0      )       (  0.3333333 )
                  (     0          0         -1      )       ( -0.2500000 )

 cart.    s(19) = (  0.5000000  0.8660254  0.0000000 )    f =( -0.5000000 )
                  ( -0.8660254  0.5000000  0.0000000 )       (  0.2886751 )
                  (  0.0000000  0.0000000 -1.0000000 )       ( -1.5000000 )


      isym = 20     inv. 120 deg rotation - cryst. axis [0,0,-1] 

 cryst.   s(20) = (     1          1          0      )    f =( -0.3333333 )
                  (    -1          0          0      )       (  0.3333333 )
                  (     0          0         -1      )       ( -0.2500000 )

 cart.    s(20) = (  0.5000000 -0.8660254  0.0000000 )    f =( -0.5000000 )
                  (  0.8660254  0.5000000  0.0000000 )       (  0.2886751 )
                  (  0.0000000  0.0000000 -1.0000000 )       ( -1.5000000 )


      isym = 21     inv. 180 deg rotation - cryst. axis [1,-1,0] 

 cryst.   s(21) = (     0          1          0      )    f =( -0.3333333 )
                  (     1          0          0      )       (  0.3333333 )
                  (     0          0          1      )       (  0.0000000 )

 cart.    s(21) = ( -0.5000000  0.8660254  0.0000000 )    f =( -0.5000000 )
                  (  0.8660254  0.5000000  0.0000000 )       (  0.2886751 )
                  (  0.0000000  0.0000000  1.0000000 )       (  0.0000000 )


      isym = 22     inv. 180 deg rotation - cryst. axis [2,1,0]  

 cryst.   s(22) = (    -1         -1          0      )    f =( -0.3333333 )
                  (     0          1          0      )       (  0.3333333 )
                  (     0          0          1      )       (  0.0000000 )

 cart.    s(22) = ( -0.5000000 -0.8660254  0.0000000 )    f =( -0.5000000 )
                  ( -0.8660254  0.5000000  0.0000000 )       (  0.2886751 )
                  (  0.0000000  0.0000000  1.0000000 )       (  0.0000000 )


      isym = 23     inv. 180 deg rotation - cryst. axis [0,1,0]  

 cryst.   s(23) = (     1          1          0      )
                  (     0         -1          0      )
                  (     0          0          1      )

 cart.    s(23) = (  0.5000000  0.8660254  0.0000000 )
                  (  0.8660254 -0.5000000  0.0000000 )
                  (  0.0000000  0.0000000  1.0000000 )


      isym = 24     inv. 180 deg rotation - cryst. axis [1,1,0]  

 cryst.   s(24) = (     0         -1          0      )
                  (    -1          0          0      )
                  (     0          0          1      )

 cart.    s(24) = (  0.5000000 -0.8660254  0.0000000 )
                  ( -0.8660254 -0.5000000  0.0000000 )
                  (  0.0000000  0.0000000  1.0000000 )


     point group D_6h(6/mmm)
     there are 12 classes
     the character table:

       E     2C6   2C3   C2    3C2'  3C2'' i     2S3   2S6   s_h   3s_d  3s_v 
A_1g   1.00  1.00  1.00  1.00  1.00  1.00  1.00  1.00  1.00  1.00  1.00  1.00
A_2g   1.00  1.00  1.00  1.00 -1.00 -1.00  1.00  1.00  1.00  1.00 -1.00 -1.00
B_1g   1.00 -1.00  1.00 -1.00  1.00 -1.00  1.00 -1.00  1.00 -1.00  1.00 -1.00
B_2g   1.00 -1.00  1.00 -1.00 -1.00  1.00  1.00 -1.00  1.00 -1.00 -1.00  1.00
E_1g   2.00  1.00 -1.00 -2.00  0.00  0.00  2.00  1.00 -1.00 -2.00  0.00  0.00
E_2g   2.00 -1.00 -1.00  2.00  0.00  0.00  2.00 -1.00 -1.00  2.00  0.00  0.00
A_1u   1.00  1.00  1.00  1.00  1.00  1.00 -1.00 -1.00 -1.00 -1.00 -1.00 -1.00
A_2u   1.00  1.00  1.00  1.00 -1.00 -1.00 -1.00 -1.00 -1.00 -1.00  1.00  1.00
B_1u   1.00 -1.00  1.00 -1.00  1.00 -1.00 -1.00  1.00 -1.00  1.00 -1.00  1.00
B_2u   1.00 -1.00  1.00 -1.00 -1.00  1.00 -1.00  1.00 -1.00  1.00  1.00 -1.00
E_1u   2.00  1.00 -1.00 -2.00  0.00  0.00 -2.00 -1.00  1.00  2.00  0.00  0.00
E_2u   2.00 -1.00 -1.00  2.00  0.00  0.00 -2.00  1.00  1.00 -2.00  0.00  0.00

     the symmetry operations in each class and the name of the first element:

     E        1
          identity                                               
     2C6      5    6
           60 deg rotation - cryst. axis [0,0,1]                 
     2C3      7    8
          120 deg rotation - cryst. axis [0,0,1]                 
     C2       2
          180 deg rotation - cart. axis [0,0,1]                  
     3C2'     4   12   11
          180 deg rotation - cart. axis [1,0,0]                  
     3C2''    3    9   10
          180 deg rotation - cart. axis [0,1,0]                  
     i       13
          inversion                                              
     2S3     17   18
          inv.  60 deg rotation - cryst. axis [0,0,1]            
     2S6     19   20
          inv. 120 deg rotation - cryst. axis [0,0,1]            
     s_h     14
          inv. 180 deg rotation - cart. axis [0,0,1]             
     3s_d    16   24   23
          inv. 180 deg rotation - cart. axis [1,0,0]             
     3s_v    15   21   22
          inv. 180 deg rotation - cart. axis [0,1,0]             

   Cartesian axes

     site n.     atom                  positions (alat units)
         1           C   tau(   1) = (   0.0000000   0.0000000   0.0000000  )
         2           C   tau(   2) = (  -0.0000000   0.5773503   0.0000000  )
         3           C   tau(   3) = (   0.0000000   0.0000000   1.5000000  )
         4           C   tau(   4) = (  -0.0000000   0.5773503   1.5000000  )

   Crystallographic axes

     site n.     atom                  positions (cryst. coord.)
         1           C   tau(   1) = (  0.0000000  0.0000000  0.0000000  )
         2           C   tau(   2) = (  0.3333333  0.6666667  0.0000000  )
         3           C   tau(   3) = (  0.0000000  0.0000000  0.2500000  )
         4           C   tau(   4) = (  0.3333333  0.6666667  0.2500000  )

     number of k points=    19  Marzari-Vanderbilt smearing, width (Ry)=  0.0100
                       cart. coord. in units 2pi/alat
        k(    1) = (   0.0000000   0.0000000   0.0000000), wk =   0.0138889
        k(    2) = (   0.0000000   0.0962250   0.0000000), wk =   0.0833333
        k(    3) = (   0.0000000   0.1924501   0.0000000), wk =   0.0833333
        k(    4) = (   0.0000000   0.2886751   0.0000000), wk =   0.0833333
        k(    5) = (   0.0000000   0.3849002   0.0000000), wk =   0.0833333
        k(    6) = (   0.0000000   0.4811252   0.0000000), wk =   0.0833333
        k(    7) = (   0.0000000  -0.5773503   0.0000000), wk =   0.0416667
        k(    8) = (   0.0833333   0.1443376   0.0000000), wk =   0.0833333
        k(    9) = (   0.0833333   0.2405626   0.0000000), wk =   0.1666667
        k(   10) = (   0.0833333   0.3367877   0.0000000), wk =   0.1666667
        k(   11) = (   0.0833333   0.4330127   0.0000000), wk =   0.1666667
        k(   12) = (   0.0833333   0.5292377   0.0000000), wk =   0.1666667
        k(   13) = (   0.1666667   0.2886751   0.0000000), wk =   0.0833333
        k(   14) = (   0.1666667   0.3849002   0.0000000), wk =   0.1666667
        k(   15) = (   0.1666667   0.4811252   0.0000000), wk =   0.1666667
        k(   16) = (   0.1666667   0.5773503   0.0000000), wk =   0.0833333
        k(   17) = (   0.2500000   0.4330127   0.0000000), wk =   0.0833333
        k(   18) = (   0.2500000   0.5292377   0.0000000), wk =   0.1666667
        k(   19) = (   0.3333333   0.5773503   0.0000000), wk =   0.0277778

                       cryst. coord.
        k(    1) = (   0.0000000   0.0000000   0.0000000), wk =   0.0138889
        k(    2) = (   0.0000000   0.0833333   0.0000000), wk =   0.0833333
        k(    3) = (   0.0000000   0.1666667   0.0000000), wk =   0.0833333
        k(    4) = (   0.0000000   0.2500000   0.0000000), wk =   0.0833333
        k(    5) = (   0.0000000   0.3333333   0.0000000), wk =   0.0833333
        k(    6) = (   0.0000000   0.4166667   0.0000000), wk =   0.0833333
        k(    7) = (   0.0000000  -0.5000000   0.0000000), wk =   0.0416667
        k(    8) = (   0.0833333   0.0833333   0.0000000), wk =   0.0833333
        k(    9) = (   0.0833333   0.1666667   0.0000000), wk =   0.1666667
        k(   10) = (   0.0833333   0.2500000   0.0000000), wk =   0.1666667
        k(   11) = (   0.0833333   0.3333333   0.0000000), wk =   0.1666667
        k(   12) = (   0.0833333   0.4166667   0.0000000), wk =   0.1666667
        k(   13) = (   0.1666667   0.1666667   0.0000000), wk =   0.0833333
        k(   14) = (   0.1666667   0.2500000   0.0000000), wk =   0.1666667
        k(   15) = (   0.1666667   0.3333333   0.0000000), wk =   0.1666667
        k(   16) = (   0.1666667   0.4166667   0.0000000), wk =   0.0833333
        k(   17) = (   0.2500000   0.2500000   0.0000000), wk =   0.0833333
        k(   18) = (   0.2500000   0.3333333   0.0000000), wk =   0.1666667
        k(   19) = (   0.3333333   0.3333333   0.0000000), wk =   0.0277778

     Dense  grid:    32201 G-vectors     FFT dimensions: (  24,  24, 144)

     Dynamical RAM for                 wfc:       0.49 MB

     Dynamical RAM for     wfc (w. buffer):       9.82 MB

     Dynamical RAM for           str. fact:       0.49 MB

     Dynamical RAM for           local pot:       0.00 MB

     Dynamical RAM for          nlocal pot:       1.96 MB

     Dynamical RAM for                qrad:       0.71 MB

     Dynamical RAM for          rho,v,vnew:       3.37 MB

     Dynamical RAM for               rhoin:       1.12 MB

     Dynamical RAM for            rho*nmix:       7.86 MB

     Dynamical RAM for           G-vectors:       2.09 MB

     Dynamical RAM for          h,s,v(r/c):       0.01 MB

     Dynamical RAM for          <psi|beta>:       0.00 MB

     Dynamical RAM for                 psi:       0.98 MB

     Dynamical RAM for                hpsi:       0.98 MB

     Dynamical RAM for      wfcinit/wfcrot:       1.97 MB

     Estimated static dynamical RAM per process >      31.58 MB

     Estimated max dynamical RAM per process >      33.56 MB

     Initial potential from superposition of free atoms

     starting charge   15.99985, renormalised to   16.00000

     negative rho (up, down):  9.089E-06 0.000E+00
     Starting wfcs are   16 randomized atomic wfcs

     total cpu time spent up to now is        1.6 secs

     Self-consistent Calculation

     iteration #  1     ecut=    60.00 Ry     beta= 0.70
     Davidson diagonalization with overlap
     ethr =  1.00E-02,  avg # of iterations =  2.1

     negative rho (up, down):  1.465E-08 0.000E+00

     total cpu time spent up to now is        2.7 secs

     total energy              =     -48.17931471 Ry
     estimated scf accuracy    <       0.38387022 Ry

     iteration #  2     ecut=    60.00 Ry     beta= 0.70
     Davidson diagonalization with overlap
     ethr =  2.40E-03,  avg # of iterations =  2.0

     total cpu time spent up to now is        3.6 secs

     total energy              =     -48.23030472 Ry
     estimated scf accuracy    <       0.00503914 Ry

     iteration #  3     ecut=    60.00 Ry     beta= 0.70
     Davidson diagonalization with overlap
     ethr =  3.15E-05,  avg # of iterations =  3.4

     total cpu time spent up to now is        4.7 secs

     total energy              =     -48.23309147 Ry
     estimated scf accuracy    <       0.00049521 Ry

     iteration #  4     ecut=    60.00 Ry     beta= 0.70
     Davidson diagonalization with overlap
     ethr =  3.10E-06,  avg # of iterations =  3.2

     total cpu time spent up to now is        5.9 secs

     total energy              =     -48.23325483 Ry
     estimated scf accuracy    <       0.00018856 Ry

     iteration #  5     ecut=    60.00 Ry     beta= 0.70
     Davidson diagonalization with overlap
     ethr =  1.18E-06,  avg # of iterations =  2.4

     total cpu time spent up to now is        6.8 secs

     total energy              =     -48.23329861 Ry
     estimated scf accuracy    <       0.00000797 Ry

     iteration #  6     ecut=    60.00 Ry     beta= 0.70
     Davidson diagonalization with overlap
     ethr =  4.98E-08,  avg # of iterations =  5.1

     total cpu time spent up to now is        8.1 secs

     total energy              =     -48.23330523 Ry
     estimated scf accuracy    <       0.00000135 Ry

     iteration #  7     ecut=    60.00 Ry     beta= 0.70
     Davidson diagonalization with overlap
     ethr =  8.43E-09,  avg # of iterations =  2.7

     total cpu time spent up to now is        9.2 secs

     End of self-consistent calculation

          k = 0.0000 0.0000 0.0000 (  4005 PWs)   bands (ev):

   -18.8087 -18.7311  -7.3919  -6.7508  -2.2422  -2.2422  -2.2393  -2.2393

     occupation numbers 
     1.0000   1.0000   1.0000   1.0000   1.0000   1.0000   1.0000   1.0000

          k = 0.0000 0.0962 0.0000 (  4020 PWs)   bands (ev):

   -18.6429 -18.5661  -7.1887  -6.5522  -2.8921  -2.8841  -2.5955  -2.5888

     occupation numbers 
     1.0000   1.0000   1.0000   1.0000   1.0000   1.0000   1.0000   1.0000

          k = 0.0000 0.1925 0.0000 (  4038 PWs)   bands (ev):

   -18.1471 -18.0730  -6.5848  -5.9616  -4.5319  -4.5162  -3.4154  -3.4068

     occupation numbers 
     1.0000   1.0000   1.0000   1.0000   1.0000   1.0000   1.0000   1.0000

          k = 0.0000 0.2887 0.0000 (  4016 PWs)   bands (ev):

   -17.3269 -17.2567  -6.6398  -6.6156  -5.5972  -4.9983  -4.3234  -4.3129

     occupation numbers 
     1.0000   1.0000   1.0000   1.0000   1.0000   1.0000   1.0000   1.0000

          k = 0.0000 0.3849 0.0000 (  4040 PWs)   bands (ev):

   -16.1931 -16.1290  -8.8613  -8.8304  -5.0789  -5.0687  -4.2762  -3.7153

     occupation numbers 
     1.0000   1.0000   1.0000   1.0000   1.0000   1.0000   1.0000   1.0000

          k = 0.0000 0.4811 0.0000 (  4028 PWs)   bands (ev):

   -14.7711 -14.7134 -10.9916 -10.9519  -5.5659  -5.5543  -2.7769  -2.2805

     occupation numbers 
     1.0000   1.0000   1.0000   1.0000   1.0000   1.0000   1.0000   1.0000

          k = 0.0000-0.5774 0.0000 (  4024 PWs)   bands (ev):

   -13.4084 -13.3538 -12.5992 -12.5544  -5.7335  -5.7200  -1.8655  -1.4335

     occupation numbers 
     1.0000   1.0000   1.0000   1.0000   1.0000   1.0000   1.0000   1.0000

          k = 0.0833 0.1443 0.0000 (  4045 PWs)   bands (ev):

   -18.3122 -18.2372  -6.7854  -6.1579  -3.9225  -3.9086  -3.2969  -3.2883

     occupation numbers 
     1.0000   1.0000   1.0000   1.0000   1.0000   1.0000   1.0000   1.0000

          k = 0.0833 0.2406 0.0000 (  4025 PWs)   bands (ev):

   -17.6541 -17.5825  -5.9882  -5.6338  -5.6136  -5.3795  -4.3238  -4.3117

     occupation numbers 
     1.0000   1.0000   1.0000   1.0000   1.0000   1.0000   1.0000   1.0000

          k = 0.0833 0.3368 0.0000 (  4029 PWs)   bands (ev):

   -16.6773 -16.6104  -7.7228  -7.6955  -5.2310  -5.2175  -4.8275  -4.2501

     occupation numbers 
     1.0000   1.0000   1.0000   1.0000   1.0000   1.0000   1.0000   1.0000

          k = 0.0833 0.4330 0.0000 (  4009 PWs)   bands (ev):

   -15.3977 -15.3370  -9.8698  -9.8343  -5.8797  -5.8651  -3.3840  -2.8555

     occupation numbers 
     1.0000   1.0000   1.0000   1.0000   1.0000   1.0000   1.0000   1.0000

          k = 0.0833 0.5292 0.0000 (  4026 PWs)   bands (ev):

   -13.8729 -13.8185 -11.8603 -11.8178  -6.2158  -6.2011  -1.9920  -1.5377

     occupation numbers 
     1.0000   1.0000   1.0000   1.0000   1.0000   1.0000   1.0000   1.0000

          k = 0.1667 0.2887 0.0000 (  4032 PWs)   bands (ev):

   -16.8397 -16.7721  -6.9489  -6.9254  -5.7284  -5.7108  -5.0145  -4.4311

     occupation numbers 
     1.0000   1.0000   1.0000   1.0000   1.0000   1.0000   1.0000   1.0000

          k = 0.1667 0.3849 0.0000 (  4020 PWs)   bands (ev):

   -15.7167 -15.6543  -8.6934  -8.6625  -6.7990  -6.7785  -3.7077  -3.1636

     occupation numbers 
     1.0000   1.0000   1.0000   1.0000   1.0000   1.0000   1.0000   1.0000

          k = 0.1667 0.4811 0.0000 (  4002 PWs)   bands (ev):

   -14.3145 -14.2585 -10.6422 -10.6042  -7.3731  -7.3515  -2.2086  -1.7234

     occupation numbers 
     1.0000   1.0000   1.0000   1.0000   1.0000   1.0000   1.0000   1.0000

          k = 0.1667 0.5774 0.0000 (  4032 PWs)   bands (ev):

   -12.9911 -12.9394 -12.1708 -12.1288  -7.5582  -7.5365  -1.2525  -0.8273

     occupation numbers 
     1.0000   1.0000   1.0000   1.0000   1.0000   1.0000   1.0000   1.0000

          k = 0.2500 0.4330 0.0000 (  3996 PWs)   bands (ev):

   -14.4683 -14.4117  -9.6957  -9.6612  -8.3419  -8.3153  -2.3033  -1.8061

     occupation numbers 
     1.0000   1.0000   1.0000   1.0000   1.0000   1.0000   1.0000   1.0000

          k = 0.2500 0.5292 0.0000 (  4003 PWs)   bands (ev):

   -13.0044 -12.9543 -11.1639 -11.1238  -9.0485  -9.0194  -0.8455  -0.4100

     occupation numbers 
     1.0000   1.0000   1.0000   1.0000   1.0000   1.0000   1.0000   1.0000

          k = 0.3333 0.5774 0.0000 (  3942 PWs)   bands (ev):

   -11.7436 -11.7436 -11.6991 -11.6991 -10.0485 -10.0182   0.5627   0.5627

     occupation numbers 
     1.0000   1.0000   1.0000   1.0000   1.0000   1.0000   1.0000   1.0000

     the Fermi energy is     0.6880 ev

!    total energy              =     -48.23330556 Ry
     estimated scf accuracy    <       0.00000001 Ry
     smearing contrib. (-TS)   =       0.00004531 Ry
     internal energy E=F+TS    =     -48.23335087 Ry

     The total energy is F=E-TS. E is the sum of the following terms:
     one-electron contribution =    -263.42151797 Ry
     hartree contribution      =     136.18877630 Ry
     xc contribution           =     -17.14687948 Ry
     ewald contribution        =      96.14627028 Ry

     convergence has been achieved in   7 iterations

     Forces acting on atoms (cartesian axes, Ry/au):

     atom    1 type  1   force =     0.00000000    0.00000000    0.00058540
     atom    2 type  1   force =    -0.00000000   -0.00000000    0.00058540
     atom    3 type  1   force =    -0.00000000   -0.00000000   -0.00058540
     atom    4 type  1   force =     0.00000000    0.00000000   -0.00058540
     The non-local contrib.  to forces
     atom    1 type  1   force =     0.00000000   -0.00000000   -0.00006639
     atom    2 type  1   force =    -0.00000000    0.00000000   -0.00006639
     atom    3 type  1   force =     0.00000000   -0.00000000    0.00006639
     atom    4 type  1   force =     0.00000000    0.00000000    0.00006639
     The ionic contribution  to forces
     atom    1 type  1   force =    -0.00000001    0.00000001  -10.87635474
     atom    2 type  1   force =     0.00000001   -0.00000001  -10.87635474
     atom    3 type  1   force =    -0.00000001    0.00000001   10.87635474
     atom    4 type  1   force =     0.00000001   -0.00000001   10.87635474
     The local contribution  to forces
     atom    1 type  1   force =     0.00000000   -0.00000000   10.87717422
     atom    2 type  1   force =     0.00000001   -0.00000000   10.87717422
     atom    3 type  1   force =     0.00000000   -0.00000000  -10.87717422
     atom    4 type  1   force =     0.00000001   -0.00000000  -10.87717422
     The core correction contribution to forces
     atom    1 type  1   force =     0.00000000   -0.00000000   -0.00004004
     atom    2 type  1   force =    -0.00000000    0.00000000   -0.00004004
     atom    3 type  1   force =     0.00000000   -0.00000000    0.00004004
     atom    4 type  1   force =    -0.00000000    0.00000000    0.00004004
     The Hubbard contrib.    to forces
     atom    1 type  1   force =     0.00000000    0.00000000    0.00000000
     atom    2 type  1   force =     0.00000000    0.00000000    0.00000000
     atom    3 type  1   force =     0.00000000    0.00000000    0.00000000
     atom    4 type  1   force =     0.00000000    0.00000000    0.00000000
     The SCF correction term to forces
     atom    1 type  1   force =     0.00000000   -0.00000000   -0.00012765
     atom    2 type  1   force =    -0.00000000    0.00000000   -0.00012765
     atom    3 type  1   force =     0.00000000   -0.00000000    0.00012765
     atom    4 type  1   force =    -0.00000000    0.00000000    0.00012765

     Total force =     0.001171     Total SCF correction =     0.000255
     SCF correction compared to forces is large: reduce conv_thr to get better values


     Computing stress (Cartesian axis) and pressure

          total   stress  (Ry/bohr**3)                   (kbar)     P=      -16.61
  -0.00007574   0.00000000   0.00000000          -11.14        0.00        0.00
   0.00000000  -0.00007574  -0.00000000            0.00      -11.14       -0.00
   0.00000000   0.00000000  -0.00018726            0.00        0.00      -27.55

     kinetic stress (kbar)   6306.47     -0.00      0.00
                               -0.00   6306.47     -0.00
                                0.00     -0.00   6897.82

     local   stress (kbar) -81777.43      0.00      0.00
                                0.00 -81777.43     -0.00
                                0.00     -0.00  83772.67

     nonloc. stress (kbar)   -769.29     -0.00      0.00
                               -0.00   -769.29      0.00
                                0.00      0.00   -642.02

     hartree stress (kbar)  38627.93     -0.00     -0.00
                               -0.00  38627.93      0.00
                               -0.00      0.00 -38164.87

     exc-cor stress (kbar)   -487.99      0.00      0.00
                                0.00   -487.99      0.00
                                0.00      0.00   -487.99

     corecor stress (kbar)   -949.04      0.00      0.00
                                0.00   -949.04     -0.00
                                0.00     -0.00   -924.09

     ewald   stress (kbar)  39038.22     -0.00      0.00
                               -0.00  39038.22     -0.00
                                0.00     -0.00 -50479.07

     hubbard stress (kbar)      0.00      0.00      0.00
                                0.00      0.00      0.00
                                0.00      0.00      0.00

     DFT-D   stress (kbar)      0.00      0.00      0.00
                                0.00      0.00      0.00
                                0.00      0.00      0.00

     XDM     stress (kbar)      0.00      0.00      0.00
                                0.00      0.00      0.00
                                0.00      0.00      0.00

     dft-nl  stress (kbar)      0.00      0.00      0.00
                                0.00      0.00      0.00
                                0.00      0.00      0.00

     TS-vdW  stress (kbar)      0.00      0.00      0.00
                                0.00      0.00      0.00
                                0.00      0.00      0.00



     BFGS Geometry Optimization
     Energy error            =      0.0E+00
     Gradient error          =      5.9E-04
     Cell gradient error     =      1.9E-04


     number of scf cycles    =   1
     number of bfgs steps    =   0

     enthalpy new            =     -48.2333055633 Ry

     new trust radius        =       0.0211963185 bohr
     new conv_thr            =       0.0000010000 Ry

     new unit-cell volume =    508.16920 a.u.^3 (    75.30291 Ang^3 )
     density =      1.05944 g/cm^3

CELL_PARAMETERS (alat=  4.62030000)
   0.998106593  -0.000000000   0.000000000
  -0.499053297   0.864385666   0.000000000
   0.000000000  -0.000000000   5.971911051

ATOMIC_POSITIONS (crystal)
C             0.0000000000        0.0000000000        0.0000211171
C             0.3333333330        0.6666666670        0.0000211171
C            -0.0000000000       -0.0000000000        0.2499788829
C             0.3333333330        0.6666666670        0.2499788829



     Writing output data file ./tmp/graphene.save/
     NEW-OLD atomic charge density approx. for the potential

     negative rho (up, down):  5.031E-07 0.000E+00
     extrapolated charge   15.86370, renormalised to   16.00000

     total cpu time spent up to now is       14.0 secs

     Self-consistent Calculation

     iteration #  1     ecut=    60.00 Ry     beta= 0.70
     Davidson diagonalization with overlap
     ethr =  1.00E-06,  avg # of iterations =  6.4

     negative rho (up, down):  2.633E-08 0.000E+00

     total cpu time spent up to now is       17.3 secs

     total energy              =     -48.21976197 Ry
     estimated scf accuracy    <       0.01027957 Ry

     iteration #  2     ecut=    60.00 Ry     beta= 0.70
     Davidson diagonalization with overlap
     ethr =  6.42E-05,  avg # of iterations =  3.6

     total cpu time spent up to now is       19.7 secs

     total energy              =     -48.23103004 Ry
     estimated scf accuracy    <       0.04507262 Ry

     iteration #  3     ecut=    60.00 Ry     beta= 0.70
     Davidson diagonalization with overlap
     ethr =  6.42E-05,  avg # of iterations =  2.1

     total cpu time spent up to now is       21.6 secs

     total energy              =     -48.23361452 Ry
     estimated scf accuracy    <       0.00590590 Ry

     iteration #  4     ecut=    60.00 Ry     beta= 0.70
     Davidson diagonalization with overlap
     ethr =  3.69E-05,  avg # of iterations =  2.0

     total cpu time spent up to now is       23.3 secs

     total energy              =     -48.23370780 Ry
     estimated scf accuracy    <       0.00151163 Ry

     iteration #  5     ecut=    60.00 Ry     beta= 0.70
     Davidson diagonalization with overlap
     ethr =  9.45E-06,  avg # of iterations =  2.3

     total cpu time spent up to now is       25.0 secs

     total energy              =     -48.23386392 Ry
     estimated scf accuracy    <       0.00037933 Ry

     iteration #  6     ecut=    60.00 Ry     beta= 0.70
     Davidson diagonalization with overlap
     ethr =  2.37E-06,  avg # of iterations =  1.8

     total cpu time spent up to now is       26.5 secs

     total energy              =     -48.23373959 Ry
     estimated scf accuracy    <       0.00031762 Ry

     iteration #  7     ecut=    60.00 Ry     beta= 0.70
     Davidson diagonalization with overlap
     ethr =  1.99E-06,  avg # of iterations =  2.1

     total cpu time spent up to now is       28.3 secs

     total energy              =     -48.23381599 Ry
     estimated scf accuracy    <       0.00001979 Ry

     iteration #  8     ecut=    60.00 Ry     beta= 0.70
     Davidson diagonalization with overlap
     ethr =  1.24E-07,  avg # of iterations =  3.2

     total cpu time spent up to now is       30.5 secs

     total energy              =     -48.23383760 Ry
     estimated scf accuracy    <       0.00008680 Ry

     iteration #  9     ecut=    60.00 Ry     beta= 0.70
     Davidson diagonalization with overlap
     ethr =  1.24E-07,  avg # of iterations =  1.0

     total cpu time spent up to now is       31.9 secs

     total energy              =     -48.23381384 Ry
     estimated scf accuracy    <       0.00008523 Ry

     iteration # 10     ecut=    60.00 Ry     beta= 0.70
     Davidson diagonalization with overlap
     ethr =  1.24E-07,  avg # of iterations =  2.0

     total cpu time spent up to now is       33.8 secs

     total energy              =     -48.23380798 Ry
     estimated scf accuracy    <       0.00002349 Ry

     iteration # 11     ecut=    60.00 Ry     beta= 0.70
     Davidson diagonalization with overlap
     ethr =  1.24E-07,  avg # of iterations =  2.1

     total cpu time spent up to now is       35.7 secs

     End of self-consistent calculation

          k = 0.0000 0.0000 0.0000 (  4005 PWs)   bands (ev):

   -18.8023 -18.7217  -7.3857  -6.7290  -2.1868  -2.1868  -2.1835  -2.1835

     occupation numbers 
     1.0000   1.0000   1.0000   1.0000   1.0000   1.0000   1.0000   1.0000

          k = 0.0000 0.0964 0.0000 (  4020 PWs)   bands (ev):

   -18.6360 -18.5562  -7.1816  -6.5296  -2.8381  -2.8297  -2.5420  -2.5350

     occupation numbers 
     1.0000   1.0000   1.0000   1.0000   1.0000   1.0000   1.0000   1.0000

          k = 0.0000 0.1928 0.0000 (  4038 PWs)   bands (ev):

   -18.1385 -18.0616  -6.5748  -5.9363  -4.4821  -4.4658  -3.3665  -3.3575

     occupation numbers 
     1.0000   1.0000   1.0000   1.0000   1.0000   1.0000   1.0000   1.0000

          k = 0.0000 0.2892 0.0000 (  4016 PWs)   bands (ev):

   -17.3155 -17.2427  -6.5964  -6.5712  -5.5825  -4.9687  -4.2793  -4.2684

     occupation numbers 
     1.0000   1.0000   1.0000   1.0000   1.0000   1.0000   1.0000   1.0000

          k = 0.0000 0.3856 0.0000 (  4040 PWs)   bands (ev):

   -16.1777 -16.1111  -8.8250  -8.7928  -5.0386  -5.0280  -4.2549  -3.6797

     occupation numbers 
     1.0000   1.0000   1.0000   1.0000   1.0000   1.0000   1.0000   1.0000

          k = 0.0000 0.4820 0.0000 (  4028 PWs)   bands (ev):

   -14.7502 -14.6902 -10.9630 -10.9217  -5.5279  -5.5160  -2.7475  -2.2378

     occupation numbers 
     1.0000   1.0000   1.0000   1.0000   1.0000   1.0000   1.0000   1.0000

          k =-0.0000-0.5784-0.0000 (  4024 PWs)   bands (ev):

   -13.3750 -13.3183 -12.5837 -12.5373  -5.6964  -5.6825  -1.8303  -1.3861

     occupation numbers 
     1.0000   1.0000   1.0000   1.0000   1.0000   1.0000   1.0000   1.0000

          k = 0.0835 0.1446 0.0000 (  4045 PWs)   bands (ev):

   -18.3041 -18.2262  -6.7763  -6.1334  -3.8706  -3.8562  -3.2475  -3.2384

     occupation numbers 
     1.0000   1.0000   1.0000   1.0000   1.0000   1.0000   1.0000   1.0000

          k = 0.0835 0.2410 0.0000 (  4025 PWs)   bands (ev):

   -17.6438 -17.5694  -5.9754  -5.5865  -5.5656  -5.3516  -4.2795  -4.2670

     occupation numbers 
     1.0000   1.0000   1.0000   1.0000   1.0000   1.0000   1.0000   1.0000

          k = 0.0835 0.3374 0.0000 (  4029 PWs)   bands (ev):

   -16.6636 -16.5942  -7.6823  -7.6539  -5.1907  -5.1767  -4.8090  -4.2170

     occupation numbers 
     1.0000   1.0000   1.0000   1.0000   1.0000   1.0000   1.0000   1.0000

          k = 0.0835 0.4338 0.0000 (  4009 PWs)   bands (ev):

   -15.3794 -15.3164  -9.8366  -9.7998  -5.8423  -5.8271  -3.3581  -2.8158

     occupation numbers 
     1.0000   1.0000   1.0000   1.0000   1.0000   1.0000   1.0000   1.0000

          k = 0.0835 0.5302 0.0000 (  4026 PWs)   bands (ev):

   -13.8471 -13.7906 -11.8361 -11.7919  -6.1798  -6.1645  -1.9579  -1.4911

     occupation numbers 
     1.0000   1.0000   1.0000   1.0000   1.0000   1.0000   1.0000   1.0000

          k = 0.1670 0.2892 0.0000 (  4032 PWs)   bands (ev):

   -16.8267 -16.7564  -6.9035  -6.8790  -5.6916  -5.6733  -4.9970  -4.3988

     occupation numbers 
     1.0000   1.0000   1.0000   1.0000   1.0000   1.0000   1.0000   1.0000

          k = 0.1670 0.3856 0.0000 (  4020 PWs)   bands (ev):

   -15.6997 -15.6349  -8.6541  -8.6220  -6.7657  -6.7444  -3.6836  -3.1254

     occupation numbers 
     1.0000   1.0000   1.0000   1.0000   1.0000   1.0000   1.0000   1.0000

          k = 0.1670 0.4820 0.0000 (  4002 PWs)   bands (ev):

   -14.2919 -14.2338 -10.6111 -10.5716  -7.3410  -7.3186  -2.1764  -1.6781

     occupation numbers 
     1.0000   1.0000   1.0000   1.0000   1.0000   1.0000   1.0000   1.0000

          k = 0.1670 0.5784 0.0000 (  4032 PWs)   bands (ev):

   -12.9571 -12.9033 -12.1520 -12.1083  -7.5266  -7.5039  -1.2143  -0.7772

     occupation numbers 
     1.0000   1.0000   1.0000   1.0000   1.0000   1.0000   1.0000   1.0000

          k = 0.2505 0.4338 0.0000 (  3996 PWs)   bands (ev):

   -14.4465 -14.3878  -9.6558  -9.6199  -8.3179  -8.2903  -2.2719  -1.7614

     occupation numbers 
     1.0000   1.0000   1.0000   1.0000   1.0000   1.0000   1.0000   1.0000

          k = 0.2505 0.5302 0.0000 (  4003 PWs)   bands (ev):

   -12.9755 -12.9235 -11.1322 -11.0905  -9.0256  -8.9953  -0.8059  -0.3582

     occupation numbers 
     1.0000   1.0000   1.0000   1.0000   1.0000   1.0000   1.0000   1.0000

          k = 0.3340 0.5784 0.0000 (  3942 PWs)   bands (ev):

   -11.7075 -11.7075 -11.6612 -11.6612 -10.0381 -10.0066   0.6095   0.6095

     occupation numbers 
     1.0000   1.0000   1.0000   1.0000   1.0000   1.0000   1.0000   1.0000

     the Fermi energy is     0.7348 ev

!    total energy              =     -48.23381073 Ry
     estimated scf accuracy    <       0.00000089 Ry
     smearing contrib. (-TS)   =       0.00004531 Ry
     internal energy E=F+TS    =     -48.23385604 Ry

     The total energy is F=E-TS. E is the sum of the following terms:
     one-electron contribution =    -262.87147453 Ry
     hartree contribution      =     135.94104394 Ry
     xc contribution           =     -17.16534807 Ry
     ewald contribution        =      95.86192263 Ry

     convergence has been achieved in  11 iterations

     Forces acting on atoms (cartesian axes, Ry/au):

     atom    1 type  1   force =    -0.00000000    0.00000000    0.00054527
     atom    2 type  1   force =    -0.00000000   -0.00000000    0.00054527
     atom    3 type  1   force =     0.00000000    0.00000000   -0.00054527
     atom    4 type  1   force =     0.00000000    0.00000000   -0.00054527
     The non-local contrib.  to forces
     atom    1 type  1   force =    -0.00000000   -0.00000000    0.00099164
     atom    2 type  1   force =    -0.00000000   -0.00000000    0.00099164
     atom    3 type  1   force =    -0.00000000   -0.00000000   -0.00099164
     atom    4 type  1   force =     0.00000000    0.00000000   -0.00099164
     The ionic contribution  to forces
     atom    1 type  1   force =    -0.00000001    0.00000001  -10.91952322
     atom    2 type  1   force =     0.00000001   -0.00000001  -10.91952322
     atom    3 type  1   force =    -0.00000001    0.00000001   10.91952322
     atom    4 type  1   force =     0.00000001   -0.00000001   10.91952322
     The local contribution  to forces
     atom    1 type  1   force =     0.00000000   -0.00000000   10.91720736
     atom    2 type  1   force =     0.00000001   -0.00000000   10.91720736
     atom    3 type  1   force =     0.00000000   -0.00000000  -10.91720736
     atom    4 type  1   force =     0.00000001   -0.00000000  -10.91720736
     The core correction contribution to forces
     atom    1 type  1   force =     0.00000000   -0.00000000   -0.00010925
     atom    2 type  1   force =    -0.00000000    0.00000000   -0.00010925
     atom    3 type  1   force =     0.00000000   -0.00000000    0.00010925
     atom    4 type  1   force =    -0.00000000    0.00000000    0.00010925
     The Hubbard contrib.    to forces
     atom    1 type  1   force =     0.00000000    0.00000000    0.00000000
     atom    2 type  1   force =     0.00000000    0.00000000    0.00000000
     atom    3 type  1   force =     0.00000000    0.00000000    0.00000000
     atom    4 type  1   force =     0.00000000    0.00000000    0.00000000
     The SCF correction term to forces
     atom    1 type  1   force =    -0.00000000    0.00000000    0.00197874
     atom    2 type  1   force =     0.00000000   -0.00000000    0.00197874
     atom    3 type  1   force =    -0.00000000    0.00000000   -0.00197874
     atom    4 type  1   force =     0.00000000   -0.00000000   -0.00197874

     Total force =     0.001091     Total SCF correction =     0.003957
     SCF correction compared to forces is large: reduce conv_thr to get better values


     Computing stress (Cartesian axis) and pressure

          total   stress  (Ry/bohr**3)                   (kbar)     P=       -8.13
   0.00000612  -0.00000000  -0.00000000            0.90       -0.00       -0.00
  -0.00000000   0.00000612   0.00000000           -0.00        0.90        0.00
  -0.00000000   0.00000000  -0.00017810           -0.00        0.00      -26.20

     kinetic stress (kbar)   6375.89      0.00      0.00
                                0.00   6375.89      0.00
                                0.00      0.00   6966.42

     local   stress (kbar) -82340.81      0.00     -0.00
                                0.00 -82340.81     -0.00
                               -0.00     -0.00  84374.78

     nonloc. stress (kbar)   -780.21      0.00      0.00
                                0.00   -780.21      0.00
                               -0.00     -0.00   -649.73

     hartree stress (kbar)  38886.86      0.00     -0.00
                                0.00  38886.86      0.00
                               -0.00      0.00 -38421.43

     exc-cor stress (kbar)   -493.48      0.00      0.00
                                0.00   -493.48      0.00
                                0.00      0.00   -493.48

     corecor stress (kbar)   -957.66      0.00      0.00
                                0.00   -957.66      0.00
                                0.00      0.00   -932.28

     ewald   stress (kbar)  39310.32     -0.00      0.00
                               -0.00  39310.32     -0.00
                                0.00     -0.00 -50870.48

     hubbard stress (kbar)      0.00      0.00      0.00
                                0.00      0.00      0.00
                                0.00      0.00      0.00

     DFT-D   stress (kbar)      0.00      0.00      0.00
                                0.00      0.00      0.00
                                0.00      0.00      0.00

     XDM     stress (kbar)      0.00      0.00      0.00
                                0.00      0.00      0.00
                                0.00      0.00      0.00

     dft-nl  stress (kbar)      0.00      0.00      0.00
                                0.00      0.00      0.00
                                0.00      0.00      0.00

     TS-vdW  stress (kbar)      0.00      0.00      0.00
                                0.00      0.00      0.00
                                0.00      0.00      0.00


     Energy error            =      5.1E-04
     Gradient error          =      5.5E-04
     Cell gradient error     =      1.8E-04


     number of scf cycles    =   2
     number of bfgs steps    =   1

     enthalpy old            =     -48.2333055633 Ry
     enthalpy new            =     -48.2338107319 Ry

     CASE: enthalpy_new < enthalpy_old

     new trust radius        =       0.0233264691 bohr
     new conv_thr            =       0.0000000100 Ry

     new unit-cell volume =    504.79508 a.u.^3 (    74.80291 Ang^3 )
     density =      1.06652 g/cm^3

CELL_PARAMETERS (alat=  4.62030000)
   0.997370964  -0.000000000  -0.000000000
  -0.498685482   0.863748592  -0.000000000
  -0.000000000  -0.000000000   5.941013207

ATOMIC_POSITIONS (crystal)
C            -0.0000000000        0.0000000000        0.0000440475
C             0.3333333330        0.6666666670        0.0000440475
C            -0.0000000000       -0.0000000000        0.2499559525
C             0.3333333330        0.6666666670        0.2499559525



     Writing output data file ./tmp/graphene.save/
     NEW-OLD atomic charge density approx. for the potential

     negative rho (up, down):  3.827E-07 0.000E+00
     extrapolated charge   15.89305, renormalised to   16.00000

     total cpu time spent up to now is       40.5 secs

     Self-consistent Calculation

     iteration #  1     ecut=    60.00 Ry     beta= 0.70
     Davidson diagonalization with overlap
     ethr =  1.00E-06,  avg # of iterations =  6.0

     negative rho (up, down):  2.085E-08 0.000E+00

     total cpu time spent up to now is       43.7 secs

     total energy              =     -48.22514611 Ry
     estimated scf accuracy    <       0.00678240 Ry

     iteration #  2     ecut=    60.00 Ry     beta= 0.70
     Davidson diagonalization with overlap
     ethr =  4.24E-05,  avg # of iterations =  3.6

     total cpu time spent up to now is       46.1 secs

     total energy              =     -48.23241832 Ry
     estimated scf accuracy    <       0.02911320 Ry

     iteration #  3     ecut=    60.00 Ry     beta= 0.70
     Davidson diagonalization with overlap
     ethr =  4.24E-05,  avg # of iterations =  2.1

     total cpu time spent up to now is       48.0 secs

     total energy              =     -48.23416603 Ry
     estimated scf accuracy    <       0.00376757 Ry

     iteration #  4     ecut=    60.00 Ry     beta= 0.70
     Davidson diagonalization with overlap
     ethr =  2.35E-05,  avg # of iterations =  2.0

     total cpu time spent up to now is       49.8 secs

     total energy              =     -48.23417730 Ry
     estimated scf accuracy    <       0.00105993 Ry

     iteration #  5     ecut=    60.00 Ry     beta= 0.70
     Davidson diagonalization with overlap
     ethr =  6.62E-06,  avg # of iterations =  2.5

     total cpu time spent up to now is       51.5 secs

     total energy              =     -48.23428565 Ry
     estimated scf accuracy    <       0.00026062 Ry

     iteration #  6     ecut=    60.00 Ry     beta= 0.70
     Davidson diagonalization with overlap
     ethr =  1.63E-06,  avg # of iterations =  2.0

     total cpu time spent up to now is       53.0 secs

     total energy              =     -48.23418924 Ry
     estimated scf accuracy    <       0.00021116 Ry

     iteration #  7     ecut=    60.00 Ry     beta= 0.70
     Davidson diagonalization with overlap
     ethr =  1.32E-06,  avg # of iterations =  2.5

     total cpu time spent up to now is       54.9 secs

     total energy              =     -48.23430855 Ry
     estimated scf accuracy    <       0.00001632 Ry

     iteration #  8     ecut=    60.00 Ry     beta= 0.70
     Davidson diagonalization with overlap
     ethr =  1.02E-07,  avg # of iterations =  5.0

     total cpu time spent up to now is       57.6 secs

     total energy              =     -48.23414493 Ry
     estimated scf accuracy    <       0.00034138 Ry

     iteration #  9     ecut=    60.00 Ry     beta= 0.70
     Davidson diagonalization with overlap
     ethr =  1.02E-07,  avg # of iterations =  5.1

     total cpu time spent up to now is       60.5 secs

     total energy              =     -48.23427765 Ry
     estimated scf accuracy    <       0.00005572 Ry

     iteration # 10     ecut=    60.00 Ry     beta= 0.70
     Davidson diagonalization with overlap
     ethr =  1.02E-07,  avg # of iterations =  1.1

     total cpu time spent up to now is       61.9 secs

     total energy              =     -48.23423740 Ry
     estimated scf accuracy    <       0.00007851 Ry

     iteration # 11     ecut=    60.00 Ry     beta= 0.70
     Davidson diagonalization with overlap
     ethr =  1.02E-07,  avg # of iterations =  3.2

     total cpu time spent up to now is       64.0 secs

     total energy              =     -48.23425045 Ry
     estimated scf accuracy    <       0.00000046 Ry

     iteration # 12     ecut=    60.00 Ry     beta= 0.70
     Davidson diagonalization with overlap
     ethr =  2.87E-09,  avg # of iterations =  3.6

     total cpu time spent up to now is       65.9 secs

     total energy              =     -48.23425055 Ry
     estimated scf accuracy    <       0.00000068 Ry

     iteration # 13     ecut=    60.00 Ry     beta= 0.70
     Davidson diagonalization with overlap
     ethr =  2.87E-09,  avg # of iterations =  1.0

     total cpu time spent up to now is       67.4 secs

     total energy              =     -48.23425031 Ry
     estimated scf accuracy    <       0.00000057 Ry

     iteration # 14     ecut=    60.00 Ry     beta= 0.70
     Davidson diagonalization with overlap
     ethr =  2.87E-09,  avg # of iterations =  2.0

     total cpu time spent up to now is       69.3 secs

     total energy              =     -48.23425039 Ry
     estimated scf accuracy    <       0.00000002 Ry

     iteration # 15     ecut=    60.00 Ry     beta= 0.70
     Davidson diagonalization with overlap
     ethr =  1.03E-10,  avg # of iterations =  3.5

     total cpu time spent up to now is       71.5 secs

     End of self-consistent calculation

          k = 0.0000 0.0000 0.0000 (  4005 PWs)   bands (ev):

   -18.7832 -18.6989  -7.3724  -6.6968  -2.1474  -2.1474  -2.1436  -2.1436

     occupation numbers 
     1.0000   1.0000   1.0000   1.0000   1.0000   1.0000   1.0000   1.0000

          k = 0.0000 0.0965 0.0000 (  4020 PWs)   bands (ev):

   -18.6166 -18.5332  -7.1679  -6.4970  -2.7993  -2.7903  -2.5034  -2.4960

     occupation numbers 
     1.0000   1.0000   1.0000   1.0000   1.0000   1.0000   1.0000   1.0000

          k = 0.0000 0.1930 0.0000 (  4038 PWs)   bands (ev):

   -18.1185 -18.0380  -6.5600  -5.9028  -4.4451  -4.4279  -3.3297  -3.3203

     occupation numbers 
     1.0000   1.0000   1.0000   1.0000   1.0000   1.0000   1.0000   1.0000

          k = 0.0000 0.2894 0.0000 (  4016 PWs)   bands (ev):

   -17.2943 -17.2181  -6.5620  -6.5355  -5.5657  -4.9337  -4.2444  -4.2329

     occupation numbers 
     1.0000   1.0000   1.0000   1.0000   1.0000   1.0000   1.0000   1.0000

          k = 0.0000 0.3859 0.0000 (  4040 PWs)   bands (ev):

   -16.1549 -16.0852  -8.7935  -8.7596  -5.0052  -4.9940  -4.2353  -3.6427

     occupation numbers 
     1.0000   1.0000   1.0000   1.0000   1.0000   1.0000   1.0000   1.0000

          k = 0.0000 0.4824 0.0000 (  4028 PWs)   bands (ev):

   -14.7251 -14.6623 -10.9346 -10.8913  -5.4954  -5.4829  -2.7244  -2.1985

     occupation numbers 
     1.0000   1.0000   1.0000   1.0000   1.0000   1.0000   1.0000   1.0000

          k =-0.0000-0.5789-0.0000 (  4024 PWs)   bands (ev):

   -13.3450 -13.2856 -12.5605 -12.5120  -5.6642  -5.6498  -1.8046  -1.3455

     occupation numbers 
     1.0000   1.0000   1.0000   1.0000   1.0000   1.0000   1.0000   1.0000

          k = 0.0836 0.1447 0.0000 (  4045 PWs)   bands (ev):

   -18.2843 -18.2028  -6.7619  -6.1002  -3.8327  -3.8175  -3.2105  -3.2008

     occupation numbers 
     1.0000   1.0000   1.0000   1.0000   1.0000   1.0000   1.0000   1.0000

          k = 0.0836 0.2412 0.0000 (  4025 PWs)   bands (ev):

   -17.6231 -17.5453  -5.9594  -5.5506  -5.5286  -5.3171  -4.2446  -4.2314

     occupation numbers 
     1.0000   1.0000   1.0000   1.0000   1.0000   1.0000   1.0000   1.0000

          k = 0.0836 0.3377 0.0000 (  4029 PWs)   bands (ev):

   -16.6415 -16.5689  -7.6491  -7.6192  -5.1574  -5.1426  -4.7907  -4.1807

     occupation numbers 
     1.0000   1.0000   1.0000   1.0000   1.0000   1.0000   1.0000   1.0000

          k = 0.0836 0.4342 0.0000 (  4009 PWs)   bands (ev):

   -15.3554 -15.2894  -9.8064  -9.7678  -5.8100  -5.7941  -3.3366  -2.7774

     occupation numbers 
     1.0000   1.0000   1.0000   1.0000   1.0000   1.0000   1.0000   1.0000

          k = 0.0836 0.5306 0.0000 (  4026 PWs)   bands (ev):

   -13.8201 -13.7610 -11.8095 -11.7631  -6.1481  -6.1320  -1.9328  -1.4506

     occupation numbers 
     1.0000   1.0000   1.0000   1.0000   1.0000   1.0000   1.0000   1.0000

          k = 0.1671 0.2894 0.0000 (  4032 PWs)   bands (ev):

   -16.8048 -16.7313  -6.8683  -6.8426  -5.6596  -5.6404  -4.9790  -4.3629

     occupation numbers 
     1.0000   1.0000   1.0000   1.0000   1.0000   1.0000   1.0000   1.0000

          k = 0.1671 0.3859 0.0000 (  4020 PWs)   bands (ev):

   -15.6761 -15.6084  -8.6214  -8.5877  -6.7352  -6.7129  -3.6629  -3.0875

     occupation numbers 
     1.0000   1.0000   1.0000   1.0000   1.0000   1.0000   1.0000   1.0000

          k = 0.1671 0.4824 0.0000 (  4002 PWs)   bands (ev):

   -14.2662 -14.2053 -10.5817 -10.5403  -7.3110  -7.2874  -2.1521  -1.6379

     occupation numbers 
     1.0000   1.0000   1.0000   1.0000   1.0000   1.0000   1.0000   1.0000

          k = 0.1671 0.5789 0.0000 (  4032 PWs)   bands (ev):

   -12.9268 -12.8704 -12.1276 -12.0818  -7.4967  -7.4729  -1.1874  -0.7356

     occupation numbers 
     1.0000   1.0000   1.0000   1.0000   1.0000   1.0000   1.0000   1.0000

          k = 0.2507 0.4342 0.0000 (  3996 PWs)   bands (ev):

   -14.4211 -14.3596  -9.6229  -9.5852  -8.2911  -8.2621  -2.2481  -1.7214

     occupation numbers 
     1.0000   1.0000   1.0000   1.0000   1.0000   1.0000   1.0000   1.0000

          k = 0.2507 0.5306 0.0000 (  4003 PWs)   bands (ev):

   -12.9472 -12.8927 -11.1026 -11.0589  -8.9992  -8.9675  -0.7785  -0.3159

     occupation numbers 
     1.0000   1.0000   1.0000   1.0000   1.0000   1.0000   1.0000   1.0000

          k = 0.3342 0.5789 0.0000 (  3942 PWs)   bands (ev):

   -11.6762 -11.6762 -11.6277 -11.6277 -10.0167  -9.9837   0.6398   0.6398

     occupation numbers 
     1.0000   1.0000   1.0000   1.0000   1.0000   1.0000   1.0000   1.0000

     the Fermi energy is     0.7652 ev

!    total energy              =     -48.23425040 Ry
     estimated scf accuracy    <          3.1E-09 Ry
     smearing contrib. (-TS)   =       0.00004531 Ry
     internal energy E=F+TS    =     -48.23429570 Ry

     The total energy is F=E-TS. E is the sum of the following terms:
     one-electron contribution =    -261.54234706 Ry
     hartree contribution      =     135.30152641 Ry
     xc contribution           =     -17.17280141 Ry
     ewald contribution        =      95.17932635 Ry

     convergence has been achieved in  15 iterations

     Forces acting on atoms (cartesian axes, Ry/au):

     atom    1 type  1   force =     0.00000000    0.00000000    0.00046703
     atom    2 type  1   force =    -0.00000000   -0.00000000    0.00046703
     atom    3 type  1   force =    -0.00000000   -0.00000000   -0.00046703
     atom    4 type  1   force =    -0.00000000    0.00000000   -0.00046703
     The non-local contrib.  to forces
     atom    1 type  1   force =     0.00000000    0.00000000   -0.00011501
     atom    2 type  1   force =     0.00000000    0.00000000   -0.00011501
     atom    3 type  1   force =    -0.00000000   -0.00000000    0.00011501
     atom    4 type  1   force =    -0.00000000   -0.00000000    0.00011501
     The ionic contribution  to forces
     atom    1 type  1   force =    -0.00000001    0.00000001  -10.93767536
     atom    2 type  1   force =     0.00000001   -0.00000001  -10.93767536
     atom    3 type  1   force =    -0.00000001    0.00000001   10.93767536
     atom    4 type  1   force =     0.00000001   -0.00000001   10.93767536
     The local contribution  to forces
     atom    1 type  1   force =    -0.00000000   -0.00000000   10.93817371
     atom    2 type  1   force =     0.00000001   -0.00000000   10.93817371
     atom    3 type  1   force =    -0.00000000   -0.00000000  -10.93817371
     atom    4 type  1   force =     0.00000001   -0.00000000  -10.93817371
     The core correction contribution to forces
     atom    1 type  1   force =     0.00000000   -0.00000000   -0.00004007
     atom    2 type  1   force =    -0.00000000    0.00000000   -0.00004007
     atom    3 type  1   force =     0.00000000   -0.00000000    0.00004007
     atom    4 type  1   force =    -0.00000000    0.00000000    0.00004007
     The Hubbard contrib.    to forces
     atom    1 type  1   force =     0.00000000    0.00000000    0.00000000
     atom    2 type  1   force =     0.00000000    0.00000000    0.00000000
     atom    3 type  1   force =     0.00000000    0.00000000    0.00000000
     atom    4 type  1   force =     0.00000000    0.00000000    0.00000000
     The SCF correction term to forces
     atom    1 type  1   force =     0.00000000    0.00000000    0.00012376
     atom    2 type  1   force =    -0.00000000   -0.00000000    0.00012376
     atom    3 type  1   force =     0.00000000    0.00000000   -0.00012376
     atom    4 type  1   force =    -0.00000000   -0.00000000   -0.00012376

     Total force =     0.000934     Total SCF correction =     0.000248
     SCF correction compared to forces is large: reduce conv_thr to get better values


     Computing stress (Cartesian axis) and pressure

          total   stress  (Ry/bohr**3)                   (kbar)     P=       -4.50
   0.00003937  -0.00000000   0.00000000            5.79       -0.00        0.00
  -0.00000000   0.00003937   0.00000000           -0.00        5.79        0.00
  -0.00000000  -0.00000000  -0.00017056           -0.00       -0.00      -25.09

     kinetic stress (kbar)   6424.89     -0.00     -0.00
                               -0.00   6424.89      0.00
                               -0.00      0.00   7017.33

     local   stress (kbar) -82513.90      0.00      0.00
                                0.00 -82513.90     -0.00
                                0.00     -0.00  84569.99

     nonloc. stress (kbar)   -787.27     -0.00     -0.00
                               -0.00   -787.27     -0.00
                               -0.00     -0.00   -654.81

     hartree stress (kbar)  38960.99      0.00      0.00
                                0.00  38960.99      0.00
                                0.00      0.00 -38493.03

     exc-cor stress (kbar)   -497.31      0.00      0.00
                                0.00   -497.31      0.00
                                0.00      0.00   -497.31

     corecor stress (kbar)   -964.28      0.00      0.00
                                0.00   -964.28     -0.00
                                0.00     -0.00   -938.63

     ewald   stress (kbar)  39382.67     -0.00      0.00
                               -0.00  39382.67     -0.00
                                0.00     -0.00 -51028.62

     hubbard stress (kbar)      0.00      0.00      0.00
                                0.00      0.00      0.00
                                0.00      0.00      0.00

     DFT-D   stress (kbar)      0.00      0.00      0.00
                                0.00      0.00      0.00
                                0.00      0.00      0.00

     XDM     stress (kbar)      0.00      0.00      0.00
                                0.00      0.00      0.00
                                0.00      0.00      0.00

     dft-nl  stress (kbar)      0.00      0.00      0.00
                                0.00      0.00      0.00
                                0.00      0.00      0.00

     TS-vdW  stress (kbar)      0.00      0.00      0.00
                                0.00      0.00      0.00
                                0.00      0.00      0.00


     Energy error            =      4.4E-04
     Gradient error          =      4.7E-04
     Cell gradient error     =      1.7E-04


     number of scf cycles    =   3
     number of bfgs steps    =   2

     enthalpy old            =     -48.2338107319 Ry
     enthalpy new            =     -48.2342503981 Ry

     CASE: enthalpy_new < enthalpy_old

     new trust radius        =       0.0350547171 bohr
     new conv_thr            =       0.0000000100 Ry

     new unit-cell volume =    500.33503 a.u.^3 (    74.14200 Ang^3 )
     density =      1.07603 g/cm^3

CELL_PARAMETERS (alat=  4.62030000)
   0.996851021  -0.000000000  -0.000000000
  -0.498425511   0.863298308  -0.000000000
   0.000000000   0.000000000   5.894666441

ATOMIC_POSITIONS (crystal)
C             0.0000000000        0.0000000000        0.0000761176
C             0.3333333330        0.6666666670        0.0000761176
C            -0.0000000000       -0.0000000000        0.2499238824
C             0.3333333330        0.6666666670        0.2499238824



     Writing output data file ./tmp/graphene.save/
     NEW-OLD atomic charge density approx. for the potential

     negative rho (up, down):  6.318E-07 0.000E+00
     extrapolated charge   15.85738, renormalised to   16.00000

     total cpu time spent up to now is       76.4 secs

     Self-consistent Calculation

     iteration #  1     ecut=    60.00 Ry     beta= 0.70
     Davidson diagonalization with overlap
     ethr =  1.00E-06,  avg # of iterations =  6.4

     negative rho (up, down):  5.805E-08 0.000E+00

     total cpu time spent up to now is       79.6 secs

     total energy              =     -48.21955493 Ry
     estimated scf accuracy    <       0.01117221 Ry

     iteration #  2     ecut=    60.00 Ry     beta= 0.70
     Davidson diagonalization with overlap
     ethr =  6.98E-05,  avg # of iterations =  3.7

     negative rho (up, down):  2.288E-08 0.000E+00

     total cpu time spent up to now is       82.0 secs

     total energy              =     -48.23181150 Ry
     estimated scf accuracy    <       0.04969883 Ry

     iteration #  3     ecut=    60.00 Ry     beta= 0.70
     Davidson diagonalization with overlap
     ethr =  6.98E-05,  avg # of iterations =  2.1

     total cpu time spent up to now is       83.8 secs

     total energy              =     -48.23472873 Ry
     estimated scf accuracy    <       0.00655091 Ry

     iteration #  4     ecut=    60.00 Ry     beta= 0.70
     Davidson diagonalization with overlap
     ethr =  4.09E-05,  avg # of iterations =  2.0

     total cpu time spent up to now is       85.5 secs

     total energy              =     -48.23467231 Ry
     estimated scf accuracy    <       0.00187830 Ry

     iteration #  5     ecut=    60.00 Ry     beta= 0.70
     Davidson diagonalization with overlap
     ethr =  1.17E-05,  avg # of iterations =  2.6

     total cpu time spent up to now is       87.2 secs

     total energy              =     -48.23490578 Ry
     estimated scf accuracy    <       0.00034853 Ry

     iteration #  6     ecut=    60.00 Ry     beta= 0.70
     Davidson diagonalization with overlap
     ethr =  2.18E-06,  avg # of iterations =  2.2

     total cpu time spent up to now is       88.8 secs

     total energy              =     -48.23477733 Ry
     estimated scf accuracy    <       0.00028076 Ry

     iteration #  7     ecut=    60.00 Ry     beta= 0.70
     Davidson diagonalization with overlap
     ethr =  1.75E-06,  avg # of iterations =  2.6

     total cpu time spent up to now is       90.7 secs

     total energy              =     -48.23488178 Ry
     estimated scf accuracy    <       0.00002911 Ry

     iteration #  8     ecut=    60.00 Ry     beta= 0.70
     Davidson diagonalization with overlap
     ethr =  1.82E-07,  avg # of iterations =  3.4

     total cpu time spent up to now is       92.7 secs

     total energy              =     -48.23489583 Ry
     estimated scf accuracy    <       0.00009380 Ry

     iteration #  9     ecut=    60.00 Ry     beta= 0.70
     Davidson diagonalization with overlap
     ethr =  1.82E-07,  avg # of iterations =  1.0

     total cpu time spent up to now is       94.1 secs

     total energy              =     -48.23490796 Ry
     estimated scf accuracy    <       0.00010827 Ry

     iteration # 10     ecut=    60.00 Ry     beta= 0.70
     Davidson diagonalization with overlap
     ethr =  1.82E-07,  avg # of iterations =  1.1

     total cpu time spent up to now is       95.5 secs

     total energy              =     -48.23491242 Ry
     estimated scf accuracy    <       0.00014913 Ry

     iteration # 11     ecut=    60.00 Ry     beta= 0.70
     Davidson diagonalization with overlap
     ethr =  1.82E-07,  avg # of iterations =  1.0

     total cpu time spent up to now is       96.9 secs

     total energy              =     -48.23492056 Ry
     estimated scf accuracy    <       0.00016108 Ry

     iteration # 12     ecut=    60.00 Ry     beta= 0.70
     Davidson diagonalization with overlap
     ethr =  1.82E-07,  avg # of iterations =  1.0

     total cpu time spent up to now is       98.3 secs

     total energy              =     -48.23489300 Ry
     estimated scf accuracy    <       0.00018929 Ry

     iteration # 13     ecut=    60.00 Ry     beta= 0.70
     Davidson diagonalization with overlap
     ethr =  1.82E-07,  avg # of iterations =  1.8

     total cpu time spent up to now is       99.8 secs

     total energy              =     -48.23486932 Ry
     estimated scf accuracy    <       0.00011469 Ry

     iteration # 14     ecut=    60.00 Ry     beta= 0.70
     Davidson diagonalization with overlap
     ethr =  1.82E-07,  avg # of iterations =  2.0

     total cpu time spent up to now is      101.5 secs

     total energy              =     -48.23485921 Ry
     estimated scf accuracy    <       0.00004309 Ry

     iteration # 15     ecut=    60.00 Ry     beta= 0.70
     Davidson diagonalization with overlap
     ethr =  1.82E-07,  avg # of iterations =  2.1

     total cpu time spent up to now is      103.4 secs

     total energy              =     -48.23486414 Ry
     estimated scf accuracy    <       0.00000313 Ry

     iteration # 16     ecut=    60.00 Ry     beta= 0.70
     Davidson diagonalization with overlap
     ethr =  1.95E-08,  avg # of iterations =  3.4

     total cpu time spent up to now is      105.2 secs

     total energy              =     -48.23486495 Ry
     estimated scf accuracy    <       0.00000079 Ry

     iteration # 17     ecut=    60.00 Ry     beta= 0.70
     Davidson diagonalization with overlap
     ethr =  4.91E-09,  avg # of iterations =  1.6

     total cpu time spent up to now is      106.7 secs

     total energy              =     -48.23486495 Ry
     estimated scf accuracy    <       0.00000108 Ry

     iteration # 18     ecut=    60.00 Ry     beta= 0.70
     Davidson diagonalization with overlap
     ethr =  4.91E-09,  avg # of iterations =  1.0

     total cpu time spent up to now is      108.1 secs

     total energy              =     -48.23486485 Ry
     estimated scf accuracy    <       0.00000099 Ry

     iteration # 19     ecut=    60.00 Ry     beta= 0.70
     Davidson diagonalization with overlap
     ethr =  4.91E-09,  avg # of iterations =  1.0

     total cpu time spent up to now is      109.5 secs

     total energy              =     -48.23486488 Ry
     estimated scf accuracy    <       0.00000069 Ry

     iteration # 20     ecut=    60.00 Ry     beta= 0.70
     Davidson diagonalization with overlap
     ethr =  4.34E-09,  avg # of iterations =  1.0

     total cpu time spent up to now is      110.9 secs

     total energy              =     -48.23486491 Ry
     estimated scf accuracy    <       0.00000070 Ry

     iteration # 21     ecut=    60.00 Ry     beta= 0.70
     Davidson diagonalization with overlap
     ethr =  4.34E-09,  avg # of iterations =  1.0

     total cpu time spent up to now is      112.3 secs

     total energy              =     -48.23486456 Ry
     estimated scf accuracy    <       0.00000076 Ry

     iteration # 22     ecut=    60.00 Ry     beta= 0.70
     Davidson diagonalization with overlap
     ethr =  4.34E-09,  avg # of iterations =  2.0

     total cpu time spent up to now is      114.1 secs

     total energy              =     -48.23486468 Ry
     estimated scf accuracy    <       0.00000002 Ry

     iteration # 23     ecut=    60.00 Ry     beta= 0.70
     Davidson diagonalization with overlap
     ethr =  1.03E-10,  avg # of iterations =  3.2

     total cpu time spent up to now is      116.3 secs

     total energy              =     -48.23486468 Ry
     estimated scf accuracy    <       0.00000002 Ry

     iteration # 24     ecut=    60.00 Ry     beta= 0.70
     Davidson diagonalization with overlap
     ethr =  1.03E-10,  avg # of iterations =  2.2

     total cpu time spent up to now is      118.1 secs

     End of self-consistent calculation

          k = 0.0000 0.0000 0.0000 (  4005 PWs)   bands (ev):

   -18.7490 -18.6588  -7.3493  -6.6438  -2.0974  -2.0974  -2.0928  -2.0928

     occupation numbers 
     1.0000   1.0000   1.0000   1.0000   1.0000   1.0000   1.0000   1.0000

          k = 0.0000 0.0965-0.0000 (  4020 PWs)   bands (ev):

   -18.5822 -18.4930  -7.1444  -6.4438  -2.7497  -2.7398  -2.4539  -2.4457

     occupation numbers 
     1.0000   1.0000   1.0000   1.0000   1.0000   1.0000   1.0000   1.0000

          k = 0.0000 0.1931-0.0000 (  4038 PWs)   bands (ev):

   -18.0836 -17.9974  -6.5356  -5.8491  -4.3969  -4.3782  -3.2816  -3.2713

     occupation numbers 
     1.0000   1.0000   1.0000   1.0000   1.0000   1.0000   1.0000   1.0000

          k = 0.0000 0.2896-0.0000 (  4016 PWs)   bands (ev):

   -17.2585 -17.1769  -6.5158  -6.4873  -5.5398  -4.8792  -4.1976  -4.1852

     occupation numbers 
     1.0000   1.0000   1.0000   1.0000   1.0000   1.0000   1.0000   1.0000

          k = 0.0000 0.3861-0.0000 (  4040 PWs)   bands (ev):

   -16.1178 -16.0431  -8.7495  -8.7130  -4.9594  -4.9472  -4.2071  -3.5871

     occupation numbers 
     1.0000   1.0000   1.0000   1.0000   1.0000   1.0000   1.0000   1.0000

          k = 0.0000 0.4826-0.0000 (  4028 PWs)   bands (ev):

   -14.6862 -14.6189 -10.8931 -10.8464  -5.4503  -5.4368  -2.6934  -2.1420

     occupation numbers 
     1.0000   1.0000   1.0000   1.0000   1.0000   1.0000   1.0000   1.0000

          k =-0.0000-0.5792 0.0000 (  4024 PWs)   bands (ev):

   -13.3026 -13.2388 -12.5227 -12.4707  -5.6193  -5.6039  -1.7713  -1.2886

     occupation numbers 
     1.0000   1.0000   1.0000   1.0000   1.0000   1.0000   1.0000   1.0000

          k = 0.0836 0.1448-0.0000 (  4045 PWs)   bands (ev):

   -18.2496 -18.1624  -6.7378  -6.0466  -3.7838  -3.7675  -3.1621  -3.1516

     occupation numbers 
     1.0000   1.0000   1.0000   1.0000   1.0000   1.0000   1.0000   1.0000

          k = 0.0836 0.2413-0.0000 (  4025 PWs)   bands (ev):

   -17.5876 -17.5043  -5.9341  -5.5032  -5.4796  -5.2629  -4.1978  -4.1835

     occupation numbers 
     1.0000   1.0000   1.0000   1.0000   1.0000   1.0000   1.0000   1.0000

          k = 0.0836 0.3379-0.0000 (  4029 PWs)   bands (ev):

   -16.6050 -16.5272  -7.6038  -7.5716  -5.1117  -5.0957  -4.7635  -4.1255

     occupation numbers 
     1.0000   1.0000   1.0000   1.0000   1.0000   1.0000   1.0000   1.0000

          k = 0.0836 0.4344-0.0000 (  4009 PWs)   bands (ev):

   -15.3174 -15.2467  -9.7635  -9.7219  -5.7652  -5.7480  -3.3069  -2.7212

     occupation numbers 
     1.0000   1.0000   1.0000   1.0000   1.0000   1.0000   1.0000   1.0000

          k = 0.0836 0.5309-0.0000 (  4026 PWs)   bands (ev):

   -13.7799 -13.7164 -11.7693 -11.7194  -6.1037  -6.0863  -1.9000  -1.3937

     occupation numbers 
     1.0000   1.0000   1.0000   1.0000   1.0000   1.0000   1.0000   1.0000

          k = 0.1672 0.2896-0.0000 (  4032 PWs)   bands (ev):

   -16.7684 -16.6898  -6.8215  -6.7938  -5.6151  -5.5943  -4.9521  -4.3078

     occupation numbers 
     1.0000   1.0000   1.0000   1.0000   1.0000   1.0000   1.0000   1.0000

          k = 0.1672 0.3861-0.0000 (  4020 PWs)   bands (ev):

   -15.6385 -15.5659  -8.5765  -8.5403  -6.6918  -6.6676  -3.6338  -3.0314

     occupation numbers 
     1.0000   1.0000   1.0000   1.0000   1.0000   1.0000   1.0000   1.0000

          k = 0.1672 0.4826-0.0000 (  4002 PWs)   bands (ev):

   -14.2268 -14.1615 -10.5394 -10.4948  -7.2679  -7.2424  -2.1202  -1.5809

     occupation numbers 
     1.0000   1.0000   1.0000   1.0000   1.0000   1.0000   1.0000   1.0000

          k = 0.1672 0.5792-0.0000 (  4032 PWs)   bands (ev):

   -12.8841 -12.8235 -12.0889 -12.0396  -7.4537  -7.4280  -1.1532  -0.6780

     occupation numbers 
     1.0000   1.0000   1.0000   1.0000   1.0000   1.0000   1.0000   1.0000

          k = 0.2508 0.4344-0.0000 (  3996 PWs)   bands (ev):

   -14.3820 -14.3160  -9.5781  -9.5375  -8.2504  -8.2192  -2.2166  -1.6643

     occupation numbers 
     1.0000   1.0000   1.0000   1.0000   1.0000   1.0000   1.0000   1.0000

          k = 0.2508 0.5309-0.0000 (  4003 PWs)   bands (ev):

   -12.9059 -12.8474 -11.0603 -11.0132  -8.9588  -8.9247  -0.7441  -0.2578

     occupation numbers 
     1.0000   1.0000   1.0000   1.0000   1.0000   1.0000   1.0000   1.0000

          k = 0.3344 0.5792-0.0000 (  3942 PWs)   bands (ev):

   -11.6327 -11.6327 -11.5805 -11.5805  -9.9800  -9.9444   0.6767   0.6767

     occupation numbers 
     1.0000   1.0000   1.0000   1.0000   1.0000   1.0000   1.0000   1.0000

     the Fermi energy is     0.8020 ev

!    total energy              =     -48.23486468 Ry
     estimated scf accuracy    <          4.0E-09 Ry
[...]

     number of k points=    19  Marzari-Vanderbilt smearing, width (Ry)=  0.0100
                       cart. coord. in units 2pi/alat
        k(    1) = (   0.0000000   0.0000000   0.0000000), wk =   0.0138889
        k(    2) = (   0.0000000   0.0962536  -0.0000000), wk =   0.0833333
        k(    3) = (   0.0000000   0.1925071  -0.0000000), wk =   0.0833333
        k(    4) = (   0.0000000   0.2887607  -0.0000000), wk =   0.0833333
        k(    5) = (   0.0000000   0.3850143  -0.0000000), wk =   0.0833333
        k(    6) = (   0.0000000   0.4812678  -0.0000000), wk =   0.0833333
        k(    7) = (  -0.0000000  -0.5775214   0.0000000), wk =   0.0416667
        k(    8) = (   0.0833580   0.1443804  -0.0000000), wk =   0.0833333
        k(    9) = (   0.0833580   0.2406339  -0.0000000), wk =   0.1666667
        k(   10) = (   0.0833580   0.3368875  -0.0000000), wk =   0.1666667
        k(   11) = (   0.0833580   0.4331411  -0.0000000), wk =   0.1666667
        k(   12) = (   0.0833580   0.5293946  -0.0000000), wk =   0.1666667
        k(   13) = (   0.1667161   0.2887607  -0.0000000), wk =   0.0833333
        k(   14) = (   0.1667161   0.3850143  -0.0000000), wk =   0.1666667
        k(   15) = (   0.1667161   0.4812678  -0.0000000), wk =   0.1666667
        k(   16) = (   0.1667161   0.5775214  -0.0000000), wk =   0.0833333
        k(   17) = (   0.2500741   0.4331411  -0.0000000), wk =   0.0833333
        k(   18) = (   0.2500741   0.5293946  -0.0000000), wk =   0.1666667
        k(   19) = (   0.3334321   0.5775214  -0.0000000), wk =   0.0277778

                       cryst. coord.
        k(    1) = (   0.0000000   0.0000000   0.0000000), wk =   0.0138889
        k(    2) = (  -0.0000000   0.0833333  -0.0000000), wk =   0.0833333
        k(    3) = (  -0.0000000   0.1666667  -0.0000000), wk =   0.0833333
        k(    4) = (  -0.0000000   0.2500000   0.0000000), wk =   0.0833333
        k(    5) = (  -0.0000000   0.3333333  -0.0000000), wk =   0.0833333
        k(    6) = (   0.0000000   0.4166667   0.0000000), wk =   0.0833333
        k(    7) = (   0.0000000  -0.5000000   0.0000000), wk =   0.0416667
        k(    8) = (   0.0833333   0.0833333  -0.0000000), wk =   0.0833333
        k(    9) = (   0.0833333   0.1666667  -0.0000000), wk =   0.1666667
        k(   10) = (   0.0833333   0.2500000   0.0000000), wk =   0.1666667
        k(   11) = (   0.0833333   0.3333333   0.0000000), wk =   0.1666667
        k(   12) = (   0.0833333   0.4166667   0.0000000), wk =   0.1666667
        k(   13) = (   0.1666667   0.1666667  -0.0000000), wk =   0.0833333
        k(   14) = (   0.1666667   0.2500000   0.0000000), wk =   0.1666667
        k(   15) = (   0.1666667   0.3333333  -0.0000000), wk =   0.1666667
        k(   16) = (   0.1666667   0.4166667   0.0000000), wk =   0.0833333
        k(   17) = (   0.2500000   0.2500000   0.0000000), wk =   0.0833333
        k(   18) = (   0.2500000   0.3333333   0.0000000), wk =   0.1666667
        k(   19) = (   0.3333333   0.3333333  -0.0000000), wk =   0.0277778

     Dense  grid:    20391 G-vectors     FFT dimensions: (  24,  24,  96)

     Dynamical RAM for                 wfc:       0.31 MB

     Dynamical RAM for     wfc (w. buffer):       6.22 MB

     Dynamical RAM for           str. fact:       0.31 MB

     Dynamical RAM for           local pot:       0.25 MB

     Dynamical RAM for          nlocal pot:       1.24 MB

     Dynamical RAM for                qrad:       0.71 MB

     Dynamical RAM for          rho,v,vnew:       2.20 MB

     Dynamical RAM for               rhoin:       0.73 MB

     Dynamical RAM for            rho*nmix:       4.98 MB

     Dynamical RAM for           G-vectors:       1.32 MB

     Dynamical RAM for          h,s,v(r/c):       0.01 MB

     Dynamical RAM for          <psi|beta>:       0.00 MB

     Dynamical RAM for                 psi:       0.62 MB

     Dynamical RAM for                hpsi:       0.62 MB

     Dynamical RAM for      wfcinit/wfcrot:       1.25 MB

     Estimated static dynamical RAM per process >      20.69 MB

     Estimated max dynamical RAM per process >      21.95 MB

     Initial potential from superposition of free atoms

     starting charge   15.99985, renormalised to   16.00000
     Starting wfcs are   16 randomized atomic wfcs

     total cpu time spent up to now is      768.9 secs

     Self-consistent Calculation

     iteration #  1     ecut=    60.00 Ry     beta= 0.70
     Davidson diagonalization with overlap
     ethr =  1.00E-06,  avg # of iterations = 11.1

     total cpu time spent up to now is      772.6 secs

     total energy              =     -48.15646978 Ry
     estimated scf accuracy    <       0.44214850 Ry

     iteration #  2     ecut=    60.00 Ry     beta= 0.70
     Davidson diagonalization with overlap
     ethr =  2.76E-03,  avg # of iterations =  2.0

     total cpu time spent up to now is      773.8 secs

     total energy              =     -48.23260546 Ry
     estimated scf accuracy    <       0.00528433 Ry

     iteration #  3     ecut=    60.00 Ry     beta= 0.70
     Davidson diagonalization with overlap
     ethr =  3.30E-05,  avg # of iterations =  2.1

     total cpu time spent up to now is      775.0 secs

     total energy              =     -48.23309594 Ry
     estimated scf accuracy    <       0.00057428 Ry

     iteration #  4     ecut=    60.00 Ry     beta= 0.70
     Davidson diagonalization with overlap
     ethr =  3.59E-06,  avg # of iterations =  2.3

     total cpu time spent up to now is      776.3 secs

     total energy              =     -48.23320624 Ry
     estimated scf accuracy    <       0.00031251 Ry

     iteration #  5     ecut=    60.00 Ry     beta= 0.70
     Davidson diagonalization with overlap
     ethr =  1.95E-06,  avg # of iterations =  2.0

     total cpu time spent up to now is      777.5 secs

     total energy              =     -48.23327528 Ry
     estimated scf accuracy    <       0.00000237 Ry

     iteration #  6     ecut=    60.00 Ry     beta= 0.70
     Davidson diagonalization with overlap
     ethr =  1.48E-08,  avg # of iterations =  6.4

     total cpu time spent up to now is      779.4 secs

     total energy              =     -48.23327962 Ry
     estimated scf accuracy    <       0.00000133 Ry

     iteration #  7     ecut=    60.00 Ry     beta= 0.70
     Davidson diagonalization with overlap
     ethr =  8.33E-09,  avg # of iterations =  2.0

     total cpu time spent up to now is      780.5 secs

     total energy              =     -48.23327965 Ry
     estimated scf accuracy    <       0.00000020 Ry

     iteration #  8     ecut=    60.00 Ry     beta= 0.70
     Davidson diagonalization with overlap
     ethr =  1.24E-09,  avg # of iterations =  2.9

     total cpu time spent up to now is      781.8 secs

     End of self-consistent calculation

          k = 0.0000 0.0000 0.0000 (  2551 PWs)   bands (ev):

   -15.7907 -15.6771  -4.4547  -3.6132   0.7983   0.7983   0.8084   0.8084

     occupation numbers 
     1.0000   1.0000   1.0000   1.0000   1.0000   1.0000   1.0000   1.0000

          k = 0.0000 0.0963-0.0000 (  2566 PWs)   bands (ev):

   -15.6249 -15.5121  -4.2510  -3.4154   0.1495   0.1631   0.4476   0.4582

     occupation numbers 
     1.0000   1.0000   1.0000   1.0000   1.0000   1.0000   1.0000   1.0000

          k = 0.0000 0.1925-0.0000 (  2558 PWs)   bands (ev):

   -15.1284 -15.0192  -3.6442  -2.8261  -1.4919  -1.4650  -0.3743  -0.3598

     occupation numbers 
     1.0000   1.0000   1.0000   1.0000   1.0000   1.0000   1.0000   1.0000

          k = 0.0000 0.2888-0.0000 (  2550 PWs)   bands (ev):

   -14.3066 -14.2032  -3.6035  -3.5656  -2.6534  -1.8653  -1.2832  -1.2664

     occupation numbers 
     1.0000   1.0000   1.0000   1.0000   1.0000   1.0000   1.0000   1.0000

          k = 0.0000 0.3850-0.0000 (  2558 PWs)   bands (ev):

   -13.1708 -13.0756  -5.8282  -5.7798  -2.0389  -2.0228  -1.3274  -0.5863

     occupation numbers 
     1.0000   1.0000   1.0000   1.0000   1.0000   1.0000   1.0000   1.0000

          k = 0.0000 0.4813-0.0000 (  2556 PWs)   bands (ev):

   -11.7466 -11.6604  -7.9615  -7.9011  -2.5263  -2.5092   0.1786   0.8425

     occupation numbers 
     1.0000   1.0000   1.0000   1.0000   1.0000   1.0000   1.0000   1.0000

          k =-0.0000-0.5775 0.0000 (  2560 PWs)   bands (ev):

   -10.3810 -10.2996  -9.5718  -9.5061  -2.6924  -2.6755   1.0951   1.6823

     occupation numbers 
     1.0000   1.0000   1.0000   1.0000   1.0000   1.0000   1.0000   1.0000

          k = 0.0834 0.1444-0.0000 (  2565 PWs)   bands (ev):

   -15.2936 -15.1833  -3.8459  -3.0213  -0.8819  -0.8592  -0.2546  -0.2402

     occupation numbers 
     1.0000   1.0000   1.0000   1.0000   1.0000   1.0000   1.0000   1.0000

          k = 0.0834 0.2406-0.0000 (  2549 PWs)   bands (ev):

   -14.6343 -14.5288  -3.0462  -2.5957  -2.5637  -2.2444  -1.2830  -1.2642

     occupation numbers 
     1.0000   1.0000   1.0000   1.0000   1.0000   1.0000   1.0000   1.0000

          k = 0.0834 0.3369-0.0000 (  2557 PWs)   bands (ev):

   -13.6559 -13.5573  -4.6880  -4.6457  -2.1914  -2.1702  -1.8812  -1.1187

     occupation numbers 
     1.0000   1.0000   1.0000   1.0000   1.0000   1.0000   1.0000   1.0000

          k = 0.0834 0.4331-0.0000 (  2539 PWs)   bands (ev):

   -12.3744 -12.2841  -6.8372  -6.7838  -2.8409  -2.8182  -0.4316   0.2705

     occupation numbers 
     1.0000   1.0000   1.0000   1.0000   1.0000   1.0000   1.0000   1.0000

          k = 0.0834 0.5294-0.0000 (  2554 PWs)   bands (ev):

   -10.8470 -10.7653  -8.8318  -8.7673  -3.1769  -3.1543   0.9683   1.5796

     occupation numbers 
     1.0000   1.0000   1.0000   1.0000   1.0000   1.0000   1.0000   1.0000

          k = 0.1667 0.2888-0.0000 (  2548 PWs)   bands (ev):

   -13.8184 -13.7188  -3.9114  -3.8755  -2.6910  -2.6640  -2.0680  -1.2979

     occupation numbers 
     1.0000   1.0000   1.0000   1.0000   1.0000   1.0000   1.0000   1.0000

          k = 0.1667 0.3850-0.0000 (  2536 PWs)   bands (ev):

   -12.6936 -12.6013  -5.6589  -5.6121  -3.7625  -3.7308  -0.7566  -0.0354

     occupation numbers 
     1.0000   1.0000   1.0000   1.0000   1.0000   1.0000   1.0000   1.0000

          k = 0.1667 0.4813-0.0000 (  2530 PWs)   bands (ev):

   -11.2894 -11.2057  -7.6110  -7.5533  -4.3378  -4.3038   0.7498   1.3982

     occupation numbers 
     1.0000   1.0000   1.0000   1.0000   1.0000   1.0000   1.0000   1.0000

          k = 0.1667 0.5775-0.0000 (  2536 PWs)   bands (ev):

    -9.9633  -9.8849  -9.1429  -9.0781  -4.5227  -4.4890   1.7130   2.2891

     occupation numbers 
     1.0000   1.0000   1.0000   1.0000   1.0000   1.0000   1.0000   1.0000

          k = 0.2501 0.4331-0.0000 (  2538 PWs)   bands (ev):

   -11.4434 -11.3589  -6.6627  -6.6096  -5.3094  -5.2683   0.6526   1.3159

     occupation numbers 
     1.0000   1.0000   1.0000   1.0000   1.0000   1.0000   1.0000   1.0000

          k = 0.2501 0.5294-0.0000 (  2533 PWs)   bands (ev):

    -9.9770  -9.9013  -8.1337  -8.0727  -6.0157  -5.9717   2.1188   2.7065

     occupation numbers 
     1.0000   1.0000   1.0000   1.0000   1.0000   1.0000   1.0000   1.0000

          k = 0.3334 0.5775-0.0000 (  2514 PWs)   bands (ev):

    -8.7140  -8.7140  -8.6461  -8.6461  -7.0195  -6.9729   3.5319   3.5319

     occupation numbers 
     1.0000   1.0000   1.0000   1.0000   1.0000   1.0000   1.0000   1.0000

     the Fermi energy is     3.6572 ev

!    total energy              =     -48.23327971 Ry
     estimated scf accuracy    <          1.5E-09 Ry
     smearing contrib. (-TS)   =       0.00004531 Ry
     internal energy E=F+TS    =     -48.23332502 Ry

     The total energy is F=E-TS. E is the sum of the following terms:
     one-electron contribution =     -65.75740977 Ry
     hartree contribution      =      39.14886948 Ry
     xc contribution           =     -17.15374389 Ry
     ewald contribution        =      -4.47104084 Ry

     convergence has been achieved in   8 iterations

     Forces acting on atoms (cartesian axes, Ry/au):

     atom    1 type  1   force =     0.00000000    0.00000000    0.00001855
     atom    2 type  1   force =    -0.00000000   -0.00000000    0.00001855
     atom    3 type  1   force =    -0.00000000    0.00000000   -0.00001855
     atom    4 type  1   force =     0.00000000    0.00000000   -0.00001855
     The non-local contrib.  to forces
     atom    1 type  1   force =     0.00000000    0.00000000   -0.00076337
     atom    2 type  1   force =     0.00000000    0.00000000   -0.00076337
     atom    3 type  1   force =    -0.00000000   -0.00000000    0.00076337
     atom    4 type  1   force =     0.00000000    0.00000000    0.00076337
     The ionic contribution  to forces
     atom    1 type  1   force =    -0.00000001    0.00000001   -5.35754776
     atom    2 type  1   force =     0.00000001   -0.00000001   -5.35754776
     atom    3 type  1   force =    -0.00000001    0.00000001    5.35754776
     atom    4 type  1   force =     0.00000001   -0.00000001    5.35754776
     The local contribution  to forces
     atom    1 type  1   force =    -0.00000000   -0.00000000    5.35825402
     atom    2 type  1   force =     0.00000001   -0.00000000    5.35825402
     atom    3 type  1   force =    -0.00000000   -0.00000000   -5.35825402
     atom    4 type  1   force =     0.00000001   -0.00000000   -5.35825402
     The core correction contribution to forces
     atom    1 type  1   force =     0.00000000   -0.00000000   -0.00000074
     atom    2 type  1   force =    -0.00000000    0.00000000   -0.00000074
     atom    3 type  1   force =     0.00000000   -0.00000000    0.00000074
     atom    4 type  1   force =    -0.00000000    0.00000000    0.00000074
     The Hubbard contrib.    to forces
     atom    1 type  1   force =     0.00000000    0.00000000    0.00000000
     atom    2 type  1   force =     0.00000000    0.00000000    0.00000000
     atom    3 type  1   force =     0.00000000    0.00000000    0.00000000
     atom    4 type  1   force =     0.00000000    0.00000000    0.00000000
     The SCF correction term to forces
     atom    1 type  1   force =     0.00000000   -0.00000000    0.00007639
     atom    2 type  1   force =    -0.00000000    0.00000000    0.00007639
     atom    3 type  1   force =     0.00000000   -0.00000000   -0.00007639
     atom    4 type  1   force =    -0.00000000    0.00000000   -0.00007639

     Total force =     0.000037     Total SCF correction =     0.000153
     SCF correction compared to forces is large: reduce conv_thr to get better values


     Computing stress (Cartesian axis) and pressure

          total   stress  (Ry/bohr**3)                   (kbar)     P=      -23.13
  -0.00010593  -0.00000000   0.00000000          -15.58       -0.00        0.00
  -0.00000000  -0.00010593   0.00000000           -0.00      -15.58        0.00
   0.00000000   0.00000000  -0.00025991            0.00        0.00      -38.23

     kinetic stress (kbar)   9965.07      0.00     -0.00
                                0.00   9965.07     -0.00
                               -0.00      0.00  10904.02

     local   stress (kbar) -39558.70      0.00      0.00
                                0.00 -39558.70      0.00
                                0.00      0.00  42713.07

     nonloc. stress (kbar)  -1216.24     -0.00      0.00
                               -0.00  -1216.24      0.00
                                0.00      0.00  -1015.74

     hartree stress (kbar)  17017.12     -0.00     -0.00
                               -0.00  17017.12     -0.00
                               -0.00     -0.00 -16285.21

     exc-cor stress (kbar)   -771.65      0.00      0.00
                                0.00   -771.65      0.00
                                0.00      0.00   -771.65

     corecor stress (kbar)  -1499.14      0.00     -0.00
                                0.00  -1499.14     -0.00
                               -0.00     -0.00  -1459.75

     ewald   stress (kbar)  16047.96     -0.00     -0.00
                               -0.00  16047.96     -0.00
                               -0.00     -0.00 -34122.97

     hubbard stress (kbar)      0.00      0.00      0.00
                                0.00      0.00      0.00
                                0.00      0.00      0.00

     DFT-D   stress (kbar)      0.00      0.00      0.00
                                0.00      0.00      0.00
                                0.00      0.00      0.00

     XDM     stress (kbar)      0.00      0.00      0.00
                                0.00      0.00      0.00
                                0.00      0.00      0.00

     dft-nl  stress (kbar)      0.00      0.00      0.00
                                0.00      0.00      0.00
                                0.00      0.00      0.00

     TS-vdW  stress (kbar)      0.00      0.00      0.00
                                0.00      0.00      0.00
                                0.00      0.00      0.00



     Writing output data file ./tmp/graphene.save/

     init_run     :      5.08s CPU      3.16s WALL (       2 calls)
     electrons    :   1555.10s CPU    652.87s WALL (      26 calls)
     update_pot   :     44.22s CPU     41.74s WALL (      24 calls)
     forces       :     37.02s CPU     28.07s WALL (      26 calls)
     stress       :     78.84s CPU     57.26s WALL (      26 calls)

     Called by init_run:
     wfcinit      :      2.99s CPU      1.15s WALL (       2 calls)
     wfcinit:atom :      0.09s CPU      0.03s WALL (      38 calls)
     wfcinit:wfcr :      2.45s CPU      0.97s WALL (      38 calls)
     potinit      :      0.55s CPU      0.55s WALL (       2 calls)
     hinit0       :      1.46s CPU      1.41s WALL (       2 calls)

     Called by electrons:
     c_bands      :   1438.62s CPU    580.91s WALL (     289 calls)
     sum_band     :    112.27s CPU     67.87s WALL (     289 calls)
     v_of_rho     :      2.02s CPU      1.89s WALL (     315 calls)
     v_h          :      0.55s CPU      0.55s WALL (     315 calls)
     v_xc         :      1.96s CPU      1.61s WALL (     367 calls)
     mix_rho      :      1.88s CPU      1.88s WALL (     289 calls)

     Called by c_bands:
     init_us_2    :     44.47s CPU     17.56s WALL (   12008 calls)
     cegterg      :   1314.53s CPU    533.11s WALL (    5491 calls)

     Called by sum_band:
     sum_band:wei :      0.21s CPU      0.06s WALL (     289 calls)
     sum_band:loo :    109.51s CPU     65.31s WALL (     289 calls)
     sum_band:buf :      0.91s CPU      0.53s WALL (    5491 calls)
     sum_band:ini :     12.48s CPU      7.38s WALL (    5491 calls)

     Called by *egterg:
     cdiaghg      :     13.57s CPU      3.79s WALL (   22476 calls)
     cegterg:over :     29.98s CPU     10.27s WALL (   17441 calls)
     cegterg:upda :     20.67s CPU      6.97s WALL (   17441 calls)
     cegterg:last :     24.43s CPU      7.77s WALL (   14668 calls)
     h_psi        :   1189.74s CPU    494.85s WALL (   22970 calls)
     g_psi        :     19.00s CPU      4.80s WALL (   17441 calls)

     Called by h_psi:
     h_psi:calbec :     43.92s CPU     27.58s WALL (   22970 calls)
     vloc_psi     :   1115.87s CPU    457.22s WALL (   22970 calls)
     add_vuspsi   :     22.21s CPU      7.77s WALL (   22970 calls)

     General routines
     calbec       :     46.47s CPU     28.68s WALL (   25440 calls)
     fft          :      1.92s CPU      1.59s WALL (    1151 calls)
     ffts         :      0.45s CPU      0.45s WALL (     289 calls)
     fftw         :   1019.98s CPU    436.79s WALL (  332004 calls)

     Parallel routines

     PWSCF        :  28m41.81s CPU  13m 3.92s WALL


   This run was terminated on:  11:37:41  15Feb2024            

=------------------------------------------------------------------------------=
   JOB DONE.
=------------------------------------------------------------------------------=
