
     Program BANDS v.7.2 starts on 17Apr2024 at 15:25:35 

     This program is part of the open-source Quantum ESPRESSO suite
     for quantum simulation of materials; please cite
         "P. Giannozzi et al., J. Phys.:Condens. Matter 21 395502 (2009);
         "P. Giannozzi et al., J. Phys.:Condens. Matter 29 465901 (2017);
         "P. Giannozzi et al., J. Chem. Phys. 152 154105 (2020);
          URL http://www.quantum-espresso.org", 
     in publications or presentations arising from this work. More details at
     http://www.quantum-espresso.org/quote

     Parallel version (MPI & OpenMP), running on       8 processor cores
     Number of MPI processes:                 8
     Threads/MPI process:                     1

     MPI processes distributed on     1 nodes
     R & G space division:  proc/nbgrp/npool/nimage =       8
     0 MiB available memory on the printing compute node when the environment starts


     Reading xml data from directory:

     ./tmp/BN2L_AB1_PBE_vdW.save/

     IMPORTANT: XC functional enforced from input :
     Exchange-correlation= VDW-DF2-B86R
                           (   1   4  26   0   2   0   0)
     Any further DFT definition will be discarded
     Please, verify this is what you really want


     Parallelization info
     --------------------
     sticks:   dense  smooth     PW     G-vecs:    dense   smooth      PW
     Min          45      45     14                 5791     5791    1010
     Max          46      46     16                 5824     5824    1027
     Sum         367     367    121                46525    46525    8181

     Using Slab Decomposition



     %%%%%%%%%%%%%%%%%%%%%%%%%%%%%%%%%%%%%%%%%%%%%%%%%%%%%%%%%%%%%%%%%%%%%%%%
     %                                                                      %
     % You are using vdW-DF, which was implemented by the Thonhauser group. %
     % Please cite the following two papers that made this development      %
     % possible and the two reviews that describe the various versions:     %
     %                                                                      %
     %   T. Thonhauser et al., PRL 115, 136402 (2015).                      %
     %   T. Thonhauser et al., PRB 76, 125112 (2007).                       %
     %   K. Berland et al., Rep. Prog. Phys. 78, 066501 (2015).             %
     %   D.C. Langreth et al., J. Phys.: Condens. Matter 21, 084203 (2009). %
     %                                                                      %
     % If you are calculating stress with vdW-DF, please also cite:         %
     %                                                                      %
     %   R. Sabatini et al., J. Phys.: Condens. Matter 24, 424209 (2012).   %
     %                                                                      %
     %%%%%%%%%%%%%%%%%%%%%%%%%%%%%%%%%%%%%%%%%%%%%%%%%%%%%%%%%%%%%%%%%%%%%%%%

     %%%%%%%%%%%%%%%%%%%%%%%%%%%%%%%%%%%%%%%%%%%%%%%%%%%%%%%%%%%%%%%%%%%%%%%%
     %                                                                      %
     %  vdW-DF NEWS:                                                        %
     %                                                                      %
     %  * vdW-DF3 is now available. DOI: 10.1021/acs.jctc.0c00471           %
     %    use with input_dft = 'vdW-DF3-opt1' or 'vdW-DF3-opt2'             %
     %                                                                      %
     %  * Unscreened and range-separated hybrid vdW-DF-cx functionals       %
     %    DOI: 10.1063/1.4986522 and 10.1088/1361-648X/ac2ad2               %
     %    use with input_dft = 'vdW-DF-cx0'    and 'vdW-DF-ahcx'            %
     %  * Unscreened and range-separated hybrid vdW-DF2-b86r functionals    %
     %    DOI: 10.1063/1.4986522 and DOI: 10.1103/PhysRevX.12.041003        %
     %    use with input_dft = 'vdW-DF2-br0' and 'vdW-DF2-ahbr'             %
     %                                                                      %
     %%%%%%%%%%%%%%%%%%%%%%%%%%%%%%%%%%%%%%%%%%%%%%%%%%%%%%%%%%%%%%%%%%%%%%%%


     Reading collected, re-writing distributed wavefunctions
     high-symmetry point:  0.0000 0.0000 0.0000   x coordinate   0.0000
     high-symmetry point: -0.3333 0.5774 0.0000   x coordinate   0.6667
     high-symmetry point:  0.0000 0.5774 0.0000   x coordinate   1.0000
     high-symmetry point:  0.0000 0.0000 0.0000   x coordinate   1.5773

     Plottable bands (eV) written to file Bande_BN2L_AB1_PBE_vdW.dat.gnu
     Bands written to file Bande_BN2L_AB1_PBE_vdW.dat

 **************************************************************************

                    xk=(   0.00000,   0.00000,   0.00000  )

     point group C_3v (3m)  
     there are  3 classes
     the character table:

       E     2C3   3s_v 
A_1    1.00  1.00  1.00
A_2    1.00  1.00 -1.00
E      2.00 -1.00  0.00

     the symmetry operations in each class and the name of the first element:

     E        1
                                                                 
     2C3      2    3
                                                                 
     3s_v     4    5    6
                                                                 

     Band symmetry, C_3v (3m)   point group:

     e(  1 -  1) =    -20.17614  eV     1   --> A_1  L_1       
     e(  2 -  2) =    -19.97877  eV     1   --> A_1  L_1       
     e(  3 -  3) =     -8.26211  eV     1   --> A_1  L_1       
     e(  4 -  4) =     -7.13499  eV     1   --> A_1  L_1       
     e(  5 -  6) =     -3.93120  eV     2   --> E    L_3       
     e(  7 -  8) =     -3.81620  eV     2   --> E    L_3       
     e(  9 -  9) =      2.02008  eV     1   --> A_1  L_1       
     e( 10 - 10) =      2.54904  eV     1   --> A_1  L_1       
     e( 11 - 11) =      3.58439  eV     1   --> A_1  L_1       
     e( 12 - 12) =      4.65303  eV     1   --> A_1  L_1       
     e( 13 - 13) =      4.81292  eV     1   --> A_1  L_1       
     e( 14 - 14) =      6.54347  eV     1   --> A_1  L_1       
     e( 15 - 15) =      7.24099  eV     1   --> A_1  L_1       
     e( 16 - 17) =      9.08192  eV     2   --> E    L_3       
     e( 18 - 18) =      9.08572  eV     1   --> A_1  L_1       
     e( 19 - 20) =      9.19812  eV     2   --> E    L_3       

 **************************************************************************

 **************************************************************************

                    xk=(  -0.01587,   0.02749,   0.00000  )

     point group C_1 (1)    
     there are  1 classes
     the character table:

       E    
A      1.00

     the symmetry operations in each class and the name of the first element:

     E        1
                                                                 

     Band symmetry, C_1 (1)     point group:

     e(  1 -  1) =    -20.16165  eV     1   --> A              
     e(  2 -  2) =    -19.96446  eV     1   --> A              
     e(  3 -  3) =     -8.24195  eV     1   --> A              
     e(  4 -  4) =     -7.11601  eV     1   --> A              
     e(  5 -  5) =     -3.99447  eV     1   --> A              
     e(  6 -  6) =     -3.96091  eV     1   --> A              
     e(  7 -  7) =     -3.87956  eV     1   --> A              
     e(  8 -  8) =     -3.84584  eV     1   --> A              
     e(  9 -  9) =      2.04571  eV     1   --> A              
     e( 10 - 10) =      2.57232  eV     1   --> A              
     e( 11 - 11) =      3.60869  eV     1   --> A              
     e( 12 - 12) =      4.67662  eV     1   --> A              
     e( 13 - 13) =      4.83600  eV     1   --> A              
     e( 14 - 14) =      6.55979  eV     1   --> A              
     e( 15 - 15) =      7.26388  eV     1   --> A              
     e( 16 - 16) =      9.05646  eV     1   --> A              
     e( 17 - 17) =      9.09764  eV     1   --> A              
     e( 18 - 18) =      9.14683  eV     1   --> A              
     e( 19 - 19) =      9.19139  eV     1   --> A              
     e( 20 - 20) =      9.26320  eV     1   --> A              

 **************************************************************************

 **************************************************************************

                    xk=(  -0.03175,   0.05499,   0.00000  )

     Band symmetry, C_1 (1)     point group:

     e(  1 -  1) =    -20.11809  eV     1   --> A              
     e(  2 -  2) =    -19.92152  eV     1   --> A              
     e(  3 -  3) =     -8.18223  eV     1   --> A              
     e(  4 -  4) =     -7.05994  eV     1   --> A              
     e(  5 -  5) =     -4.17665  eV     1   --> A              
     e(  6 -  6) =     -4.06325  eV     1   --> A              
     e(  7 -  7) =     -4.04678  eV     1   --> A              
     e(  8 -  8) =     -3.93297  eV     1   --> A              
     e(  9 -  9) =      2.12184  eV     1   --> A              
     e( 10 - 10) =      2.64194  eV     1   --> A              
     e( 11 - 11) =      3.68145  eV     1   --> A              
     e( 12 - 12) =      4.74721  eV     1   --> A              
     e( 13 - 13) =      4.90431  eV     1   --> A              
     e( 14 - 14) =      6.60751  eV     1   --> A              
     e( 15 - 15) =      7.33131  eV     1   --> A              
     e( 16 - 16) =      9.01762  eV     1   --> A              
     e( 17 - 17) =      9.09804  eV     1   --> A              
     e( 18 - 18) =      9.18042  eV     1   --> A              
     e( 19 - 19) =      9.32906  eV     1   --> A              
     e( 20 - 20) =      9.44921  eV     1   --> A              

 **************************************************************************

 **************************************************************************

                    xk=(  -0.04762,   0.08248,   0.00000  )

     Band symmetry, C_1 (1)     point group:

     e(  1 -  1) =    -20.04554  eV     1   --> A              
     e(  2 -  2) =    -19.85016  eV     1   --> A              
     e(  3 -  3) =     -8.08303  eV     1   --> A              
     e(  4 -  4) =     -6.96648  eV     1   --> A              
     e(  5 -  5) =     -4.46248  eV     1   --> A              
     e(  6 -  6) =     -4.34846  eV     1   --> A              
     e(  7 -  7) =     -4.18938  eV     1   --> A              
     e(  8 -  8) =     -4.07470  eV     1   --> A              
     e(  9 -  9) =      2.24670  eV     1   --> A              
     e( 10 - 10) =      2.75719  eV     1   --> A              
     e( 11 - 11) =      3.80226  eV     1   --> A              
     e( 12 - 12) =      4.86421  eV     1   --> A              
     e( 13 - 13) =      5.01483  eV     1   --> A              
     e( 14 - 14) =      6.68267  eV     1   --> A              
     e( 15 - 15) =      7.43933  eV     1   --> A              
     e( 16 - 16) =      8.97973  eV     1   --> A              
     e( 17 - 17) =      9.08700  eV     1   --> A              
     e( 18 - 18) =      9.17931  eV     1   --> A              
     e( 19 - 19) =      9.58358  eV     1   --> A              
     e( 20 - 20) =      9.73274  eV     1   --> A              

 **************************************************************************

 **************************************************************************

                    xk=(  -0.06349,   0.10997,   0.00000  )

     Band symmetry, C_1 (1)     point group:

     e(  1 -  1) =    -19.94465  eV     1   --> A              
     e(  2 -  2) =    -19.75088  eV     1   --> A              
     e(  3 -  3) =     -7.94467  eV     1   --> A              
     e(  4 -  4) =     -6.83646  eV     1   --> A              
     e(  5 -  5) =     -4.83431  eV     1   --> A              
     e(  6 -  6) =     -4.72049  eV     1   --> A              
     e(  7 -  7) =     -4.38282  eV     1   --> A              
     e(  8 -  8) =     -4.26818  eV     1   --> A              
     e(  9 -  9) =      2.41827  eV     1   --> A              
     e( 10 - 10) =      2.91707  eV     1   --> A              
     e( 11 - 11) =      3.97065  eV     1   --> A              
     e( 12 - 12) =      5.02677  eV     1   --> A              
     e( 13 - 13) =      5.16311  eV     1   --> A              
     e( 14 - 14) =      6.77834  eV     1   --> A              
     e( 15 - 15) =      7.58194  eV     1   --> A              
     e( 16 - 16) =      8.95402  eV     1   --> A              
     e( 17 - 17) =      9.07662  eV     1   --> A              
     e( 18 - 18) =      9.18556  eV     1   --> A              
     e( 19 - 19) =      9.76089  eV     1   --> A              
     e( 20 - 20) =      9.97597  eV     1   --> A              

 **************************************************************************

 **************************************************************************

                    xk=(  -0.07936,   0.13746,   0.00000  )

     Band symmetry, C_1 (1)     point group:

     e(  1 -  1) =    -19.81605  eV     1   --> A              
     e(  2 -  2) =    -19.62444  eV     1   --> A              
     e(  3 -  3) =     -7.76797  eV     1   --> A              
     e(  4 -  4) =     -6.67099  eV     1   --> A              
     e(  5 -  5) =     -5.26958  eV     1   --> A              
     e(  6 -  6) =     -5.15591  eV     1   --> A              
     e(  7 -  7) =     -4.62273  eV     1   --> A              
     e(  8 -  8) =     -4.50812  eV     1   --> A              
     e(  9 -  9) =      2.63496  eV     1   --> A              
     e( 10 - 10) =      3.12034  eV     1   --> A              
     e( 11 - 11) =      4.18613  eV     1   --> A              
     e( 12 - 12) =      5.23365  eV     1   --> A              
     e( 13 - 13) =      5.34238  eV     1   --> A              
     e( 14 - 14) =      6.88270  eV     1   --> A              
     e( 15 - 15) =      7.74754  eV     1   --> A              
     e( 16 - 16) =      8.94286  eV     1   --> A              
     e( 17 - 17) =      9.07388  eV     1   --> A              
     e( 18 - 18) =      9.19739  eV     1   --> A              
     e( 19 - 19) =      9.54120  eV     1   --> A              
     e( 20 - 20) =     10.13888  eV     1   --> A              

 **************************************************************************

 **************************************************************************

                    xk=(  -0.09524,   0.16496,   0.00000  )

     Band symmetry, C_1 (1)     point group:

     e(  1 -  1) =    -19.66047  eV     1   --> A              
     e(  2 -  2) =    -19.47147  eV     1   --> A              
     e(  3 -  3) =     -7.55407  eV     1   --> A              
     e(  4 -  4) =     -6.47365  eV     1   --> A              
     e(  5 -  5) =     -5.74696  eV     1   --> A              
     e(  6 -  6) =     -5.63343  eV     1   --> A              
     e(  7 -  7) =     -4.90241  eV     1   --> A              
     e(  8 -  8) =     -4.78783  eV     1   --> A              
     e(  9 -  9) =      2.89587  eV     1   --> A              
     e( 10 - 10) =      3.36536  eV     1   --> A              
     e( 11 - 11) =      4.44828  eV     1   --> A              
     e( 12 - 12) =      5.48281  eV     1   --> A              
     e( 13 - 13) =      5.54114  eV     1   --> A              
     e( 14 - 14) =      6.97950  eV     1   --> A              
     e( 15 - 15) =      7.90366  eV     1   --> A              
     e( 16 - 16) =      8.93473  eV     1   --> A              
     e( 17 - 17) =      9.04092  eV     1   --> A              
     e( 18 - 18) =      9.20845  eV     1   --> A              
     e( 19 - 19) =      9.33280  eV     1   --> A              
     e( 20 - 20) =     10.35565  eV     1   --> A              

 **************************************************************************

 **************************************************************************

                    xk=(  -0.11111,   0.19245,   0.00000  )

     Band symmetry, C_1 (1)     point group:

     e(  1 -  1) =    -19.47920  eV     1   --> A              
     e(  2 -  2) =    -19.29314  eV     1   --> A              
     e(  3 -  3) =     -7.30531  eV     1   --> A              
     e(  4 -  4) =     -6.31420  eV     1   --> A              
     e(  5 -  5) =     -6.20864  eV     1   --> A              
     e(  6 -  6) =     -6.10720  eV     1   --> A              
     e(  7 -  7) =     -5.21565  eV     1   --> A              
     e(  8 -  8) =     -5.10105  eV     1   --> A              
     e(  9 -  9) =      3.20037  eV     1   --> A              
     e( 10 - 10) =      3.64946  eV     1   --> A              
     e( 11 - 11) =      4.75637  eV     1   --> A              
     e( 12 - 12) =      5.73417  eV     1   --> A              
     e( 13 - 13) =      5.77045  eV     1   --> A              
     e( 14 - 14) =      7.05430  eV     1   --> A              
     e( 15 - 15) =      7.94112  eV     1   --> A              
     e( 16 - 16) =      8.87103  eV     1   --> A              
     e( 17 - 17) =      8.99566  eV     1   --> A              
     e( 18 - 18) =      9.25681  eV     1   --> A              
     e( 19 - 19) =      9.37174  eV     1   --> A              
     e( 20 - 20) =     10.57991  eV     1   --> A              

 **************************************************************************

 **************************************************************************

                    xk=(  -0.12698,   0.21994,   0.00000  )

     Band symmetry, C_1 (1)     point group:

     e(  1 -  1) =    -19.27360  eV     1   --> A              
     e(  2 -  2) =    -19.09102  eV     1   --> A              
     e(  3 -  3) =     -7.03773  eV     1   --> A              
     e(  4 -  4) =     -6.77489  eV     1   --> A              
     e(  5 -  5) =     -6.65559  eV     1   --> A              
     e(  6 -  6) =     -5.95419  eV     1   --> A              
     e(  7 -  7) =     -5.55509  eV     1   --> A              
     e(  8 -  8) =     -5.44035  eV     1   --> A              
     e(  9 -  9) =      3.54800  eV     1   --> A              
     e( 10 - 10) =      3.96750  eV     1   --> A              
     e( 11 - 11) =      5.10826  eV     1   --> A              
     e( 12 - 12) =      5.86890  eV     1   --> A              
     e( 13 - 13) =      6.08277  eV     1   --> A              
     e( 14 - 14) =      7.12331  eV     1   --> A              
     e( 15 - 15) =      7.72159  eV     1   --> A              
     e( 16 - 16) =      8.95113  eV     1   --> A              
     e( 17 - 17) =      9.07571  eV     1   --> A              
     e( 18 - 18) =      9.38064  eV     1   --> A              
     e( 19 - 19) =      9.50185  eV     1   --> A              
     e( 20 - 20) =     10.81417  eV     1   --> A              

 **************************************************************************

 **************************************************************************

                    xk=(  -0.14286,   0.24744,   0.00000  )

     Band symmetry, C_1 (1)     point group:

     e(  1 -  1) =    -19.04584  eV     1   --> A              
     e(  2 -  2) =    -18.86727  eV     1   --> A              
     e(  3 -  3) =     -7.30839  eV     1   --> A              
     e(  4 -  4) =     -7.20226  eV     1   --> A              
     e(  5 -  5) =     -6.67487  eV     1   --> A              
     e(  6 -  6) =     -5.91537  eV     1   --> A              
     e(  7 -  7) =     -5.80182  eV     1   --> A              
     e(  8 -  8) =     -5.66009  eV     1   --> A              
     e(  9 -  9) =      3.93761  eV     1   --> A              
     e( 10 - 10) =      4.30778  eV     1   --> A              
     e( 11 - 11) =      5.48868  eV     1   --> A              
     e( 12 - 12) =      5.87242  eV     1   --> A              
     e( 13 - 13) =      6.36940  eV     1   --> A              
     e( 14 - 14) =      7.25696  eV     1   --> A              
     e( 15 - 15) =      7.40633  eV     1   --> A              
     e( 16 - 16) =      9.20154  eV     1   --> A              
     e( 17 - 17) =      9.25980  eV     1   --> A              
     e( 18 - 18) =      9.55645  eV     1   --> A              
     e( 19 - 19) =      9.68304  eV     1   --> A              
     e( 20 - 20) =     11.06126  eV     1   --> A              

 **************************************************************************

 **************************************************************************

                    xk=(  -0.15873,   0.27493,   0.00000  )

     Band symmetry, C_1 (1)     point group:

     e(  1 -  1) =    -18.79808  eV     1   --> A              
     e(  2 -  2) =    -18.62399  eV     1   --> A              
     e(  3 -  3) =     -7.81556  eV     1   --> A              
     e(  4 -  4) =     -7.70615  eV     1   --> A              
     e(  5 -  5) =     -6.33668  eV     1   --> A              
     e(  6 -  6) =     -6.28654  eV     1   --> A              
     e(  7 -  7) =     -6.16897  eV     1   --> A              
     e(  8 -  8) =     -5.34194  eV     1   --> A              
     e(  9 -  9) =      4.36625  eV     1   --> A              
     e( 10 - 10) =      4.63878  eV     1   --> A              
     e( 11 - 11) =      5.59186  eV     1   --> A              
     e( 12 - 12) =      6.01654  eV     1   --> A              
     e( 13 - 13) =      6.43139  eV     1   --> A              
     e( 14 - 14) =      7.33478  eV     1   --> A              
     e( 15 - 15) =      7.52353  eV     1   --> A              
     e( 16 - 16) =      9.49571  eV     1   --> A              
     e( 17 - 17) =      9.56825  eV     1   --> A              
     e( 18 - 18) =      9.77442  eV     1   --> A              
     e( 19 - 19) =      9.90991  eV     1   --> A              
     e( 20 - 20) =     11.32448  eV     1   --> A              

 **************************************************************************

 **************************************************************************

                    xk=(  -0.17460,   0.30242,   0.00000  )

     Band symmetry, C_1 (1)     point group:

     e(  1 -  1) =    -18.53355  eV     1   --> A              
     e(  2 -  2) =    -18.36454  eV     1   --> A              
     e(  3 -  3) =     -8.30650  eV     1   --> A              
     e(  4 -  4) =     -8.19648  eV     1   --> A              
     e(  5 -  5) =     -6.66610  eV     1   --> A              
     e(  6 -  6) =     -6.55278  eV     1   --> A              
     e(  7 -  7) =     -5.95340  eV     1   --> A              
     e(  8 -  8) =     -4.99889  eV     1   --> A              
     e(  9 -  9) =      4.78720  eV     1   --> A              
     e( 10 - 10) =      4.88942  eV     1   --> A              
     e( 11 - 11) =      5.29641  eV     1   --> A              
     e( 12 - 12) =      6.28011  eV     1   --> A              
     e( 13 - 13) =      6.49030  eV     1   --> A              
     e( 14 - 14) =      7.65942  eV     1   --> A              
     e( 15 - 15) =      7.88334  eV     1   --> A              
     e( 16 - 16) =      9.83450  eV     1   --> A              
     e( 17 - 17) =      9.93243  eV     1   --> A              
     e( 18 - 18) =     10.03082  eV     1   --> A              
     e( 19 - 19) =     10.18250  eV     1   --> A              
     e( 20 - 20) =     11.60721  eV     1   --> A              

 **************************************************************************

 **************************************************************************

                    xk=(  -0.19047,   0.32992,   0.00000  )

     Band symmetry, C_1 (1)     point group:

     e(  1 -  1) =    -18.25687  eV     1   --> A              
     e(  2 -  2) =    -18.09333  eV     1   --> A              
     e(  3 -  3) =     -8.77094  eV     1   --> A              
     e(  4 -  4) =     -8.66077  eV     1   --> A              
     e(  5 -  5) =     -7.04687  eV     1   --> A              
     e(  6 -  6) =     -6.93263  eV     1   --> A              
     e(  7 -  7) =     -5.55219  eV     1   --> A              
     e(  8 -  8) =     -4.63985  eV     1   --> A              
     e(  9 -  9) =      4.72889  eV     1   --> A              
     e( 10 - 10) =      4.85936  eV     1   --> A              
     e( 11 - 11) =      5.40759  eV     1   --> A              
     e( 12 - 12) =      6.36196  eV     1   --> A              
     e( 13 - 13) =      7.02629  eV     1   --> A              
     e( 14 - 14) =      8.13593  eV     1   --> A              
     e( 15 - 15) =      8.31019  eV     1   --> A              
     e( 16 - 16) =     10.21674  eV     1   --> A              
     e( 17 - 17) =     10.25491  eV     1   --> A              
     e( 18 - 18) =     10.35307  eV     1   --> A              
     e( 19 - 19) =     10.51373  eV     1   --> A              
     e( 20 - 20) =     11.90969  eV     1   --> A              

 **************************************************************************

 **************************************************************************

                    xk=(  -0.20635,   0.35741,   0.00000  )

     Band symmetry, C_1 (1)     point group:

     e(  1 -  1) =    -17.97308  eV     1   --> A              
     e(  2 -  2) =    -17.81571  eV     1   --> A              
     e(  3 -  3) =     -9.19990  eV     1   --> A              
     e(  4 -  4) =     -9.08972  eV     1   --> A              
     e(  5 -  5) =     -7.42439  eV     1   --> A              
     e(  6 -  6) =     -7.30957  eV     1   --> A              
     e(  7 -  7) =     -5.13168  eV     1   --> A              
     e(  8 -  8) =     -4.27094  eV     1   --> A              
     e(  9 -  9) =      4.34469  eV     1   --> A              
     e( 10 - 10) =      4.46629  eV     1   --> A              
     e( 11 - 11) =      5.95014  eV     1   --> A              
     e( 12 - 12) =      6.73084  eV     1   --> A              
     e( 13 - 13) =      7.61095  eV     1   --> A              
     e( 14 - 14) =      8.67943  eV     1   --> A              
     e( 15 - 15) =      8.77765  eV     1   --> A              
     e( 16 - 16) =     10.51815  eV     1   --> A              
     e( 17 - 17) =     10.61782  eV     1   --> A              
     e( 18 - 18) =     10.70901  eV     1   --> A              
     e( 19 - 19) =     10.92016  eV     1   --> A              
     e( 20 - 20) =     12.20419  eV     1   --> A              

 **************************************************************************

 **************************************************************************

                    xk=(  -0.22222,   0.38490,   0.00000  )

     Band symmetry, C_1 (1)     point group:

     e(  1 -  1) =    -17.68915  eV     1   --> A              
     e(  2 -  2) =    -17.53854  eV     1   --> A              
     e(  3 -  3) =     -9.58397  eV     1   --> A              
     e(  4 -  4) =     -9.47375  eV     1   --> A              
     e(  5 -  5) =     -7.79399  eV     1   --> A              
     e(  6 -  6) =     -7.67868  eV     1   --> A              
     e(  7 -  7) =     -4.69984  eV     1   --> A              
     e(  8 -  8) =     -3.90169  eV     1   --> A              
     e(  9 -  9) =      3.89801  eV     1   --> A              
     e( 10 - 10) =      4.03249  eV     1   --> A              
     e( 11 - 11) =      6.54369  eV     1   --> A              
     e( 12 - 12) =      7.23578  eV     1   --> A              
     e( 13 - 13) =      8.23860  eV     1   --> A              
     e( 14 - 14) =      9.24745  eV     1   --> A              
     e( 15 - 15) =      9.27753  eV     1   --> A              
     e( 16 - 16) =     10.76070  eV     1   --> A              
     e( 17 - 17) =     10.97445  eV     1   --> A              
     e( 18 - 18) =     11.08268  eV     1   --> A              
     e( 19 - 19) =     11.37489  eV     1   --> A              
     e( 20 - 20) =     12.33428  eV     1   --> A              

 **************************************************************************

 **************************************************************************

                    xk=(  -0.23809,   0.41239,   0.00000  )

     Band symmetry, C_1 (1)     point group:

     e(  1 -  1) =    -17.41386  eV     1   --> A              
     e(  2 -  2) =    -17.27048  eV     1   --> A              
     e(  3 -  3) =     -9.91300  eV     1   --> A              
     e(  4 -  4) =     -9.80261  eV     1   --> A              
     e(  5 -  5) =     -8.15206  eV     1   --> A              
     e(  6 -  6) =     -8.03616  eV     1   --> A              
     e(  7 -  7) =     -4.26641  eV     1   --> A              
     e(  8 -  8) =     -3.54392  eV     1   --> A              
     e(  9 -  9) =      3.46063  eV     1   --> A              
     e( 10 - 10) =      3.60395  eV     1   --> A              
     e( 11 - 11) =      7.17415  eV     1   --> A              
     e( 12 - 12) =      7.80043  eV     1   --> A              
     e( 13 - 13) =      8.90035  eV     1   --> A              
     e( 14 - 14) =      9.71083  eV     1   --> A              
     e( 15 - 15) =      9.87861  eV     1   --> A              
     e( 16 - 16) =     10.98325  eV     1   --> A              
     e( 17 - 17) =     11.29537  eV     1   --> A              
     e( 18 - 18) =     11.39721  eV     1   --> A              
     e( 19 - 19) =     11.83623  eV     1   --> A              
     e( 20 - 20) =     12.26290  eV     1   --> A              

 **************************************************************************

 **************************************************************************

                    xk=(  -0.25397,   0.43989,   0.00000  )

     Band symmetry, C_1 (1)     point group:

     e(  1 -  1) =    -17.15770  eV     1   --> A              
     e(  2 -  2) =    -17.02187  eV     1   --> A              
     e(  3 -  3) =    -10.17702  eV     1   --> A              
     e(  4 -  4) =    -10.06616  eV     1   --> A              
     e(  5 -  5) =     -8.49510  eV     1   --> A              
     e(  6 -  6) =     -8.37859  eV     1   --> A              
     e(  7 -  7) =     -3.84443  eV     1   --> A              
     e(  8 -  8) =     -3.21214  eV     1   --> A              
     e(  9 -  9) =      3.05832  eV     1   --> A              
     e( 10 - 10) =      3.21021  eV     1   --> A              
     e( 11 - 11) =      7.83358  eV     1   --> A              
     e( 12 - 12) =      8.38217  eV     1   --> A              
     e( 13 - 13) =      9.55499  eV     1   --> A              
     e( 14 - 14) =     10.10009  eV     1   --> A              
     e( 15 - 15) =     10.45703  eV     1   --> A              
     e( 16 - 16) =     11.21821  eV     1   --> A              
     e( 17 - 17) =     11.48117  eV     1   --> A              
     e( 18 - 18) =     11.62455  eV     1   --> A              
     e( 19 - 19) =     12.13951  eV     1   --> A              
     e( 20 - 20) =     12.43357  eV     1   --> A              

 **************************************************************************

 **************************************************************************

                    xk=(  -0.26984,   0.46738,   0.00000  )

     Band symmetry, C_1 (1)     point group:

     e(  1 -  1) =    -16.93242  eV     1   --> A              
     e(  2 -  2) =    -16.80371  eV     1   --> A              
     e(  3 -  3) =    -10.36536  eV     1   --> A              
     e(  4 -  4) =    -10.25381  eV     1   --> A              
     e(  5 -  5) =     -8.81916  eV     1   --> A              
     e(  6 -  6) =     -8.70225  eV     1   --> A              
     e(  7 -  7) =     -3.45035  eV     1   --> A              
     e(  8 -  8) =     -2.92444  eV     1   --> A              
     e(  9 -  9) =      2.71085  eV     1   --> A              
     e( 10 - 10) =      2.87248  eV     1   --> A              
     e( 11 - 11) =      8.50636  eV     1   --> A              
     e( 12 - 12) =      8.92975  eV     1   --> A              
     e( 13 - 13) =      9.96011  eV     1   --> A              
     e( 14 - 14) =     10.58057  eV     1   --> A              
     e( 15 - 15) =     10.88900  eV     1   --> A              
     e( 16 - 16) =     11.31562  eV     1   --> A              
     e( 17 - 17) =     11.64262  eV     1   --> A              
     e( 18 - 18) =     12.01555  eV     1   --> A              
     e( 19 - 19) =     12.32861  eV     1   --> A              
     e( 20 - 20) =     12.86593  eV     1   --> A              

 **************************************************************************

 **************************************************************************

                    xk=(  -0.28571,   0.49487,   0.00000  )

     Band symmetry, C_1 (1)     point group:

     e(  1 -  1) =    -16.74981  eV     1   --> A              
     e(  2 -  2) =    -16.62728  eV     1   --> A              
     e(  3 -  3) =    -10.46984  eV     1   --> A              
     e(  4 -  4) =    -10.35755  eV     1   --> A              
     e(  5 -  5) =     -9.11924  eV     1   --> A              
     e(  6 -  6) =     -9.00241  eV     1   --> A              
     e(  7 -  7) =     -3.10545  eV     1   --> A              
     e(  8 -  8) =     -2.69874  eV     1   --> A              
     e(  9 -  9) =      2.43391  eV     1   --> A              
     e( 10 - 10) =      2.60664  eV     1   --> A              
     e( 11 - 11) =      9.12670  eV     1   --> A              
     e( 12 - 12) =      9.39321  eV     1   --> A              
     e( 13 - 13) =      9.99133  eV     1   --> A              
     e( 14 - 14) =     11.12334  eV     1   --> A              
     e( 15 - 15) =     11.23085  eV     1   --> A              
     e( 16 - 16) =     11.38566  eV     1   --> A              
     e( 17 - 17) =     12.00398  eV     1   --> A              
     e( 18 - 18) =     12.48743  eV     1   --> A              
     e( 19 - 19) =     12.68313  eV     1   --> A              
     e( 20 - 20) =     13.25823  eV     1   --> A              

 **************************************************************************

 **************************************************************************

                    xk=(  -0.30158,   0.52237,   0.00000  )

     Band symmetry, C_1 (1)     point group:

     e(  1 -  1) =    -16.61872  eV     1   --> A              
     e(  2 -  2) =    -16.50059  eV     1   --> A              
     e(  3 -  3) =    -10.49001  eV     1   --> A              
     e(  4 -  4) =    -10.37778  eV     1   --> A              
     e(  5 -  5) =     -9.38559  eV     1   --> A              
     e(  6 -  6) =     -9.27030  eV     1   --> A              
     e(  7 -  7) =     -2.83240  eV     1   --> A              
     e(  8 -  8) =     -2.54935  eV     1   --> A              
     e(  9 -  9) =      2.24020  eV     1   --> A              
     e( 10 - 10) =      2.42320  eV     1   --> A              
     e( 11 - 11) =      9.43331  eV     1   --> A              
     e( 12 - 12) =      9.80010  eV     1   --> A              
     e( 13 - 13) =     10.03133  eV     1   --> A              
     e( 14 - 14) =     11.14481  eV     1   --> A              
     e( 15 - 15) =     11.55420  eV     1   --> A              
     e( 16 - 16) =     12.09841  eV     1   --> A              
     e( 17 - 17) =     12.24366  eV     1   --> A              
     e( 18 - 18) =     12.93955  eV     1   --> A              
     e( 19 - 19) =     13.27477  eV     1   --> A              
     e( 20 - 20) =     13.46339  eV     1   --> A              

 **************************************************************************

 **************************************************************************

                    xk=(  -0.31746,   0.54986,   0.00000  )

     Band symmetry, C_1 (1)     point group:

     e(  1 -  1) =    -16.54284  eV     1   --> A              
     e(  2 -  2) =    -16.42719  eV     1   --> A              
     e(  3 -  3) =    -10.44522  eV     1   --> A              
     e(  4 -  4) =    -10.33660  eV     1   --> A              
     e(  5 -  5) =     -9.59526  eV     1   --> A              
     e(  6 -  6) =     -9.48480  eV     1   --> A              
     e(  7 -  7) =     -2.65406  eV     1   --> A              
     e(  8 -  8) =     -2.47683  eV     1   --> A              
     e(  9 -  9) =      2.13380  eV     1   --> A              
     e( 10 - 10) =      2.32184  eV     1   --> A              
     e( 11 - 11) =      9.49950  eV     1   --> A              
     e( 12 - 12) =      9.74557  eV     1   --> A              
     e( 13 - 13) =     10.51844  eV     1   --> A              
     e( 14 - 14) =     11.06997  eV     1   --> A              
     e( 15 - 15) =     11.85186  eV     1   --> A              
     e( 16 - 16) =     12.42963  eV     1   --> A              
     e( 17 - 17) =     12.83085  eV     1   --> A              
     e( 18 - 18) =     13.26815  eV     1   --> A              
     e( 19 - 19) =     13.34814  eV     1   --> A              
     e( 20 - 20) =     13.94844  eV     1   --> A              

 **************************************************************************

 **************************************************************************

                    xk=(  -0.33333,   0.57735,   0.00000  )

     point group C_3 (3)    
     there are  3 classes
     the character table:

       E     C3    C3^2 
A      1.00  1.00  1.00
E      1.00 -0.50 -0.50
E*     1.00 -0.50 -0.50
     imaginary part
A      0.00  0.00  0.00
E      0.00  0.87 -0.87
E*     0.00 -0.87  0.87

     the symmetry operations in each class and the name of the first element:

     E        1
                                                                 
     C3       2
                                                                 
     C3^2     3
                                                                 

     Band symmetry, C_3 (3)     point group:

     e(  1 -  1) =    -16.51917  eV     1   --> A              
     e(  2 -  2) =    -16.40422  eV     1   --> E              
     e(  3 -  3) =    -10.40298  eV     1   --> E              
     e(  4 -  4) =    -10.30015  eV     1   --> E*             
     e(  5 -  5) =     -9.68564  eV     1   --> E*             
     e(  6 -  6) =     -9.58114  eV     1   --> A              
     e(  7 -  7) =     -2.59230  eV     1   --> A              
     e(  8 -  8) =     -2.45954  eV     1   --> E              
     e(  9 -  9) =      2.10397  eV     1   --> E*             
     e( 10 - 10) =      2.29160  eV     1   --> A              
     e( 11 - 11) =      9.50564  eV     1   --> E*             
     e( 12 - 12) =      9.70432  eV     1   --> E              
     e( 13 - 13) =     10.75245  eV     1   --> A              
     e( 14 - 14) =     11.02463  eV     1   --> E*             
     e( 15 - 15) =     11.91660  eV     1   --> E              
     e( 16 - 16) =     12.68477  eV     1   --> A              
     e( 17 - 17) =     12.93354  eV     1   --> E              
     e( 18 - 18) =     13.20345  eV     1   --> E*             
     e( 19 - 19) =     13.86426  eV     1   --> A              
     e( 20 - 20) =     13.94891  eV     1   --> E*             

 **************************************************************************

 **************************************************************************

                    xk=(  -0.30303,   0.57735,   0.00000  )

     point group C_1 (1)    
     there are  1 classes
     the character table:

       E    
A      1.00

     the symmetry operations in each class and the name of the first element:

     E        1
                                                                 

     Band symmetry, C_1 (1)     point group:

     e(  1 -  1) =    -16.53763  eV     1   --> A              
     e(  2 -  2) =    -16.42224  eV     1   --> A              
     e(  3 -  3) =    -10.46059  eV     1   --> A              
     e(  4 -  4) =    -10.34997  eV     1   --> A              
     e(  5 -  5) =     -9.59056  eV     1   --> A              
     e(  6 -  6) =     -9.47859  eV     1   --> A              
     e(  7 -  7) =     -2.63718  eV     1   --> A              
     e(  8 -  8) =     -2.47611  eV     1   --> A              
     e(  9 -  9) =      2.12019  eV     1   --> A              
     e( 10 - 10) =      2.31432  eV     1   --> A              
     e( 11 - 11) =      9.51096  eV     1   --> A              
     e( 12 - 12) =      9.74415  eV     1   --> A              
     e( 13 - 13) =     10.63733  eV     1   --> A              
     e( 14 - 14) =     10.97331  eV     1   --> A              
     e( 15 - 15) =     11.85056  eV     1   --> A              
     e( 16 - 16) =     12.58190  eV     1   --> A              
     e( 17 - 17) =     12.78823  eV     1   --> A              
     e( 18 - 18) =     13.18722  eV     1   --> A              
     e( 19 - 19) =     13.56244  eV     1   --> A              
     e( 20 - 20) =     13.73246  eV     1   --> A              

 **************************************************************************

 **************************************************************************

                    xk=(  -0.27272,   0.57735,   0.00000  )

     Band symmetry, C_1 (1)     point group:

     e(  1 -  1) =    -16.58604  eV     1   --> A              
     e(  2 -  2) =    -16.46963  eV     1   --> A              
     e(  3 -  3) =    -10.59295  eV     1   --> A              
     e(  4 -  4) =    -10.47352  eV     1   --> A              
     e(  5 -  5) =     -9.34070  eV     1   --> A              
     e(  6 -  6) =     -9.22089  eV     1   --> A              
     e(  7 -  7) =     -2.74125  eV     1   --> A              
     e(  8 -  8) =     -2.53232  eV     1   --> A              
     e(  9 -  9) =      2.14725  eV     1   --> A              
     e( 10 - 10) =      2.37194  eV     1   --> A              
     e( 11 - 11) =      9.53111  eV     1   --> A              
     e( 12 - 12) =      9.84755  eV     1   --> A              
     e( 13 - 13) =     10.42498  eV     1   --> A              
     e( 14 - 14) =     10.79326  eV     1   --> A              
     e( 15 - 15) =     11.64513  eV     1   --> A              
     e( 16 - 16) =     12.35873  eV     1   --> A              
     e( 17 - 17) =     12.56465  eV     1   --> A              
     e( 18 - 18) =     12.88501  eV     1   --> A              
     e( 19 - 19) =     13.21033  eV     1   --> A              
     e( 20 - 20) =     13.38829  eV     1   --> A              

 **************************************************************************

 **************************************************************************

                    xk=(  -0.24242,   0.57735,   0.00000  )

     Band symmetry, C_1 (1)     point group:

     e(  1 -  1) =    -16.65427  eV     1   --> A              
     e(  2 -  2) =    -16.53669  eV     1   --> A              
     e(  3 -  3) =    -10.74349  eV     1   --> A              
     e(  4 -  4) =    -10.61946  eV     1   --> A              
     e(  5 -  5) =     -9.00402  eV     1   --> A              
     e(  6 -  6) =     -8.88120  eV     1   --> A              
     e(  7 -  7) =     -2.87312  eV     1   --> A              
     e(  8 -  8) =     -2.62227  eV     1   --> A              
     e(  9 -  9) =      2.16416  eV     1   --> A              
     e( 10 - 10) =      2.44484  eV     1   --> A              
     e( 11 - 11) =      9.52665  eV     1   --> A              
     e( 12 - 12) =      9.94903  eV     1   --> A              
     e( 13 - 13) =     10.18598  eV     1   --> A              
     e( 14 - 14) =     10.58367  eV     1   --> A              
     e( 15 - 15) =     11.37641  eV     1   --> A              
     e( 16 - 16) =     12.05026  eV     1   --> A              
     e( 17 - 17) =     12.23338  eV     1   --> A              
     e( 18 - 18) =     12.58200  eV     1   --> A              
     e( 19 - 19) =     12.87299  eV     1   --> A              
     e( 20 - 20) =     13.00171  eV     1   --> A              

 **************************************************************************

 **************************************************************************

                    xk=(  -0.21212,   0.57735,   0.00000  )

     Band symmetry, C_1 (1)     point group:

     e(  1 -  1) =    -16.73286  eV     1   --> A              
     e(  2 -  2) =    -16.61417  eV     1   --> A              
     e(  3 -  3) =    -10.88887  eV     1   --> A              
     e(  4 -  4) =    -10.76223  eV     1   --> A              
     e(  5 -  5) =     -8.62336  eV     1   --> A              
     e(  6 -  6) =     -8.49985  eV     1   --> A              
     e(  7 -  7) =     -3.01478  eV     1   --> A              
     e(  8 -  8) =     -2.73159  eV     1   --> A              
     e(  9 -  9) =      2.16470  eV     1   --> A              
     e( 10 - 10) =      2.51341  eV     1   --> A              
     e( 11 - 11) =      9.39503  eV     1   --> A              
     e( 12 - 12) =      9.74684  eV     1   --> A              
     e( 13 - 13) =     10.14737  eV     1   --> A              
     e( 14 - 14) =     10.46172  eV     1   --> A              
     e( 15 - 15) =     11.11534  eV     1   --> A              
     e( 16 - 16) =     11.75839  eV     1   --> A              
     e( 17 - 17) =     11.79299  eV     1   --> A              
     e( 18 - 18) =     12.40761  eV     1   --> A              
     e( 19 - 19) =     12.58453  eV     1   --> A              
     e( 20 - 20) =     12.65590  eV     1   --> A              

 **************************************************************************

 **************************************************************************

                    xk=(  -0.18182,   0.57735,   0.00000  )

     Band symmetry, C_1 (1)     point group:

     e(  1 -  1) =    -16.81368  eV     1   --> A              
     e(  2 -  2) =    -16.69400  eV     1   --> A              
     e(  3 -  3) =    -11.01999  eV     1   --> A              
     e(  4 -  4) =    -10.89154  eV     1   --> A              
     e(  5 -  5) =     -8.22526  eV     1   --> A              
     e(  6 -  6) =     -8.10233  eV     1   --> A              
     e(  7 -  7) =     -3.15327  eV     1   --> A              
     e(  8 -  8) =     -2.84606  eV     1   --> A              
     e(  9 -  9) =      2.15059  eV     1   --> A              
     e( 10 - 10) =      2.56636  eV     1   --> A              
     e( 11 - 11) =      9.08513  eV     1   --> A              
     e( 12 - 12) =      9.32835  eV     1   --> A              
     e( 13 - 13) =     10.17817  eV     1   --> A              
     e( 14 - 14) =     10.40462  eV     1   --> A              
     e( 15 - 15) =     10.91280  eV     1   --> A              
     e( 16 - 16) =     11.35696  eV     1   --> A              
     e( 17 - 17) =     11.61418  eV     1   --> A              
     e( 18 - 18) =     12.24366  eV     1   --> A              
     e( 19 - 19) =     12.36323  eV     1   --> A              
     e( 20 - 20) =     12.42640  eV     1   --> A              

 **************************************************************************

 **************************************************************************

                    xk=(  -0.15151,   0.57735,   0.00000  )

     Band symmetry, C_1 (1)     point group:

     e(  1 -  1) =    -16.89089  eV     1   --> A              
     e(  2 -  2) =    -16.77038  eV     1   --> A              
     e(  3 -  3) =    -11.13347  eV     1   --> A              
     e(  4 -  4) =    -11.00353  eV     1   --> A              
     e(  5 -  5) =     -7.83315  eV     1   --> A              
     e(  6 -  6) =     -7.71136  eV     1   --> A              
     e(  7 -  7) =     -3.28081  eV     1   --> A              
     e(  8 -  8) =     -2.95606  eV     1   --> A              
     e(  9 -  9) =      2.12611  eV     1   --> A              
     e( 10 - 10) =      2.60052  eV     1   --> A              
     e( 11 - 11) =      8.66723  eV     1   --> A              
     e( 12 - 12) =      8.84691  eV     1   --> A              
     e( 13 - 13) =     10.15419  eV     1   --> A              
     e( 14 - 14) =     10.31686  eV     1   --> A              
     e( 15 - 15) =     10.75628  eV     1   --> A              
     e( 16 - 16) =     11.00673  eV     1   --> A              
     e( 17 - 17) =     11.62035  eV     1   --> A              
     e( 18 - 18) =     12.04748  eV     1   --> A              
     e( 19 - 19) =     12.13134  eV     1   --> A              
     e( 20 - 20) =     12.39643  eV     1   --> A              

 **************************************************************************

 **************************************************************************

                    xk=(  -0.12121,   0.57735,   0.00000  )

     Band symmetry, C_1 (1)     point group:

     e(  1 -  1) =    -16.95981  eV     1   --> A              
     e(  2 -  2) =    -16.83866  eV     1   --> A              
     e(  3 -  3) =    -11.22776  eV     1   --> A              
     e(  4 -  4) =    -11.09671  eV     1   --> A              
     e(  5 -  5) =     -7.46872  eV     1   --> A              
     e(  6 -  6) =     -7.34802  eV     1   --> A              
     e(  7 -  7) =     -3.39218  eV     1   --> A              
     e(  8 -  8) =     -3.05457  eV     1   --> A              
     e(  9 -  9) =      2.09660  eV     1   --> A              
     e( 10 - 10) =      2.61845  eV     1   --> A              
     e( 11 - 11) =      8.22351  eV     1   --> A              
     e( 12 - 12) =      8.36536  eV     1   --> A              
     e( 13 - 13) =     10.06197  eV     1   --> A              
     e( 14 - 14) =     10.24300  eV     1   --> A              
     e( 15 - 15) =     10.61359  eV     1   --> A              
     e( 16 - 16) =     10.74274  eV     1   --> A              
     e( 17 - 17) =     11.65804  eV     1   --> A              
     e( 18 - 18) =     11.88078  eV     1   --> A              
     e( 19 - 19) =     11.98836  eV     1   --> A              
     e( 20 - 20) =     12.38739  eV     1   --> A              

 **************************************************************************

 **************************************************************************

                    xk=(  -0.09091,   0.57735,   0.00000  )

     Band symmetry, C_1 (1)     point group:

     e(  1 -  1) =    -17.01655  eV     1   --> A              
     e(  2 -  2) =    -16.89492  eV     1   --> A              
     e(  3 -  3) =    -11.30151  eV     1   --> A              
     e(  4 -  4) =    -11.16963  eV     1   --> A              
     e(  5 -  5) =     -7.15353  eV     1   --> A              
     e(  6 -  6) =     -7.03376  eV     1   --> A              
     e(  7 -  7) =     -3.48217  eV     1   --> A              
     e(  8 -  8) =     -3.13540  eV     1   --> A              
     e(  9 -  9) =      2.06760  eV     1   --> A              
     e( 10 - 10) =      2.62506  eV     1   --> A              
     e( 11 - 11) =      7.81640  eV     1   --> A              
     e( 12 - 12) =      7.93671  eV     1   --> A              
     e( 13 - 13) =      9.95578  eV     1   --> A              
     e( 14 - 14) =     10.18053  eV     1   --> A              
     e( 15 - 15) =     10.49032  eV     1   --> A              
     e( 16 - 16) =     10.55917  eV     1   --> A              
     e( 17 - 17) =     11.61003  eV     1   --> A              
     e( 18 - 18) =     11.74087  eV     1   --> A              
     e( 19 - 19) =     11.97126  eV     1   --> A              
     e( 20 - 20) =     12.36338  eV     1   --> A              

 **************************************************************************

 **************************************************************************

                    xk=(  -0.06061,   0.57735,   0.00000  )

     Band symmetry, C_1 (1)     point group:

     e(  1 -  1) =    -17.05865  eV     1   --> A              
     e(  2 -  2) =    -16.93671  eV     1   --> A              
     e(  3 -  3) =    -11.35441  eV     1   --> A              
     e(  4 -  4) =    -11.22205  eV     1   --> A              
     e(  5 -  5) =     -6.90879  eV     1   --> A              
     e(  6 -  6) =     -6.78972  eV     1   --> A              
     e(  7 -  7) =     -3.54768  eV     1   --> A              
     e(  8 -  8) =     -3.19491  eV     1   --> A              
     e(  9 -  9) =      2.04392  eV     1   --> A              
     e( 10 - 10) =      2.62573  eV     1   --> A              
     e( 11 - 11) =      7.49208  eV     1   --> A              
     e( 12 - 12) =      7.60109  eV     1   --> A              
     e( 13 - 13) =      9.87201  eV     1   --> A              
     e( 14 - 14) =     10.12360  eV     1   --> A              
     e( 15 - 15) =     10.39401  eV     1   --> A              
     e( 16 - 16) =     10.44556  eV     1   --> A              
     e( 17 - 17) =     11.53411  eV     1   --> A              
     e( 18 - 18) =     11.63613  eV     1   --> A              
     e( 19 - 19) =     11.99026  eV     1   --> A              
     e( 20 - 20) =     12.32996  eV     1   --> A              

 **************************************************************************

 **************************************************************************

                    xk=(  -0.03030,   0.57735,   0.00000  )

     Band symmetry, C_1 (1)     point group:

     e(  1 -  1) =    -17.08461  eV     1   --> A              
     e(  2 -  2) =    -16.96250  eV     1   --> A              
     e(  3 -  3) =    -11.38609  eV     1   --> A              
     e(  4 -  4) =    -11.25355  eV     1   --> A              
     e(  5 -  5) =     -6.75330  eV     1   --> A              
     e(  6 -  6) =     -6.63460  eV     1   --> A              
     e(  7 -  7) =     -3.58791  eV     1   --> A              
     e(  8 -  8) =     -3.23141  eV     1   --> A              
     e(  9 -  9) =      2.02801  eV     1   --> A              
     e( 10 - 10) =      2.62417  eV     1   --> A              
     e( 11 - 11) =      7.28388  eV     1   --> A              
     e( 12 - 12) =      7.38769  eV     1   --> A              
     e( 13 - 13) =      9.82014  eV     1   --> A              
     e( 14 - 14) =     10.08290  eV     1   --> A              
     e( 15 - 15) =     10.33297  eV     1   --> A              
     e( 16 - 16) =     10.38516  eV     1   --> A              
     e( 17 - 17) =     11.48091  eV     1   --> A              
     e( 18 - 18) =     11.57240  eV     1   --> A              
     e( 19 - 19) =     11.99976  eV     1   --> A              
     e( 20 - 20) =     12.30273  eV     1   --> A              

 **************************************************************************

 **************************************************************************

                    xk=(   0.00000,   0.57735,   0.00000  )

     point group C_s (m)    
     there are  2 classes
     the character table:

       E     s    
A'     1.00  1.00
A''    1.00 -1.00

     the symmetry operations in each class and the name of the first element:

     E        1
                                                                 
     s        2
                                                                 

     Band symmetry, C_s (m)     point group:

     e(  1 -  1) =    -17.09341  eV     1   --> A'             
     e(  2 -  2) =    -16.97121  eV     1   --> A'             
     e(  3 -  3) =    -11.39680  eV     1   --> A'             
     e(  4 -  4) =    -11.26408  eV     1   --> A'             
     e(  5 -  5) =     -6.70004  eV     1   --> A''            
     e(  6 -  6) =     -6.58148  eV     1   --> A''            
     e(  7 -  7) =     -3.60155  eV     1   --> A'             
     e(  8 -  8) =     -3.24399  eV     1   --> A'             
     e(  9 -  9) =      2.02238  eV     1   --> A'             
     e( 10 - 10) =      2.62324  eV     1   --> A'             
     e( 11 - 11) =      7.21203  eV     1   --> A'             
     e( 12 - 12) =      7.31442  eV     1   --> A'             
     e( 13 - 13) =      9.80255  eV     1   --> A'             
     e( 14 - 14) =     10.06815  eV     1   --> A'             
     e( 15 - 15) =     10.31241  eV     1   --> A'             
     e( 16 - 16) =     10.36603  eV     1   --> A'             
     e( 17 - 17) =     11.46242  eV     1   --> A'             
     e( 18 - 18) =     11.55107  eV     1   --> A'             
     e( 19 - 19) =     12.00182  eV     1   --> A'             
     e( 20 - 20) =     12.29250  eV     1   --> A'             

 **************************************************************************

 **************************************************************************

                    xk=(   0.00000,   0.54528,   0.00000  )

     Band symmetry, C_s (m)     point group:

     e(  1 -  1) =    -17.13867  eV     1   --> A'             
     e(  2 -  2) =    -17.01409  eV     1   --> A'             
     e(  3 -  3) =    -11.32862  eV     1   --> A'             
     e(  4 -  4) =    -11.19592  eV     1   --> A'             
     e(  5 -  5) =     -6.68421  eV     1   --> A''            
     e(  6 -  6) =     -6.56563  eV     1   --> A''            
     e(  7 -  7) =     -3.69973  eV     1   --> A'             
     e(  8 -  8) =     -3.28236  eV     1   --> A'             
     e(  9 -  9) =      2.11080  eV     1   --> A'             
     e( 10 - 10) =      2.71197  eV     1   --> A'             
     e( 11 - 11) =      7.14336  eV     1   --> A'             
     e( 12 - 12) =      7.33564  eV     1   --> A'             
     e( 13 - 13) =      9.31730  eV     1   --> A'             
     e( 14 - 14) =      9.54885  eV     1   --> A'             
     e( 15 - 15) =     10.57737  eV     1   --> A'             
     e( 16 - 16) =     10.80704  eV     1   --> A'             
     e( 17 - 17) =     10.96574  eV     1   --> A'             
     e( 18 - 18) =     11.60131  eV     1   --> A'             
     e( 19 - 19) =     11.92256  eV     1   --> A'             
     e( 20 - 20) =     12.38047  eV     1   --> A'             

 **************************************************************************

 **************************************************************************

                    xk=(   0.00000,   0.51320,   0.00000  )

     Band symmetry, C_s (m)     point group:

     e(  1 -  1) =    -17.26715  eV     1   --> A'             
     e(  2 -  2) =    -17.13621  eV     1   --> A'             
     e(  3 -  3) =    -11.12946  eV     1   --> A'             
     e(  4 -  4) =    -10.99673  eV     1   --> A'             
     e(  5 -  5) =     -6.63691  eV     1   --> A''            
     e(  6 -  6) =     -6.51843  eV     1   --> A''            
     e(  7 -  7) =     -3.95223  eV     1   --> A'             
     e(  8 -  8) =     -3.41326  eV     1   --> A'             
     e(  9 -  9) =      2.36541  eV     1   --> A'             
     e( 10 - 10) =      2.96134  eV     1   --> A'             
     e( 11 - 11) =      6.97044  eV     1   --> A'             
     e( 12 - 12) =      7.34735  eV     1   --> A'             
     e( 13 - 13) =      8.75127  eV     1   --> A'             
     e( 14 - 14) =      8.89464  eV     1   --> A'             
     e( 15 - 15) =      9.90293  eV     1   --> A'             
     e( 16 - 16) =     10.84394  eV     1   --> A'             
     e( 17 - 17) =     10.91251  eV     1   --> A'             
     e( 18 - 18) =     11.59661  eV     1   --> A'             
     e( 19 - 19) =     11.97868  eV     1   --> A'             
     e( 20 - 20) =     12.67930  eV     1   --> A'             

 **************************************************************************

 **************************************************************************

                    xk=(   0.00000,   0.48113,   0.00000  )

     Band symmetry, C_s (m)     point group:

     e(  1 -  1) =    -17.46101  eV     1   --> A'             
     e(  2 -  2) =    -17.32199  eV     1   --> A'             
     e(  3 -  3) =    -10.81702  eV     1   --> A'             
     e(  4 -  4) =    -10.68470  eV     1   --> A'             
     e(  5 -  5) =     -6.55848  eV     1   --> A''            
     e(  6 -  6) =     -6.44023  eV     1   --> A''            
     e(  7 -  7) =     -4.29678  eV     1   --> A'             
     e(  8 -  8) =     -3.63765  eV     1   --> A'             
     e(  9 -  9) =      2.75624  eV     1   --> A'             
     e( 10 - 10) =      3.33207  eV     1   --> A'             
     e( 11 - 11) =      6.68236  eV     1   --> A'             
     e( 12 - 12) =      7.29703  eV     1   --> A'             
     e( 13 - 13) =      8.26009  eV     1   --> A'             
     e( 14 - 14) =      8.36153  eV     1   --> A'             
     e( 15 - 15) =      9.19866  eV     1   --> A'             
     e( 16 - 16) =     10.18053  eV     1   --> A'             
     e( 17 - 17) =     10.47521  eV     1   --> A'             
     e( 18 - 18) =     11.83019  eV     1   --> A'             
     e( 19 - 19) =     12.21501  eV     1   --> A'             
     e( 20 - 20) =     12.79462  eV     1   --> A'             

 **************************************************************************

 **************************************************************************

                    xk=(   0.00000,   0.44905,   0.00000  )

     Band symmetry, C_s (m)     point group:

     e(  1 -  1) =    -17.69951  eV     1   --> A'             
     e(  2 -  2) =    -17.55222  eV     1   --> A'             
     e(  3 -  3) =    -10.41298  eV     1   --> A'             
     e(  4 -  4) =    -10.28167  eV     1   --> A'             
     e(  5 -  5) =     -6.45064  eV     1   --> A''            
     e(  6 -  6) =     -6.33245  eV     1   --> A''            
     e(  7 -  7) =     -4.69034  eV     1   --> A'             
     e(  8 -  8) =     -3.93167  eV     1   --> A'             
     e(  9 -  9) =      3.24268  eV     1   --> A'             
     e( 10 - 10) =      3.77868  eV     1   --> A'             
     e( 11 - 11) =      6.28098  eV     1   --> A'             
     e( 12 - 12) =      7.08470  eV     1   --> A'             
     e( 13 - 13) =      7.89404  eV     1   --> A'             
     e( 14 - 14) =      7.99051  eV     1   --> A'             
     e( 15 - 15) =      8.58666  eV     1   --> A'             
     e( 16 - 16) =      9.52617  eV     1   --> A'             
     e( 17 - 17) =      9.99561  eV     1   --> A'             
     e( 18 - 18) =     11.40947  eV     1   --> A'             
     e( 19 - 19) =     12.05530  eV     1   --> A'             
     e( 20 - 20) =     13.07066  eV     1   --> A'             

 **************************************************************************

 **************************************************************************

                    xk=(   0.00000,   0.41698,   0.00000  )

     Band symmetry, C_s (m)     point group:

     e(  1 -  1) =    -17.96319  eV     1   --> A'             
     e(  2 -  2) =    -17.80819  eV     1   --> A'             
     e(  3 -  3) =     -9.93795  eV     1   --> A'             
     e(  4 -  4) =     -9.80839  eV     1   --> A'             
     e(  5 -  5) =     -6.31397  eV     1   --> A''            
     e(  6 -  6) =     -6.19586  eV     1   --> A''            
     e(  7 -  7) =     -5.10331  eV     1   --> A'             
     e(  8 -  8) =     -4.26648  eV     1   --> A'             
     e(  9 -  9) =      3.78052  eV     1   --> A'             
     e( 10 - 10) =      4.25584  eV     1   --> A'             
     e( 11 - 11) =      5.81219  eV     1   --> A'             
     e( 12 - 12) =      6.69792  eV     1   --> A'             
     e( 13 - 13) =      7.53301  eV     1   --> A'             
     e( 14 - 14) =      7.79707  eV     1   --> A'             
     e( 15 - 15) =      8.14862  eV     1   --> A'             
     e( 16 - 16) =      8.93303  eV     1   --> A'             
     e( 17 - 17) =      9.54947  eV     1   --> A'             
     e( 18 - 18) =     10.96453  eV     1   --> A'             
     e( 19 - 19) =     11.52950  eV     1   --> A'             
     e( 20 - 20) =     13.38300  eV     1   --> A'             

 **************************************************************************

 **************************************************************************

                    xk=(   0.00000,   0.38490,   0.00000  )

     Band symmetry, C_s (m)     point group:

     e(  1 -  1) =    -18.23741  eV     1   --> A'             
     e(  2 -  2) =    -18.07559  eV     1   --> A'             
     e(  3 -  3) =     -9.40982  eV     1   --> A'             
     e(  4 -  4) =     -9.28260  eV     1   --> A'             
     e(  5 -  5) =     -6.15049  eV     1   --> A''            
     e(  6 -  6) =     -6.03245  eV     1   --> A''            
     e(  7 -  7) =     -5.51725  eV     1   --> A'             
     e(  8 -  8) =     -4.61883  eV     1   --> A'             
     e(  9 -  9) =      4.30976  eV     1   --> A'             
     e( 10 - 10) =      4.70028  eV     1   --> A'             
     e( 11 - 11) =      5.32793  eV     1   --> A'             
     e( 12 - 12) =      6.32516  eV     1   --> A'             
     e( 13 - 13) =      7.03194  eV     1   --> A'             
     e( 14 - 14) =      7.70996  eV     1   --> A'             
     e( 15 - 15) =      7.86825  eV     1   --> A'             
     e( 16 - 16) =      8.44632  eV     1   --> A'             
     e( 17 - 17) =      9.17818  eV     1   --> A'             
     e( 18 - 18) =     10.54634  eV     1   --> A'             
     e( 19 - 19) =     11.00118  eV     1   --> A'             
     e( 20 - 20) =     13.23396  eV     1   --> A'             

 **************************************************************************

 **************************************************************************

                    xk=(   0.00000,   0.35283,   0.00000  )

     Band symmetry, C_s (m)     point group:

     e(  1 -  1) =    -18.51091  eV     1   --> A'             
     e(  2 -  2) =    -18.34300  eV     1   --> A'             
     e(  3 -  3) =     -8.84373  eV     1   --> A'             
     e(  4 -  4) =     -8.71887  eV     1   --> A'             
     e(  5 -  5) =     -5.96292  eV     1   --> A''            
     e(  6 -  6) =     -5.91906  eV     1   --> A'             
     e(  7 -  7) =     -5.84509  eV     1   --> A''            
     e(  8 -  8) =     -4.97241  eV     1   --> A'             
     e(  9 -  9) =      4.65669  eV     1   --> A'             
     e( 10 - 10) =      4.83506  eV     1   --> A'             
     e( 11 - 11) =      5.09245  eV     1   --> A'             
     e( 12 - 12) =      6.17762  eV     1   --> A'             
     e( 13 - 13) =      6.52069  eV     1   --> A'             
     e( 14 - 14) =      7.51738  eV     1   --> A'             
     e( 15 - 15) =      7.62468  eV     1   --> A'             
     e( 16 - 16) =      8.18027  eV     1   --> A'             
     e( 17 - 17) =      8.90515  eV     1   --> A'             
     e( 18 - 18) =     10.17487  eV     1   --> A'             
     e( 19 - 19) =     10.50820  eV     1   --> A'             
     e( 20 - 20) =     12.90134  eV     1   --> A'             

 **************************************************************************

 **************************************************************************

                    xk=(   0.00000,   0.32075,   0.00000  )

     Band symmetry, C_s (m)     point group:

     e(  1 -  1) =    -18.77560  eV     1   --> A'             
     e(  2 -  2) =    -18.60227  eV     1   --> A'             
     e(  3 -  3) =     -8.25311  eV     1   --> A'             
     e(  4 -  4) =     -8.13108  eV     1   --> A'             
     e(  5 -  5) =     -6.29986  eV     1   --> A'             
     e(  6 -  6) =     -5.75447  eV     1   --> A''            
     e(  7 -  7) =     -5.63685  eV     1   --> A''            
     e(  8 -  8) =     -5.31469  eV     1   --> A'             
     e(  9 -  9) =      4.36278  eV     1   --> A'             
     e( 10 - 10) =      4.61688  eV     1   --> A'             
     e( 11 - 11) =      5.43000  eV     1   --> A'             
     e( 12 - 12) =      6.04118  eV     1   --> A'             
     e( 13 - 13) =      6.33595  eV     1   --> A'             
     e( 14 - 14) =      7.24893  eV     1   --> A'             
     e( 15 - 15) =      7.39924  eV     1   --> A'             
     e( 16 - 16) =      8.13099  eV     1   --> A'             
     e( 17 - 17) =      8.72961  eV     1   --> A'             
     e( 18 - 18) =      9.86397  eV     1   --> A'             
     e( 19 - 19) =     10.06595  eV     1   --> A'             
     e( 20 - 20) =     12.56940  eV     1   --> A'             

 **************************************************************************

 **************************************************************************

                    xk=(   0.00000,   0.28868,   0.00000  )

     Band symmetry, C_s (m)     point group:

     e(  1 -  1) =    -19.02556  eV     1   --> A'             
     e(  2 -  2) =    -18.84747  eV     1   --> A'             
     e(  3 -  3) =     -7.65091  eV     1   --> A'             
     e(  4 -  4) =     -7.53309  eV     1   --> A'             
     e(  5 -  5) =     -6.65127  eV     1   --> A'             
     e(  6 -  6) =     -5.63751  eV     1   --> A'             
     e(  7 -  7) =     -5.52914  eV     1   --> A''            
     e(  8 -  8) =     -5.41164  eV     1   --> A''            
     e(  9 -  9) =      3.94521  eV     1   --> A'             
     e( 10 - 10) =      4.31889  eV     1   --> A'             
     e( 11 - 11) =      5.48710  eV     1   --> A'             
     e( 12 - 12) =      5.80538  eV     1   --> A'             
     e( 13 - 13) =      6.35392  eV     1   --> A'             
     e( 14 - 14) =      7.15914  eV     1   --> A'             
     e( 15 - 15) =      7.33910  eV     1   --> A'             
     e( 16 - 16) =      8.15789  eV     1   --> A'             
     e( 17 - 17) =      8.63560  eV     1   --> A'             
     e( 18 - 18) =      9.62103  eV     1   --> A'             
     e( 19 - 19) =      9.69353  eV     1   --> A'             
     e( 20 - 20) =     12.27088  eV     1   --> A'             

 **************************************************************************

 **************************************************************************

                    xk=(   0.00000,   0.25660,   0.00000  )

     Band symmetry, C_s (m)     point group:

     e(  1 -  1) =    -19.25649  eV     1   --> A'             
     e(  2 -  2) =    -19.07432  eV     1   --> A'             
     e(  3 -  3) =     -7.08516  eV     1   --> A'             
     e(  4 -  4) =     -7.00090  eV     1   --> A'             
     e(  5 -  5) =     -6.86861  eV     1   --> A'             
     e(  6 -  6) =     -5.93397  eV     1   --> A'             
     e(  7 -  7) =     -5.29149  eV     1   --> A''            
     e(  8 -  8) =     -5.17434  eV     1   --> A''            
     e(  9 -  9) =      3.56026  eV     1   --> A'             
     e( 10 - 10) =      3.98549  eV     1   --> A'             
     e( 11 - 11) =      5.12905  eV     1   --> A'             
     e( 12 - 12) =      5.82674  eV     1   --> A'             
     e( 13 - 13) =      6.09502  eV     1   --> A'             
     e( 14 - 14) =      7.09174  eV     1   --> A'             
     e( 15 - 15) =      7.65087  eV     1   --> A'             
     e( 16 - 16) =      8.21560  eV     1   --> A'             
     e( 17 - 17) =      8.61399  eV     1   --> A'             
     e( 18 - 18) =      9.39687  eV     1   --> A'             
     e( 19 - 19) =      9.46935  eV     1   --> A'             
     e( 20 - 20) =     11.98517  eV     1   --> A'             

 **************************************************************************

 **************************************************************************

                    xk=(   0.00000,   0.22453,   0.00000  )

     Band symmetry, C_s (m)     point group:

     e(  1 -  1) =    -19.46550  eV     1   --> A'             
     e(  2 -  2) =    -19.27978  eV     1   --> A'             
     e(  3 -  3) =     -7.28767  eV     1   --> A'             
     e(  4 -  4) =     -6.45988  eV     1   --> A'             
     e(  5 -  5) =     -6.34299  eV     1   --> A'             
     e(  6 -  6) =     -6.17600  eV     1   --> A'             
     e(  7 -  7) =     -5.04837  eV     1   --> A''            
     e(  8 -  8) =     -4.93148  eV     1   --> A''            
     e(  9 -  9) =      3.21389  eV     1   --> A'             
     e( 10 - 10) =      3.66683  eV     1   --> A'             
     e( 11 - 11) =      4.77590  eV     1   --> A'             
     e( 12 - 12) =      5.71878  eV     1   --> A'             
     e( 13 - 13) =      5.78639  eV     1   --> A'             
     e( 14 - 14) =      7.04695  eV     1   --> A'             
     e( 15 - 15) =      7.88448  eV     1   --> A'             
     e( 16 - 16) =      8.37058  eV     1   --> A'             
     e( 17 - 17) =      8.65848  eV     1   --> A'             
     e( 18 - 18) =      9.26036  eV     1   --> A'             
     e( 19 - 19) =      9.36312  eV     1   --> A'             
     e( 20 - 20) =     11.58962  eV     1   --> A'             

 **************************************************************************

 **************************************************************************

                    xk=(   0.00000,   0.19245,   0.00000  )

     Band symmetry, C_s (m)     point group:

     e(  1 -  1) =    -19.65010  eV     1   --> A'             
     e(  2 -  2) =    -19.46127  eV     1   --> A'             
     e(  3 -  3) =     -7.53995  eV     1   --> A'             
     e(  4 -  4) =     -6.46203  eV     1   --> A'             
     e(  5 -  5) =     -5.87065  eV     1   --> A'             
     e(  6 -  6) =     -5.75345  eV     1   --> A'             
     e(  7 -  7) =     -4.80673  eV     1   --> A''            
     e(  8 -  8) =     -4.69019  eV     1   --> A''            
     e(  9 -  9) =      2.90841  eV     1   --> A'             
     e( 10 - 10) =      3.37982  eV     1   --> A'             
     e( 11 - 11) =      4.46406  eV     1   --> A'             
     e( 12 - 12) =      5.49656  eV     1   --> A'             
     e( 13 - 13) =      5.54030  eV     1   --> A'             
     e( 14 - 14) =      6.98094  eV     1   --> A'             
     e( 15 - 15) =      7.86365  eV     1   --> A'             
     e( 16 - 16) =      8.61108  eV     1   --> A'             
     e( 17 - 17) =      8.75012  eV     1   --> A'             
     e( 18 - 18) =      9.28739  eV     1   --> A'             
     e( 19 - 19) =      9.34056  eV     1   --> A'             
     e( 20 - 20) =     11.19583  eV     1   --> A'             

 **************************************************************************

 **************************************************************************

                    xk=(   0.00000,   0.16038,   0.00000  )

     Band symmetry, C_s (m)     point group:

     e(  1 -  1) =    -19.80863  eV     1   --> A'             
     e(  2 -  2) =    -19.61710  eV     1   --> A'             
     e(  3 -  3) =     -7.75801  eV     1   --> A'             
     e(  4 -  4) =     -6.66190  eV     1   --> A'             
     e(  5 -  5) =     -5.34582  eV     1   --> A'             
     e(  6 -  6) =     -5.22961  eV     1   --> A'             
     e(  7 -  7) =     -4.57542  eV     1   --> A''            
     e(  8 -  8) =     -4.45926  eV     1   --> A''            
     e(  9 -  9) =      2.64524  eV     1   --> A'             
     e( 10 - 10) =      3.13118  eV     1   --> A'             
     e( 11 - 11) =      4.19777  eV     1   --> A'             
     e( 12 - 12) =      5.24442  eV     1   --> A'             
     e( 13 - 13) =      5.34678  eV     1   --> A'             
     e( 14 - 14) =      6.88644  eV     1   --> A'             
     e( 15 - 15) =      7.73388  eV     1   --> A'             
     e( 16 - 16) =      8.76339  eV     1   --> A'             
     e( 17 - 17) =      8.86492  eV     1   --> A'             
     e( 18 - 18) =      9.25428  eV     1   --> A'             
     e( 19 - 19) =      9.58026  eV     1   --> A'             
     e( 20 - 20) =     10.63119  eV     1   --> A''            

 **************************************************************************

 **************************************************************************

                    xk=(   0.00000,   0.12830,   0.00000  )

     Band symmetry, C_s (m)     point group:

     e(  1 -  1) =    -19.93998  eV     1   --> A'             
     e(  2 -  2) =    -19.74632  eV     1   --> A'             
     e(  3 -  3) =     -7.93843  eV     1   --> A'             
     e(  4 -  4) =     -6.83056  eV     1   --> A'             
     e(  5 -  5) =     -4.87639  eV     1   --> A'             
     e(  6 -  6) =     -4.76098  eV     1   --> A'             
     e(  7 -  7) =     -4.36589  eV     1   --> A''            
     e(  8 -  8) =     -4.25010  eV     1   --> A''            
     e(  9 -  9) =      2.42561  eV     1   --> A'             
     e( 10 - 10) =      2.92432  eV     1   --> A'             
     e( 11 - 11) =      3.97838  eV     1   --> A'             
     e( 12 - 12) =      5.03410  eV     1   --> A'             
     e( 13 - 13) =      5.16808  eV     1   --> A'             
     e( 14 - 14) =      6.78175  eV     1   --> A'             
     e( 15 - 15) =      7.58107  eV     1   --> A'             
     e( 16 - 16) =      8.86158  eV     1   --> A'             
     e( 17 - 17) =      8.96741  eV     1   --> A'             
     e( 18 - 18) =      9.22226  eV     1   --> A'             
     e( 19 - 19) =      9.87306  eV     1   --> A'             
     e( 20 - 20) =     10.09824  eV     1   --> A''            

 **************************************************************************

 **************************************************************************

                    xk=(   0.00000,   0.09623,   0.00000  )

     Band symmetry, C_s (m)     point group:

     e(  1 -  1) =    -20.04287  eV     1   --> A'             
     e(  2 -  2) =    -19.84752  eV     1   --> A'             
     e(  3 -  3) =     -8.07943  eV     1   --> A'             
     e(  4 -  4) =     -6.96313  eV     1   --> A'             
     e(  5 -  5) =     -4.48207  eV     1   --> A'             
     e(  6 -  6) =     -4.36709  eV     1   --> A'             
     e(  7 -  7) =     -4.18622  eV     1   --> A''            
     e(  8 -  8) =     -4.07083  eV     1   --> A''            
     e(  9 -  9) =      2.25117  eV     1   --> A'             
     e( 10 - 10) =      2.76143  eV     1   --> A'             
     e( 11 - 11) =      3.80673  eV     1   --> A'             
     e( 12 - 12) =      4.86851  eV     1   --> A'             
     e( 13 - 13) =      5.01853  eV     1   --> A'             
     e( 14 - 14) =      6.68525  eV     1   --> A'             
     e( 15 - 15) =      7.44174  eV     1   --> A'             
     e( 16 - 16) =      8.94251  eV     1   --> A'             
     e( 17 - 17) =      9.04512  eV     1   --> A'             
     e( 18 - 18) =      9.19558  eV     1   --> A'             
     e( 19 - 19) =      9.66560  eV     1   --> A''            
     e( 20 - 20) =      9.78189  eV     1   --> A''            

 **************************************************************************

 **************************************************************************

                    xk=(   0.00000,   0.06415,   0.00000  )

     Band symmetry, C_s (m)     point group:

     e(  1 -  1) =    -20.11690  eV     1   --> A'             
     e(  2 -  2) =    -19.92035  eV     1   --> A'             
     e(  3 -  3) =     -8.18065  eV     1   --> A'             
     e(  4 -  4) =     -7.05848  eV     1   --> A'             
     e(  5 -  5) =     -4.18346  eV     1   --> A'             
     e(  6 -  6) =     -4.06865  eV     1   --> A'             
     e(  7 -  7) =     -4.04894  eV     1   --> A''            
     e(  8 -  8) =     -3.93372  eV     1   --> A''            
     e(  9 -  9) =      2.12392  eV     1   --> A'             
     e( 10 - 10) =      2.64384  eV     1   --> A'             
     e( 11 - 11) =      3.68346  eV     1   --> A'             
     e( 12 - 12) =      4.74914  eV     1   --> A'             
     e( 13 - 13) =      4.90612  eV     1   --> A'             
     e( 14 - 14) =      6.60876  eV     1   --> A'             
     e( 15 - 15) =      7.33297  eV     1   --> A'             
     e( 16 - 16) =      9.00787  eV     1   --> A'             
     e( 17 - 17) =      9.09048  eV     1   --> A'             
     e( 18 - 18) =      9.18281  eV     1   --> A'             
     e( 19 - 19) =      9.34554  eV     1   --> A''            
     e( 20 - 20) =      9.46161  eV     1   --> A''            

 **************************************************************************

 **************************************************************************

                    xk=(   0.00000,   0.03208,   0.00000  )

     Band symmetry, C_s (m)     point group:

     e(  1 -  1) =    -20.16135  eV     1   --> A'             
     e(  2 -  2) =    -19.96411  eV     1   --> A'             
     e(  3 -  3) =     -8.24143  eV     1   --> A'             
     e(  4 -  4) =     -7.11570  eV     1   --> A'             
     e(  5 -  5) =     -3.99596  eV     1   --> A'             
     e(  6 -  6) =     -3.96103  eV     1   --> A''            
     e(  7 -  7) =     -3.88107  eV     1   --> A'             
     e(  8 -  8) =     -3.84600  eV     1   --> A''            
     e(  9 -  9) =      2.04623  eV     1   --> A'             
     e( 10 - 10) =      2.57281  eV     1   --> A'             
     e( 11 - 11) =      3.60919  eV     1   --> A'             
     e( 12 - 12) =      4.67711  eV     1   --> A'             
     e( 13 - 13) =      4.83653  eV     1   --> A'             
     e( 14 - 14) =      6.56027  eV     1   --> A'             
     e( 15 - 15) =      7.26438  eV     1   --> A'             
     e( 16 - 16) =      9.05547  eV     1   --> A'             
     e( 17 - 17) =      9.09796  eV     1   --> A'             
     e( 18 - 18) =      9.14886  eV     1   --> A''            
     e( 19 - 19) =      9.19111  eV     1   --> A'             
     e( 20 - 20) =      9.26496  eV     1   --> A''            

 **************************************************************************

 **************************************************************************

                    xk=(   0.00000,   0.00000,   0.00000  )

     point group C_3v (3m)  
     there are  3 classes
     the character table:

       E     2C3   3s_v 
A_1    1.00  1.00  1.00
A_2    1.00  1.00 -1.00
E      2.00 -1.00  0.00

     the symmetry operations in each class and the name of the first element:

     E        1
                                                                 
     2C3      2    3
                                                                 
     3s_v     4    5    6
                                                                 

     Band symmetry, C_3v (3m)   point group:

     e(  1 -  1) =    -20.17614  eV     1   --> A_1  L_1       
     e(  2 -  2) =    -19.97877  eV     1   --> A_1  L_1       
     e(  3 -  3) =     -8.26211  eV     1   --> A_1  L_1       
     e(  4 -  4) =     -7.13499  eV     1   --> A_1  L_1       
     e(  5 -  6) =     -3.93120  eV     2   --> E    L_3       
     e(  7 -  8) =     -3.81620  eV     2   --> E    L_3       
     e(  9 -  9) =      2.02008  eV     1   --> A_1  L_1       
     e( 10 - 10) =      2.54904  eV     1   --> A_1  L_1       
     e( 11 - 11) =      3.58439  eV     1   --> A_1  L_1       
     e( 12 - 12) =      4.65303  eV     1   --> A_1  L_1       
     e( 13 - 13) =      4.81292  eV     1   --> A_1  L_1       
     e( 14 - 14) =      6.54347  eV     1   --> A_1  L_1       
     e( 15 - 15) =      7.24099  eV     1   --> A_1  L_1       
     e( 16 - 17) =      9.08192  eV     2   --> E    L_3       
     e( 18 - 18) =      9.08572  eV     1   --> A_1  L_1       
     e( 19 - 20) =      9.19812  eV     2   --> E    L_3       

 **************************************************************************

     BANDS        :     13.13s CPU     13.55s WALL


   This run was terminated on:  15:25:48  17Apr2024            

=------------------------------------------------------------------------------=
   JOB DONE.
=------------------------------------------------------------------------------=
