
     Program BANDS v.7.2 starts on 15Apr2024 at 12:34:43 

     This program is part of the open-source Quantum ESPRESSO suite
     for quantum simulation of materials; please cite
         "P. Giannozzi et al., J. Phys.:Condens. Matter 21 395502 (2009);
         "P. Giannozzi et al., J. Phys.:Condens. Matter 29 465901 (2017);
         "P. Giannozzi et al., J. Chem. Phys. 152 154105 (2020);
          URL http://www.quantum-espresso.org", 
     in publications or presentations arising from this work. More details at
     http://www.quantum-espresso.org/quote

     Parallel version (MPI & OpenMP), running on       8 processor cores
     Number of MPI processes:                 8
     Threads/MPI process:                     1

     MPI processes distributed on     1 nodes
     R & G space division:  proc/nbgrp/npool/nimage =       8
     0 MiB available memory on the printing compute node when the environment starts


     Reading xml data from directory:

     ./tmp/BN2L_AB1_PBE_vdW.save/

     IMPORTANT: XC functional enforced from input :
     Exchange-correlation= VDW-DF2-B86R
                           (   1   4  26   0   2   0   0)
     Any further DFT definition will be discarded
     Please, verify this is what you really want


     Parallelization info
     --------------------
     sticks:   dense  smooth     PW     G-vecs:    dense   smooth      PW
     Min          45      45     15                 5775     5775    1005
     Max          46      46     16                 5804     5804    1022
     Sum         367     367    121                46381    46381    8133

     Using Slab Decomposition



     %%%%%%%%%%%%%%%%%%%%%%%%%%%%%%%%%%%%%%%%%%%%%%%%%%%%%%%%%%%%%%%%%%%%%%%%
     %                                                                      %
     % You are using vdW-DF, which was implemented by the Thonhauser group. %
     % Please cite the following two papers that made this development      %
     % possible and the two reviews that describe the various versions:     %
     %                                                                      %
     %   T. Thonhauser et al., PRL 115, 136402 (2015).                      %
     %   T. Thonhauser et al., PRB 76, 125112 (2007).                       %
     %   K. Berland et al., Rep. Prog. Phys. 78, 066501 (2015).             %
     %   D.C. Langreth et al., J. Phys.: Condens. Matter 21, 084203 (2009). %
     %                                                                      %
     % If you are calculating stress with vdW-DF, please also cite:         %
     %                                                                      %
     %   R. Sabatini et al., J. Phys.: Condens. Matter 24, 424209 (2012).   %
     %                                                                      %
     %%%%%%%%%%%%%%%%%%%%%%%%%%%%%%%%%%%%%%%%%%%%%%%%%%%%%%%%%%%%%%%%%%%%%%%%

     %%%%%%%%%%%%%%%%%%%%%%%%%%%%%%%%%%%%%%%%%%%%%%%%%%%%%%%%%%%%%%%%%%%%%%%%
     %                                                                      %
     %  vdW-DF NEWS:                                                        %
     %                                                                      %
     %  * vdW-DF3 is now available. DOI: 10.1021/acs.jctc.0c00471           %
     %    use with input_dft = 'vdW-DF3-opt1' or 'vdW-DF3-opt2'             %
     %                                                                      %
     %  * Unscreened and range-separated hybrid vdW-DF-cx functionals       %
     %    DOI: 10.1063/1.4986522 and 10.1088/1361-648X/ac2ad2               %
     %    use with input_dft = 'vdW-DF-cx0'    and 'vdW-DF-ahcx'            %
     %  * Unscreened and range-separated hybrid vdW-DF2-b86r functionals    %
     %    DOI: 10.1063/1.4986522 and DOI: 10.1103/PhysRevX.12.041003        %
     %    use with input_dft = 'vdW-DF2-br0' and 'vdW-DF2-ahbr'             %
     %                                                                      %
     %%%%%%%%%%%%%%%%%%%%%%%%%%%%%%%%%%%%%%%%%%%%%%%%%%%%%%%%%%%%%%%%%%%%%%%%


     Reading collected, re-writing distributed wavefunctions
     high-symmetry point:  0.0000 0.0000 0.0000   x coordinate   0.0000
     high-symmetry point: -0.3333 0.5774 0.0000   x coordinate   0.6667
     high-symmetry point:  0.0000 0.5774 0.0000   x coordinate   1.0000
     high-symmetry point:  0.0000 0.0000 0.0000   x coordinate   1.5773

     Plottable bands (eV) written to file Bande_BN2L_AB1_PBE_vdW.dat.gnu
     Bands written to file Bande_BN2L_AB1_PBE_vdW.dat

 **************************************************************************

                    xk=(   0.00000,   0.00000,   0.00000  )

     point group C_3v (3m)  
     there are  3 classes
     the character table:

       E     2C3   3s_v 
A_1    1.00  1.00  1.00
A_2    1.00  1.00 -1.00
E      2.00 -1.00  0.00

     the symmetry operations in each class and the name of the first element:

     E        1
                                                                 
     2C3      2    3
                                                                 
     3s_v     4    5    6
                                                                 

     Band symmetry, C_3v (3m)   point group:

     e(  1 -  1) =    -20.18804  eV     1   --> A_1  L_1       
     e(  2 -  2) =    -19.98867  eV     1   --> A_1  L_1       
     e(  3 -  3) =     -8.27208  eV     1   --> A_1  L_1       
     e(  4 -  4) =     -7.13660  eV     1   --> A_1  L_1       
     e(  5 -  6) =     -3.90471  eV     2   --> E    L_3       
     e(  7 -  8) =     -3.78922  eV     2   --> E    L_3       
     e(  9 -  9) =      2.03930  eV     1   --> A_1  L_1       
     e( 10 - 10) =      2.56665  eV     1   --> A_1  L_1       
     e( 11 - 11) =      3.60435  eV     1   --> A_1  L_1       
     e( 12 - 12) =      4.67720  eV     1   --> A_1  L_1       
     e( 13 - 13) =      4.84770  eV     1   --> A_1  L_1       
     e( 14 - 14) =      6.58228  eV     1   --> A_1  L_1       
     e( 15 - 15) =      7.28331  eV     1   --> A_1  L_1       
     e( 16 - 16) =      9.14323  eV     1   --> A_1  L_1       
     e( 17 - 18) =      9.14976  eV     2   --> E    L_3       
     e( 19 - 20) =      9.26641  eV     2   --> E    L_3       

 **************************************************************************

 **************************************************************************

                    xk=(  -0.01587,   0.02749,   0.00000  )

     point group C_1 (1)    
     there are  1 classes
     the character table:

       E    
A      1.00

     the symmetry operations in each class and the name of the first element:

     E        1
                                                                 

     Band symmetry, C_1 (1)     point group:

     e(  1 -  1) =    -20.17352  eV     1   --> A              
     e(  2 -  2) =    -19.97433  eV     1   --> A              
     e(  3 -  3) =     -8.25208  eV     1   --> A              
     e(  4 -  4) =     -7.11806  eV     1   --> A              
     e(  5 -  5) =     -3.96783  eV     1   --> A              
     e(  6 -  6) =     -3.93424  eV     1   --> A              
     e(  7 -  7) =     -3.85245  eV     1   --> A              
     e(  8 -  8) =     -3.81871  eV     1   --> A              
     e(  9 -  9) =      2.06494  eV     1   --> A              
     e( 10 - 10) =      2.58999  eV     1   --> A              
     e( 11 - 11) =      3.62873  eV     1   --> A              
     e( 12 - 12) =      4.70085  eV     1   --> A              
     e( 13 - 13) =      4.87088  eV     1   --> A              
     e( 14 - 14) =      6.59859  eV     1   --> A              
     e( 15 - 15) =      7.30626  eV     1   --> A              
     e( 16 - 16) =      9.12091  eV     1   --> A              
     e( 17 - 17) =      9.15840  eV     1   --> A              
     e( 18 - 18) =      9.21467  eV     1   --> A              
     e( 19 - 19) =      9.25864  eV     1   --> A              
     e( 20 - 20) =      9.33144  eV     1   --> A              

 **************************************************************************

 **************************************************************************

                    xk=(  -0.03175,   0.05499,   0.00000  )

     Band symmetry, C_1 (1)     point group:

     e(  1 -  1) =    -20.12975  eV     1   --> A              
     e(  2 -  2) =    -19.93125  eV     1   --> A              
     e(  3 -  3) =     -8.19225  eV     1   --> A              
     e(  4 -  4) =     -7.06179  eV     1   --> A              
     e(  5 -  5) =     -4.15012  eV     1   --> A              
     e(  6 -  6) =     -4.03632  eV     1   --> A              
     e(  7 -  7) =     -4.02066  eV     1   --> A              
     e(  8 -  8) =     -3.90644  eV     1   --> A              
     e(  9 -  9) =      2.14119  eV     1   --> A              
     e( 10 - 10) =      2.65982  eV     1   --> A              
     e( 11 - 11) =      3.70173  eV     1   --> A              
     e( 12 - 12) =      4.77167  eV     1   --> A              
     e( 13 - 13) =      4.93940  eV     1   --> A              
     e( 14 - 14) =      6.64653  eV     1   --> A              
     e( 15 - 15) =      7.37380  eV     1   --> A              
     e( 16 - 16) =      9.08436  eV     1   --> A              
     e( 17 - 17) =      9.15987  eV     1   --> A              
     e( 18 - 18) =      9.24645  eV     1   --> A              
     e( 19 - 19) =      9.39782  eV     1   --> A              
     e( 20 - 20) =      9.51846  eV     1   --> A              

 **************************************************************************

 **************************************************************************

                    xk=(  -0.04762,   0.08248,   0.00000  )

     Band symmetry, C_1 (1)     point group:

     e(  1 -  1) =    -20.05695  eV     1   --> A              
     e(  2 -  2) =    -19.85965  eV     1   --> A              
     e(  3 -  3) =     -8.09269  eV     1   --> A              
     e(  4 -  4) =     -6.96800  eV     1   --> A              
     e(  5 -  5) =     -4.43713  eV     1   --> A              
     e(  6 -  6) =     -4.32263  eV     1   --> A              
     e(  7 -  7) =     -4.16423  eV     1   --> A              
     e(  8 -  8) =     -4.04906  eV     1   --> A              
     e(  9 -  9) =      2.26627  eV     1   --> A              
     e( 10 - 10) =      2.77549  eV     1   --> A              
     e( 11 - 11) =      3.82295  eV     1   --> A              
     e( 12 - 12) =      4.88909  eV     1   --> A              
     e( 13 - 13) =      5.05043  eV     1   --> A              
     e( 14 - 14) =      6.72234  eV     1   --> A              
     e( 15 - 15) =      7.48219  eV     1   --> A              
     e( 16 - 16) =      9.04723  eV     1   --> A              
     e( 17 - 17) =      9.15151  eV     1   --> A              
     e( 18 - 18) =      9.24268  eV     1   --> A              
     e( 19 - 19) =      9.65605  eV     1   --> A              
     e( 20 - 20) =      9.80385  eV     1   --> A              

 **************************************************************************

 **************************************************************************

                    xk=(  -0.06349,   0.10997,   0.00000  )

     Band symmetry, C_1 (1)     point group:

     e(  1 -  1) =    -19.95568  eV     1   --> A              
     e(  2 -  2) =    -19.76002  eV     1   --> A              
     e(  3 -  3) =     -7.95377  eV     1   --> A              
     e(  4 -  4) =     -6.83727  eV     1   --> A              
     e(  5 -  5) =     -4.80980  eV     1   --> A              
     e(  6 -  6) =     -4.69550  eV     1   --> A              
     e(  7 -  7) =     -4.35910  eV     1   --> A              
     e(  8 -  8) =     -4.24397  eV     1   --> A              
     e(  9 -  9) =      2.43820  eV     1   --> A              
     e( 10 - 10) =      2.93595  eV     1   --> A              
     e( 11 - 11) =      3.99191  eV     1   --> A              
     e( 12 - 12) =      5.05223  eV     1   --> A              
     e( 13 - 13) =      5.19940  eV     1   --> A              
     e( 14 - 14) =      6.81876  eV     1   --> A              
     e( 15 - 15) =      7.62539  eV     1   --> A              
     e( 16 - 16) =      9.02187  eV     1   --> A              
     e( 17 - 17) =      9.14268  eV     1   --> A              
     e( 18 - 18) =      9.24853  eV     1   --> A              
     e( 19 - 19) =      9.84497  eV     1   --> A              
     e( 20 - 20) =     10.04730  eV     1   --> A              

 **************************************************************************

 **************************************************************************

                    xk=(  -0.07936,   0.13746,   0.00000  )

     Band symmetry, C_1 (1)     point group:

     e(  1 -  1) =    -19.82651  eV     1   --> A              
     e(  2 -  2) =    -19.63295  eV     1   --> A              
     e(  3 -  3) =     -7.77621  eV     1   --> A              
     e(  4 -  4) =     -6.67130  eV     1   --> A              
     e(  5 -  5) =     -5.24604  eV     1   --> A              
     e(  6 -  6) =     -5.13189  eV     1   --> A              
     e(  7 -  7) =     -4.59982  eV     1   --> A              
     e(  8 -  8) =     -4.48475  eV     1   --> A              
     e(  9 -  9) =      2.65549  eV     1   --> A              
     e( 10 - 10) =      3.13999  eV     1   --> A              
     e( 11 - 11) =      4.20818  eV     1   --> A              
     e( 12 - 12) =      5.25991  eV     1   --> A              
     e( 13 - 13) =      5.37990  eV     1   --> A              
     e( 14 - 14) =      6.92446  eV     1   --> A              
     e( 15 - 15) =      7.79214  eV     1   --> A              
     e( 16 - 16) =      9.01064  eV     1   --> A              
     e( 17 - 17) =      9.14101  eV     1   --> A              
     e( 18 - 18) =      9.26162  eV     1   --> A              
     e( 19 - 19) =      9.61953  eV     1   --> A              
     e( 20 - 20) =     10.21529  eV     1   --> A              

 **************************************************************************

 **************************************************************************

                    xk=(  -0.09524,   0.16496,   0.00000  )

     Band symmetry, C_1 (1)     point group:

     e(  1 -  1) =    -19.67033  eV     1   --> A              
     e(  2 -  2) =    -19.47947  eV     1   --> A              
     e(  3 -  3) =     -7.56140  eV     1   --> A              
     e(  4 -  4) =     -6.47299  eV     1   --> A              
     e(  5 -  5) =     -5.72491  eV     1   --> A              
     e(  6 -  6) =     -5.61091  eV     1   --> A              
     e(  7 -  7) =     -4.88136  eV     1   --> A              
     e(  8 -  8) =     -4.76631  eV     1   --> A              
     e(  9 -  9) =      2.91714  eV     1   --> A              
     e( 10 - 10) =      3.38599  eV     1   --> A              
     e( 11 - 11) =      4.47131  eV     1   --> A              
     e( 12 - 12) =      5.51009  eV     1   --> A              
     e( 13 - 13) =      5.58029  eV     1   --> A              
     e( 14 - 14) =      7.02251  eV     1   --> A              
     e( 15 - 15) =      7.95046  eV     1   --> A              
     e( 16 - 16) =      9.00306  eV     1   --> A              
     e( 17 - 17) =      9.10871  eV     1   --> A              
     e( 18 - 18) =      9.27450  eV     1   --> A              
     e( 19 - 19) =      9.40118  eV     1   --> A              
     e( 20 - 20) =     10.43585  eV     1   --> A              

 **************************************************************************

 **************************************************************************

                    xk=(  -0.11111,   0.19245,   0.00000  )

     Band symmetry, C_1 (1)     point group:

     e(  1 -  1) =    -19.48820  eV     1   --> A              
     e(  2 -  2) =    -19.30033  eV     1   --> A              
     e(  3 -  3) =     -7.31142  eV     1   --> A              
     e(  4 -  4) =     -6.30303  eV     1   --> A              
     e(  5 -  5) =     -6.19327  eV     1   --> A              
     e(  6 -  6) =     -6.09028  eV     1   --> A              
     e(  7 -  7) =     -5.19565  eV     1   --> A              
     e(  8 -  8) =     -5.08061  eV     1   --> A              
     e(  9 -  9) =      3.22264  eV     1   --> A              
     e( 10 - 10) =      3.67137  eV     1   --> A              
     e( 11 - 11) =      4.78065  eV     1   --> A              
     e( 12 - 12) =      5.77577  eV     1   --> A              
     e( 13 - 13) =      5.79935  eV     1   --> A              
     e( 14 - 14) =      7.09843  eV     1   --> A              
     e( 15 - 15) =      7.99369  eV     1   --> A              
     e( 16 - 16) =      8.94040  eV     1   --> A              
     e( 17 - 17) =      9.05438  eV     1   --> A              
     e( 18 - 18) =      9.32237  eV     1   --> A              
     e( 19 - 19) =      9.43931  eV     1   --> A              
     e( 20 - 20) =     10.66261  eV     1   --> A              

 **************************************************************************

 **************************************************************************

                    xk=(  -0.12698,   0.21994,   0.00000  )

     Band symmetry, C_1 (1)     point group:

     e(  1 -  1) =    -19.28163  eV     1   --> A              
     e(  2 -  2) =    -19.09730  eV     1   --> A              
     e(  3 -  3) =     -7.04087  eV     1   --> A              
     e(  4 -  4) =     -6.75649  eV     1   --> A              
     e(  5 -  5) =     -6.63697  eV     1   --> A              
     e(  6 -  6) =     -5.95077  eV     1   --> A              
     e(  7 -  7) =     -5.53657  eV     1   --> A              
     e(  8 -  8) =     -5.42136  eV     1   --> A              
     e(  9 -  9) =      3.57145  eV     1   --> A              
     e( 10 - 10) =      3.99110  eV     1   --> A              
     e( 11 - 11) =      5.13422  eV     1   --> A              
     e( 12 - 12) =      5.91463  eV     1   --> A              
     e( 13 - 13) =      6.11357  eV     1   --> A              
     e( 14 - 14) =      7.16726  eV     1   --> A              
     e( 15 - 15) =      7.77948  eV     1   --> A              
     e( 16 - 16) =      9.01287  eV     1   --> A              
     e( 17 - 17) =      9.13113  eV     1   --> A              
     e( 18 - 18) =      9.44648  eV     1   --> A              
     e( 19 - 19) =      9.57087  eV     1   --> A              
     e( 20 - 20) =     10.89853  eV     1   --> A              

 **************************************************************************

 **************************************************************************

                    xk=(  -0.14286,   0.24744,   0.00000  )

     Band symmetry, C_1 (1)     point group:

     e(  1 -  1) =    -19.05276  eV     1   --> A              
     e(  2 -  2) =    -18.87251  eV     1   --> A              
     e(  3 -  3) =     -7.29109  eV     1   --> A              
     e(  4 -  4) =     -7.18485  eV     1   --> A              
     e(  5 -  5) =     -6.67730  eV     1   --> A              
     e(  6 -  6) =     -5.89850  eV     1   --> A              
     e(  7 -  7) =     -5.78472  eV     1   --> A              
     e(  8 -  8) =     -5.65516  eV     1   --> A              
     e(  9 -  9) =      3.96252  eV     1   --> A              
     e( 10 - 10) =      4.33357  eV     1   --> A              
     e( 11 - 11) =      5.51857  eV     1   --> A              
     e( 12 - 12) =      5.92002  eV     1   --> A              
     e( 13 - 13) =      6.40482  eV     1   --> A              
     e( 14 - 14) =      7.29974  eV     1   --> A              
     e( 15 - 15) =      7.46017  eV     1   --> A              
     e( 16 - 16) =      9.26180  eV     1   --> A              
     e( 17 - 17) =      9.31319  eV     1   --> A              
     e( 18 - 18) =      9.62257  eV     1   --> A              
     e( 19 - 19) =      9.75357  eV     1   --> A              
     e( 20 - 20) =     11.14648  eV     1   --> A              

 **************************************************************************

 **************************************************************************

                    xk=(  -0.15873,   0.27493,   0.00000  )

     Band symmetry, C_1 (1)     point group:

     e(  1 -  1) =    -18.80372  eV     1   --> A              
     e(  2 -  2) =    -18.62802  eV     1   --> A              
     e(  3 -  3) =     -7.79961  eV     1   --> A              
     e(  4 -  4) =     -7.68982  eV     1   --> A              
     e(  5 -  5) =     -6.33774  eV     1   --> A              
     e(  6 -  6) =     -6.27092  eV     1   --> A              
     e(  7 -  7) =     -6.15299  eV     1   --> A              
     e(  8 -  8) =     -5.33548  eV     1   --> A              
     e(  9 -  9) =      4.39279  eV     1   --> A              
     e( 10 - 10) =      4.66810  eV     1   --> A              
     e( 11 - 11) =      5.64339  eV     1   --> A              
     e( 12 - 12) =      6.04614  eV     1   --> A              
     e( 13 - 13) =      6.47662  eV     1   --> A              
     e( 14 - 14) =      7.37659  eV     1   --> A              
     e( 15 - 15) =      7.56588  eV     1   --> A              
     e( 16 - 16) =      9.55077  eV     1   --> A              
     e( 17 - 17) =      9.62817  eV     1   --> A              
     e( 18 - 18) =      9.84050  eV     1   --> A              
     e( 19 - 19) =      9.98218  eV     1   --> A              
     e( 20 - 20) =     11.40973  eV     1   --> A              

 **************************************************************************

 **************************************************************************

                    xk=(  -0.17460,   0.30242,   0.00000  )

     Band symmetry, C_1 (1)     point group:

     e(  1 -  1) =    -18.53798  eV     1   --> A              
     e(  2 -  2) =    -18.36741  eV     1   --> A              
     e(  3 -  3) =     -8.29288  eV     1   --> A              
     e(  4 -  4) =     -8.18248  eV     1   --> A              
     e(  5 -  5) =     -6.65202  eV     1   --> A              
     e(  6 -  6) =     -6.53836  eV     1   --> A              
     e(  7 -  7) =     -5.95310  eV     1   --> A              
     e(  8 -  8) =     -4.99122  eV     1   --> A              
     e(  9 -  9) =      4.81885  eV     1   --> A              
     e( 10 - 10) =      4.92270  eV     1   --> A              
     e( 11 - 11) =      5.34802  eV     1   --> A              
     e( 12 - 12) =      6.32391  eV     1   --> A              
     e( 13 - 13) =      6.52048  eV     1   --> A              
     e( 14 - 14) =      7.69658  eV     1   --> A              
     e( 15 - 15) =      7.92665  eV     1   --> A              
     e( 16 - 16) =      9.88781  eV     1   --> A              
     e( 17 - 17) =      9.99967  eV     1   --> A              
     e( 18 - 18) =     10.09496  eV     1   --> A              
     e( 19 - 19) =     10.25562  eV     1   --> A              
     e( 20 - 20) =     11.69092  eV     1   --> A              

 **************************************************************************

 **************************************************************************

                    xk=(  -0.19047,   0.32992,   0.00000  )

     Band symmetry, C_1 (1)     point group:

     e(  1 -  1) =    -18.25973  eV     1   --> A              
     e(  2 -  2) =    -18.09477  eV     1   --> A              
     e(  3 -  3) =     -8.75929  eV     1   --> A              
     e(  4 -  4) =     -8.64875  eV     1   --> A              
     e(  5 -  5) =     -7.03395  eV     1   --> A              
     e(  6 -  6) =     -6.91929  eV     1   --> A              
     e(  7 -  7) =     -5.54964  eV     1   --> A              
     e(  8 -  8) =     -4.63006  eV     1   --> A              
     e(  9 -  9) =      4.77352  eV     1   --> A              
     e( 10 - 10) =      4.90757  eV     1   --> A              
     e( 11 - 11) =      5.44020  eV     1   --> A              
     e( 12 - 12) =      6.39878  eV     1   --> A              
     e( 13 - 13) =      7.05840  eV     1   --> A              
     e( 14 - 14) =      8.17370  eV     1   --> A              
     e( 15 - 15) =      8.35538  eV     1   --> A              
     e( 16 - 16) =     10.27081  eV     1   --> A              
     e( 17 - 17) =     10.32572  eV     1   --> A              
     e( 18 - 18) =     10.42017  eV     1   --> A              
     e( 19 - 19) =     10.58672  eV     1   --> A              
     e( 20 - 20) =     11.99051  eV     1   --> A              

 **************************************************************************

 **************************************************************************

                    xk=(  -0.20635,   0.35741,   0.00000  )

     Band symmetry, C_1 (1)     point group:

     e(  1 -  1) =    -17.97431  eV     1   --> A              
     e(  2 -  2) =    -17.81558  eV     1   --> A              
     e(  3 -  3) =     -9.19057  eV     1   --> A              
     e(  4 -  4) =     -9.08000  eV     1   --> A              
     e(  5 -  5) =     -7.41232  eV     1   --> A              
     e(  6 -  6) =     -7.29709  eV     1   --> A              
     e(  7 -  7) =     -5.12700  eV     1   --> A              
     e(  8 -  8) =     -4.25934  eV     1   --> A              
     e(  9 -  9) =      4.39113  eV     1   --> A              
     e( 10 - 10) =      4.51311  eV     1   --> A              
     e( 11 - 11) =      5.98361  eV     1   --> A              
     e( 12 - 12) =      6.76547  eV     1   --> A              
     e( 13 - 13) =      7.64539  eV     1   --> A              
     e( 14 - 14) =      8.71908  eV     1   --> A              
     e( 15 - 15) =      8.82492  eV     1   --> A              
     e( 16 - 16) =     10.59157  eV     1   --> A              
     e( 17 - 17) =     10.66989  eV     1   --> A              
     e( 18 - 18) =     10.78302  eV     1   --> A              
     e( 19 - 19) =     10.99290  eV     1   --> A              
     e( 20 - 20) =     12.28056  eV     1   --> A              

 **************************************************************************

 **************************************************************************

                    xk=(  -0.22222,   0.38490,   0.00000  )

     Band symmetry, C_1 (1)     point group:

     e(  1 -  1) =    -17.68864  eV     1   --> A              
     e(  2 -  2) =    -17.53676  eV     1   --> A              
     e(  3 -  3) =     -9.57660  eV     1   --> A              
     e(  4 -  4) =     -9.46599  eV     1   --> A              
     e(  5 -  5) =     -7.78289  eV     1   --> A              
     e(  6 -  6) =     -7.66708  eV     1   --> A              
     e(  7 -  7) =     -4.69282  eV     1   --> A              
     e(  8 -  8) =     -3.88802  eV     1   --> A              
     e(  9 -  9) =      3.94315  eV     1   --> A              
     e( 10 - 10) =      4.07802  eV     1   --> A              
     e( 11 - 11) =      6.57948  eV     1   --> A              
     e( 12 - 12) =      7.27144  eV     1   --> A              
     e( 13 - 13) =      8.27571  eV     1   --> A              
     e( 14 - 14) =      9.29359  eV     1   --> A              
     e( 15 - 15) =      9.32293  eV     1   --> A              
     e( 16 - 16) =     10.83383  eV     1   --> A              
     e( 17 - 17) =     11.03238  eV     1   --> A              
     e( 18 - 18) =     11.15426  eV     1   --> A              
     e( 19 - 19) =     11.44868  eV     1   --> A              
     e( 20 - 20) =     12.40435  eV     1   --> A              

 **************************************************************************

 **************************************************************************

                    xk=(  -0.23809,   0.41239,   0.00000  )

     Band symmetry, C_1 (1)     point group:

     e(  1 -  1) =    -17.41159  eV     1   --> A              
     e(  2 -  2) =    -17.26712  eV     1   --> A              
     e(  3 -  3) =     -9.90830  eV     1   --> A              
     e(  4 -  4) =     -9.79751  eV     1   --> A              
     e(  5 -  5) =     -8.14202  eV     1   --> A              
     e(  6 -  6) =     -8.02567  eV     1   --> A              
     e(  7 -  7) =     -4.25691  eV     1   --> A              
     e(  8 -  8) =     -3.52819  eV     1   --> A              
     e(  9 -  9) =      3.50322  eV     1   --> A              
     e( 10 - 10) =      3.64715  eV     1   --> A              
     e( 11 - 11) =      7.21267  eV     1   --> A              
     e( 12 - 12) =      7.83814  eV     1   --> A              
     e( 13 - 13) =      8.94066  eV     1   --> A              
     e( 14 - 14) =      9.76128  eV     1   --> A              
     e( 15 - 15) =      9.92398  eV     1   --> A              
     e( 16 - 16) =     11.05551  eV     1   --> A              
     e( 17 - 17) =     11.35391  eV     1   --> A              
     e( 18 - 18) =     11.46817  eV     1   --> A              
     e( 19 - 19) =     11.90775  eV     1   --> A              
     e( 20 - 20) =     12.32892  eV     1   --> A              

 **************************************************************************

 **************************************************************************

                    xk=(  -0.25397,   0.43989,   0.00000  )

     Band symmetry, C_1 (1)     point group:

     e(  1 -  1) =    -17.15356  eV     1   --> A              
     e(  2 -  2) =    -17.01666  eV     1   --> A              
     e(  3 -  3) =    -10.17460  eV     1   --> A              
     e(  4 -  4) =    -10.06341  eV     1   --> A              
     e(  5 -  5) =     -8.48544  eV     1   --> A              
     e(  6 -  6) =     -8.36856  eV     1   --> A              
     e(  7 -  7) =     -3.83240  eV     1   --> A              
     e(  8 -  8) =     -3.19442  eV     1   --> A              
     e(  9 -  9) =      3.09861  eV     1   --> A              
     e( 10 - 10) =      3.25128  eV     1   --> A              
     e( 11 - 11) =      7.87528  eV     1   --> A              
     e( 12 - 12) =      8.42248  eV     1   --> A              
     e( 13 - 13) =      9.60019  eV     1   --> A              
     e( 14 - 14) =     10.14878  eV     1   --> A              
     e( 15 - 15) =     10.50634  eV     1   --> A              
     e( 16 - 16) =     11.28847  eV     1   --> A              
     e( 17 - 17) =     11.54361  eV     1   --> A              
     e( 18 - 18) =     11.68696  eV     1   --> A              
     e( 19 - 19) =     12.19618  eV     1   --> A              
     e( 20 - 20) =     12.51630  eV     1   --> A              

 **************************************************************************

 **************************************************************************

                    xk=(  -0.26984,   0.46738,   0.00000  )

     Band symmetry, C_1 (1)     point group:

     e(  1 -  1) =    -16.92656  eV     1   --> A              
     e(  2 -  2) =    -16.79702  eV     1   --> A              
     e(  3 -  3) =    -10.36518  eV     1   --> A              
     e(  4 -  4) =    -10.25335  eV     1   --> A              
     e(  5 -  5) =     -8.80974  eV     1   --> A              
     e(  6 -  6) =     -8.69246  eV     1   --> A              
     e(  7 -  7) =     -3.43629  eV     1   --> A              
     e(  8 -  8) =     -2.90530  eV     1   --> A              
     e(  9 -  9) =      2.74906  eV     1   --> A              
     e( 10 - 10) =      2.91162  eV     1   --> A              
     e( 11 - 11) =      8.55186  eV     1   --> A              
     e( 12 - 12) =      8.97257  eV     1   --> A              
     e( 13 - 13) =     10.00970  eV     1   --> A              
     e( 14 - 14) =     10.62513  eV     1   --> A              
     e( 15 - 15) =     10.94098  eV     1   --> A              
     e( 16 - 16) =     11.38401  eV     1   --> A              
     e( 17 - 17) =     11.70494  eV     1   --> A              
     e( 18 - 18) =     12.07429  eV     1   --> A              
     e( 19 - 19) =     12.38736  eV     1   --> A              
     e( 20 - 20) =     12.95185  eV     1   --> A              

 **************************************************************************

 **************************************************************************

                    xk=(  -0.28571,   0.49487,   0.00000  )

     Band symmetry, C_1 (1)     point group:

     e(  1 -  1) =    -16.74233  eV     1   --> A              
     e(  2 -  2) =    -16.61907  eV     1   --> A              
     e(  3 -  3) =    -10.47214  eV     1   --> A              
     e(  4 -  4) =    -10.35942  eV     1   --> A              
     e(  5 -  5) =     -9.10926  eV     1   --> A              
     e(  6 -  6) =     -8.99218  eV     1   --> A              
     e(  7 -  7) =     -3.08902  eV     1   --> A              
     e(  8 -  8) =     -2.67854  eV     1   --> A              
     e(  9 -  9) =      2.47053  eV     1   --> A              
     e( 10 - 10) =      2.64435  eV     1   --> A              
     e( 11 - 11) =      9.17560  eV     1   --> A              
     e( 12 - 12) =      9.43890  eV     1   --> A              
     e( 13 - 13) =     10.03722  eV     1   --> A              
     e( 14 - 14) =     11.17429  eV     1   --> A              
     e( 15 - 15) =     11.29624  eV     1   --> A              
     e( 16 - 16) =     11.43794  eV     1   --> A              
     e( 17 - 17) =     12.06797  eV     1   --> A              
     e( 18 - 18) =     12.54757  eV     1   --> A              
     e( 19 - 19) =     12.74135  eV     1   --> A              
     e( 20 - 20) =     13.34062  eV     1   --> A              

 **************************************************************************

 **************************************************************************

                    xk=(  -0.30158,   0.52237,   0.00000  )

     Band symmetry, C_1 (1)     point group:

     e(  1 -  1) =    -16.61013  eV     1   --> A              
     e(  2 -  2) =    -16.49143  eV     1   --> A              
     e(  3 -  3) =    -10.49508  eV     1   --> A              
     e(  4 -  4) =    -10.38259  eV     1   --> A              
     e(  5 -  5) =     -9.37495  eV     1   --> A              
     e(  6 -  6) =     -9.25939  eV     1   --> A              
     e(  7 -  7) =     -2.81418  eV     1   --> A              
     e(  8 -  8) =     -2.52856  eV     1   --> A              
     e(  9 -  9) =      2.27555  eV     1   --> A              
     e( 10 - 10) =      2.45985  eV     1   --> A              
     e( 11 - 11) =      9.48044  eV     1   --> A              
     e( 12 - 12) =      9.84736  eV     1   --> A              
     e( 13 - 13) =     10.07946  eV     1   --> A              
     e( 14 - 14) =     11.21131  eV     1   --> A              
     e( 15 - 15) =     11.60964  eV     1   --> A              
     e( 16 - 16) =     12.15226  eV     1   --> A              
     e( 17 - 17) =     12.30058  eV     1   --> A              
     e( 18 - 18) =     12.99946  eV     1   --> A              
     e( 19 - 19) =     13.34203  eV     1   --> A              
     e( 20 - 20) =     13.52808  eV     1   --> A              

 **************************************************************************

 **************************************************************************

                    xk=(  -0.31746,   0.54986,   0.00000  )

     Band symmetry, C_1 (1)     point group:

     e(  1 -  1) =    -16.53344  eV     1   --> A              
     e(  2 -  2) =    -16.41727  eV     1   --> A              
     e(  3 -  3) =    -10.45287  eV     1   --> A              
     e(  4 -  4) =    -10.34406  eV     1   --> A              
     e(  5 -  5) =     -9.58250  eV     1   --> A              
     e(  6 -  6) =     -9.47173  eV     1   --> A              
     e(  7 -  7) =     -2.63435  eV     1   --> A              
     e(  8 -  8) =     -2.45581  eV     1   --> A              
     e(  9 -  9) =      2.16855  eV     1   --> A              
     e( 10 - 10) =      2.35801  eV     1   --> A              
     e( 11 - 11) =      9.54597  eV     1   --> A              
     e( 12 - 12) =      9.78665  eV     1   --> A              
     e( 13 - 13) =     10.57904  eV     1   --> A              
     e( 14 - 14) =     11.13400  eV     1   --> A              
     e( 15 - 15) =     11.90968  eV     1   --> A              
     e( 16 - 16) =     12.48213  eV     1   --> A              
     e( 17 - 17) =     12.88762  eV     1   --> A              
     e( 18 - 18) =     13.32484  eV     1   --> A              
     e( 19 - 19) =     13.41287  eV     1   --> A              
     e( 20 - 20) =     14.01140  eV     1   --> A              

 **************************************************************************

 **************************************************************************

                    xk=(  -0.33333,   0.57735,   0.00000  )

     point group C_3 (3)    
     there are  3 classes
     the character table:

       E     C3    C3^2 
A      1.00  1.00  1.00
E      1.00 -0.50 -0.50
E*     1.00 -0.50 -0.50
     imaginary part
A      0.00  0.00  0.00
E      0.00  0.87 -0.87
E*     0.00 -0.87  0.87

     the symmetry operations in each class and the name of the first element:

     E        1
                                                                 
     C3       2
                                                                 
     C3^2     3
                                                                 

     Band symmetry, C_3 (3)     point group:

     e(  1 -  1) =    -16.50972  eV     1   --> A              
     e(  2 -  2) =    -16.39428  eV     1   --> E              
     e(  3 -  3) =    -10.41287  eV     1   --> E              
     e(  4 -  4) =    -10.30950  eV     1   --> E*             
     e(  5 -  5) =     -9.67166  eV     1   --> E*             
     e(  6 -  6) =     -9.56662  eV     1   --> A              
     e(  7 -  7) =     -2.57235  eV     1   --> A              
     e(  8 -  8) =     -2.43890  eV     1   --> E              
     e(  9 -  9) =      2.13844  eV     1   --> E*             
     e( 10 - 10) =      2.32753  eV     1   --> A              
     e( 11 - 11) =      9.55195  eV     1   --> E*             
     e( 12 - 12) =      9.74401  eV     1   --> E              
     e( 13 - 13) =     10.82041  eV     1   --> A              
     e( 14 - 14) =     11.08363  eV     1   --> E*             
     e( 15 - 15) =     11.97219  eV     1   --> E              
     e( 16 - 16) =     12.73737  eV     1   --> A              
     e( 17 - 17) =     12.98896  eV     1   --> E              
     e( 18 - 18) =     13.26618  eV     1   --> E*             
     e( 19 - 19) =     13.92416  eV     1   --> A              
     e( 20 - 20) =     14.00993  eV     1   --> E*             

 **************************************************************************

 **************************************************************************

                    xk=(  -0.30303,   0.57735,   0.00000  )

     point group C_1 (1)    
     there are  1 classes
     the character table:

       E    
A      1.00

     the symmetry operations in each class and the name of the first element:

     E        1
                                                                 

     Band symmetry, C_1 (1)     point group:

     e(  1 -  1) =    -16.52817  eV     1   --> A              
     e(  2 -  2) =    -16.41227  eV     1   --> A              
     e(  3 -  3) =    -10.46811  eV     1   --> A              
     e(  4 -  4) =    -10.35731  eV     1   --> A              
     e(  5 -  5) =     -9.57805  eV     1   --> A              
     e(  6 -  6) =     -9.46575  eV     1   --> A              
     e(  7 -  7) =     -2.61730  eV     1   --> A              
     e(  8 -  8) =     -2.45508  eV     1   --> A              
     e(  9 -  9) =      2.15479  eV     1   --> A              
     e( 10 - 10) =      2.35047  eV     1   --> A              
     e( 11 - 11) =      9.55764  eV     1   --> A              
     e( 12 - 12) =      9.78486  eV     1   --> A              
     e( 13 - 13) =     10.70250  eV     1   --> A              
     e( 14 - 14) =     11.03267  eV     1   --> A              
     e( 15 - 15) =     11.90875  eV     1   --> A              
     e( 16 - 16) =     12.63478  eV     1   --> A              
     e( 17 - 17) =     12.84364  eV     1   --> A              
     e( 18 - 18) =     13.25363  eV     1   --> A              
     e( 19 - 19) =     13.61831  eV     1   --> A              
     e( 20 - 20) =     13.79112  eV     1   --> A              

 **************************************************************************

 **************************************************************************

                    xk=(  -0.27272,   0.57735,   0.00000  )

     Band symmetry, C_1 (1)     point group:

     e(  1 -  1) =    -16.57709  eV     1   --> A              
     e(  2 -  2) =    -16.46015  eV     1   --> A              
     e(  3 -  3) =    -10.59800  eV     1   --> A              
     e(  4 -  4) =    -10.47826  eV     1   --> A              
     e(  5 -  5) =     -9.33049  eV     1   --> A              
     e(  6 -  6) =     -9.21033  eV     1   --> A              
     e(  7 -  7) =     -2.72216  eV     1   --> A              
     e(  8 -  8) =     -2.51156  eV     1   --> A              
     e(  9 -  9) =      2.18178  eV     1   --> A              
     e( 10 - 10) =      2.40829  eV     1   --> A              
     e( 11 - 11) =      9.57969  eV     1   --> A              
     e( 12 - 12) =      9.89061  eV     1   --> A              
     e( 13 - 13) =     10.48731  eV     1   --> A              
     e( 14 - 14) =     10.84995  eV     1   --> A              
     e( 15 - 15) =     11.70579  eV     1   --> A              
     e( 16 - 16) =     12.41341  eV     1   --> A              
     e( 17 - 17) =     12.62054  eV     1   --> A              
     e( 18 - 18) =     12.95289  eV     1   --> A              
     e( 19 - 19) =     13.26442  eV     1   --> A              
     e( 20 - 20) =     13.44901  eV     1   --> A              

 **************************************************************************

 **************************************************************************

                    xk=(  -0.24242,   0.57735,   0.00000  )

     Band symmetry, C_1 (1)     point group:

     e(  1 -  1) =    -16.64589  eV     1   --> A              
     e(  2 -  2) =    -16.52773  eV     1   --> A              
     e(  3 -  3) =    -10.74684  eV     1   --> A              
     e(  4 -  4) =    -10.62225  eV     1   --> A              
     e(  5 -  5) =     -8.99484  eV     1   --> A              
     e(  6 -  6) =     -8.87152  eV     1   --> A              
     e(  7 -  7) =     -2.85481  eV     1   --> A              
     e(  8 -  8) =     -2.60192  eV     1   --> A              
     e(  9 -  9) =      2.19839  eV     1   --> A              
     e( 10 - 10) =      2.48141  eV     1   --> A              
     e( 11 - 11) =      9.58032  eV     1   --> A              
     e( 12 - 12) =      9.99917  eV     1   --> A              
     e( 13 - 13) =     10.24378  eV     1   --> A              
     e( 14 - 14) =     10.63625  eV     1   --> A              
     e( 15 - 15) =     11.43916  eV     1   --> A              
     e( 16 - 16) =     12.10452  eV     1   --> A              
     e( 17 - 17) =     12.29517  eV     1   --> A              
     e( 18 - 18) =     12.64475  eV     1   --> A              
     e( 19 - 19) =     12.92567  eV     1   --> A              
     e( 20 - 20) =     13.05946  eV     1   --> A              

 **************************************************************************

 **************************************************************************

                    xk=(  -0.21212,   0.57735,   0.00000  )

     Band symmetry, C_1 (1)     point group:

     e(  1 -  1) =    -16.72501  eV     1   --> A              
     e(  2 -  2) =    -16.60574  eV     1   --> A              
     e(  3 -  3) =    -10.89102  eV     1   --> A              
     e(  4 -  4) =    -10.76372  eV     1   --> A              
     e(  5 -  5) =     -8.61407  eV     1   --> A              
     e(  6 -  6) =     -8.49001  eV     1   --> A              
     e(  7 -  7) =     -2.99721  eV     1   --> A              
     e(  8 -  8) =     -2.71172  eV     1   --> A              
     e(  9 -  9) =      2.19848  eV     1   --> A              
     e( 10 - 10) =      2.55019  eV     1   --> A              
     e( 11 - 11) =      9.45644  eV     1   --> A              
     e( 12 - 12) =      9.81403  eV     1   --> A              
     e( 13 - 13) =     10.19299  eV     1   --> A              
     e( 14 - 14) =     10.51020  eV     1   --> A              
     e( 15 - 15) =     11.17940  eV     1   --> A              
     e( 16 - 16) =     11.81199  eV     1   --> A              
     e( 17 - 17) =     11.85528  eV     1   --> A              
     e( 18 - 18) =     12.46522  eV     1   --> A              
     e( 19 - 19) =     12.63587  eV     1   --> A              
     e( 20 - 20) =     12.71006  eV     1   --> A              

 **************************************************************************

 **************************************************************************

                    xk=(  -0.18182,   0.57735,   0.00000  )

     Band symmetry, C_1 (1)     point group:

     e(  1 -  1) =    -16.80655  eV     1   --> A              
     e(  2 -  2) =    -16.68627  eV     1   --> A              
     e(  3 -  3) =    -11.02170  eV     1   --> A              
     e(  4 -  4) =    -10.89256  eV     1   --> A              
     e(  5 -  5) =     -8.21551  eV     1   --> A              
     e(  6 -  6) =     -8.09195  eV     1   --> A              
     e(  7 -  7) =     -3.13662  eV     1   --> A              
     e(  8 -  8) =     -2.82691  eV     1   --> A              
     e(  9 -  9) =      2.18368  eV     1   --> A              
     e( 10 - 10) =      2.60299  eV     1   --> A              
     e( 11 - 11) =      9.15259  eV     1   --> A              
     e( 12 - 12) =      9.39993  eV     1   --> A              
     e( 13 - 13) =     10.22407  eV     1   --> A              
     e( 14 - 14) =     10.45234  eV     1   --> A              
     e( 15 - 15) =     10.97383  eV     1   --> A              
     e( 16 - 16) =     11.41823  eV     1   --> A              
     e( 17 - 17) =     11.66513  eV     1   --> A              
     e( 18 - 18) =     12.29722  eV     1   --> A              
     e( 19 - 19) =     12.41535  eV     1   --> A              
     e( 20 - 20) =     12.47822  eV     1   --> A              

 **************************************************************************

 **************************************************************************

                    xk=(  -0.15151,   0.57735,   0.00000  )

     Band symmetry, C_1 (1)     point group:

     e(  1 -  1) =    -16.88447  eV     1   --> A              
     e(  2 -  2) =    -16.76333  eV     1   --> A              
     e(  3 -  3) =    -11.13495  eV     1   --> A              
     e(  4 -  4) =    -11.00424  eV     1   --> A              
     e(  5 -  5) =     -7.82294  eV     1   --> A              
     e(  6 -  6) =     -7.70056  eV     1   --> A              
     e(  7 -  7) =     -3.26505  eV     1   --> A              
     e(  8 -  8) =     -2.93758  eV     1   --> A              
     e(  9 -  9) =      2.15857  eV     1   --> A              
     e( 10 - 10) =      2.63693  eV     1   --> A              
     e( 11 - 11) =      8.73829  eV     1   --> A              
     e( 12 - 12) =      8.92115  eV     1   --> A              
     e( 13 - 13) =     10.20157  eV     1   --> A              
     e( 14 - 14) =     10.36457  eV     1   --> A              
     e( 15 - 15) =     10.81141  eV     1   --> A              
     e( 16 - 16) =     11.06398  eV     1   --> A              
     e( 17 - 17) =     11.67329  eV     1   --> A              
     e( 18 - 18) =     12.09920  eV     1   --> A              
     e( 19 - 19) =     12.18148  eV     1   --> A              
     e( 20 - 20) =     12.44946  eV     1   --> A              

 **************************************************************************

 **************************************************************************

                    xk=(  -0.12121,   0.57735,   0.00000  )

     Band symmetry, C_1 (1)     point group:

     e(  1 -  1) =    -16.95387  eV     1   --> A              
     e(  2 -  2) =    -16.83208  eV     1   --> A              
     e(  3 -  3) =    -11.22892  eV     1   --> A              
     e(  4 -  4) =    -11.09709  eV     1   --> A              
     e(  5 -  5) =     -7.45791  eV     1   --> A              
     e(  6 -  6) =     -7.33659  eV     1   --> A              
     e(  7 -  7) =     -3.37650  eV     1   --> A              
     e(  8 -  8) =     -3.03614  eV     1   --> A              
     e(  9 -  9) =      2.12856  eV     1   --> A              
     e( 10 - 10) =      2.65456  eV     1   --> A              
     e( 11 - 11) =      8.29701  eV     1   --> A              
     e( 12 - 12) =      8.44101  eV     1   --> A              
     e( 13 - 13) =     10.11027  eV     1   --> A              
     e( 14 - 14) =     10.28999  eV     1   --> A              
     e( 15 - 15) =     10.66464  eV     1   --> A              
     e( 16 - 16) =     10.79650  eV     1   --> A              
     e( 17 - 17) =     11.71122  eV     1   --> A              
     e( 18 - 18) =     11.93192  eV     1   --> A              
     e( 19 - 19) =     12.03915  eV     1   --> A              
     e( 20 - 20) =     12.44093  eV     1   --> A              

 **************************************************************************

 **************************************************************************

                    xk=(  -0.09091,   0.57735,   0.00000  )

     Band symmetry, C_1 (1)     point group:

     e(  1 -  1) =    -17.01095  eV     1   --> A              
     e(  2 -  2) =    -16.88869  eV     1   --> A              
     e(  3 -  3) =    -11.30238  eV     1   --> A              
     e(  4 -  4) =    -11.16984  eV     1   --> A              
     e(  5 -  5) =     -7.14210  eV     1   --> A              
     e(  6 -  6) =     -7.02175  eV     1   --> A              
     e(  7 -  7) =     -3.46693  eV     1   --> A              
     e(  8 -  8) =     -3.11752  eV     1   --> A              
     e(  9 -  9) =      2.09922  eV     1   --> A              
     e( 10 - 10) =      2.66102  eV     1   --> A              
     e( 11 - 11) =      7.89129  eV     1   --> A              
     e( 12 - 12) =      8.01290  eV     1   --> A              
     e( 13 - 13) =     10.00398  eV     1   --> A              
     e( 14 - 14) =     10.22724  eV     1   --> A              
     e( 15 - 15) =     10.53932  eV     1   --> A              
     e( 16 - 16) =     10.61033  eV     1   --> A              
     e( 17 - 17) =     11.66067  eV     1   --> A              
     e( 18 - 18) =     11.79084  eV     1   --> A              
     e( 19 - 19) =     12.02574  eV     1   --> A              
     e( 20 - 20) =     12.41721  eV     1   --> A              

 **************************************************************************

 **************************************************************************

                    xk=(  -0.06061,   0.57735,   0.00000  )

     Band symmetry, C_1 (1)     point group:

     e(  1 -  1) =    -17.05346  eV     1   --> A              
     e(  2 -  2) =    -16.93087  eV     1   --> A              
     e(  3 -  3) =    -11.35531  eV     1   --> A              
     e(  4 -  4) =    -11.22226  eV     1   --> A              
     e(  5 -  5) =     -6.89694  eV     1   --> A              
     e(  6 -  6) =     -6.77737  eV     1   --> A              
     e(  7 -  7) =     -3.53341  eV     1   --> A              
     e(  8 -  8) =     -3.17758  eV     1   --> A              
     e(  9 -  9) =      2.07471  eV     1   --> A              
     e( 10 - 10) =      2.66129  eV     1   --> A              
     e( 11 - 11) =      7.56743  eV     1   --> A              
     e( 12 - 12) =      7.67732  eV     1   --> A              
     e( 13 - 13) =      9.91960  eV     1   --> A              
     e( 14 - 14) =     10.16999  eV     1   --> A              
     e( 15 - 15) =     10.44206  eV     1   --> A              
     e( 16 - 16) =     10.49468  eV     1   --> A              
     e( 17 - 17) =     11.58326  eV     1   --> A              
     e( 18 - 18) =     11.68529  eV     1   --> A              
     e( 19 - 19) =     12.04580  eV     1   --> A              
     e( 20 - 20) =     12.38362  eV     1   --> A              

 **************************************************************************

 **************************************************************************

                    xk=(  -0.03030,   0.57735,   0.00000  )

     Band symmetry, C_1 (1)     point group:

     e(  1 -  1) =    -17.07957  eV     1   --> A              
     e(  2 -  2) =    -16.95677  eV     1   --> A              
     e(  3 -  3) =    -11.38717  eV     1   --> A              
     e(  4 -  4) =    -11.25382  eV     1   --> A              
     e(  5 -  5) =     -6.74089  eV     1   --> A              
     e(  6 -  6) =     -6.62178  eV     1   --> A              
     e(  7 -  7) =     -3.57370  eV     1   --> A              
     e(  8 -  8) =     -3.21454  eV     1   --> A              
     e(  9 -  9) =      2.05862  eV     1   --> A              
     e( 10 - 10) =      2.65945  eV     1   --> A              
     e( 11 - 11) =      7.35923  eV     1   --> A              
     e( 12 - 12) =      7.46372  eV     1   --> A              
     e( 13 - 13) =      9.86728  eV     1   --> A              
     e( 14 - 14) =     10.12903  eV     1   --> A              
     e( 15 - 15) =     10.38063  eV     1   --> A              
     e( 16 - 16) =     10.43326  eV     1   --> A              
     e( 17 - 17) =     11.52949  eV     1   --> A              
     e( 18 - 18) =     11.62115  eV     1   --> A              
     e( 19 - 19) =     12.05568  eV     1   --> A              
     e( 20 - 20) =     12.35628  eV     1   --> A              

 **************************************************************************

 **************************************************************************

                    xk=(   0.00000,   0.57735,   0.00000  )

     point group C_s (m)    
     there are  2 classes
     the character table:

       E     s    
A'     1.00  1.00
A''    1.00 -1.00

     the symmetry operations in each class and the name of the first element:

     E        1
                                                                 
     s        2
                                                                 

     Band symmetry, C_s (m)     point group:

     e(  1 -  1) =    -17.08857  eV     1   --> A'             
     e(  2 -  2) =    -16.96572  eV     1   --> A'             
     e(  3 -  3) =    -11.39786  eV     1   --> A'             
     e(  4 -  4) =    -11.26440  eV     1   --> A'             
     e(  5 -  5) =     -6.68803  eV     1   --> A''            
     e(  6 -  6) =     -6.56892  eV     1   --> A''            
     e(  7 -  7) =     -3.58778  eV     1   --> A'             
     e(  8 -  8) =     -3.22738  eV     1   --> A'             
     e(  9 -  9) =      2.05273  eV     1   --> A'             
     e( 10 - 10) =      2.65831  eV     1   --> A'             
     e( 11 - 11) =      7.28744  eV     1   --> A'             
     e( 12 - 12) =      7.39042  eV     1   --> A'             
     e( 13 - 13) =      9.84954  eV     1   --> A'             
     e( 14 - 14) =     10.11415  eV     1   --> A'             
     e( 15 - 15) =     10.35986  eV     1   --> A'             
     e( 16 - 16) =     10.41377  eV     1   --> A'             
     e( 17 - 17) =     11.51082  eV     1   --> A'             
     e( 18 - 18) =     11.59967  eV     1   --> A'             
     e( 19 - 19) =     12.05755  eV     1   --> A'             
     e( 20 - 20) =     12.34590  eV     1   --> A'             

 **************************************************************************

 **************************************************************************

                    xk=(   0.00000,   0.54528,   0.00000  )

     Band symmetry, C_s (m)     point group:

     e(  1 -  1) =    -17.13410  eV     1   --> A'             
     e(  2 -  2) =    -17.00880  eV     1   --> A'             
     e(  3 -  3) =    -11.32905  eV     1   --> A'             
     e(  4 -  4) =    -11.19559  eV     1   --> A'             
     e(  5 -  5) =     -6.67199  eV     1   --> A''            
     e(  6 -  6) =     -6.55289  eV     1   --> A''            
     e(  7 -  7) =     -3.68625  eV     1   --> A'             
     e(  8 -  8) =     -3.26572  eV     1   --> A'             
     e(  9 -  9) =      2.14189  eV     1   --> A'             
     e( 10 - 10) =      2.74780  eV     1   --> A'             
     e( 11 - 11) =      7.21603  eV     1   --> A'             
     e( 12 - 12) =      7.41233  eV     1   --> A'             
     e( 13 - 13) =      9.36419  eV     1   --> A'             
     e( 14 - 14) =      9.59305  eV     1   --> A'             
     e( 15 - 15) =     10.62510  eV     1   --> A'             
     e( 16 - 16) =     10.85510  eV     1   --> A'             
     e( 17 - 17) =     11.01631  eV     1   --> A'             
     e( 18 - 18) =     11.65109  eV     1   --> A'             
     e( 19 - 19) =     11.97668  eV     1   --> A'             
     e( 20 - 20) =     12.43248  eV     1   --> A'             

 **************************************************************************

 **************************************************************************

                    xk=(   0.00000,   0.51320,   0.00000  )

     Band symmetry, C_s (m)     point group:

     e(  1 -  1) =    -17.26363  eV     1   --> A'             
     e(  2 -  2) =    -17.13180  eV     1   --> A'             
     e(  3 -  3) =    -11.12873  eV     1   --> A'             
     e(  4 -  4) =    -10.99524  eV     1   --> A'             
     e(  5 -  5) =     -6.62432  eV     1   --> A''            
     e(  6 -  6) =     -6.50542  eV     1   --> A''            
     e(  7 -  7) =     -3.94037  eV     1   --> A'             
     e(  8 -  8) =     -3.39706  eV     1   --> A'             
     e(  9 -  9) =      2.39807  eV     1   --> A'             
     e( 10 - 10) =      2.99901  eV     1   --> A'             
     e( 11 - 11) =      7.03652  eV     1   --> A'             
     e( 12 - 12) =      7.42261  eV     1   --> A'             
     e( 13 - 13) =      8.79947  eV     1   --> A'             
     e( 14 - 14) =      8.93891  eV     1   --> A'             
     e( 15 - 15) =      9.94599  eV     1   --> A'             
     e( 16 - 16) =     10.89309  eV     1   --> A'             
     e( 17 - 17) =     10.96409  eV     1   --> A'             
     e( 18 - 18) =     11.65031  eV     1   --> A'             
     e( 19 - 19) =     12.03024  eV     1   --> A'             
     e( 20 - 20) =     12.73691  eV     1   --> A'             

 **************************************************************************

 **************************************************************************

                    xk=(   0.00000,   0.48113,   0.00000  )

     Band symmetry, C_s (m)     point group:

     e(  1 -  1) =    -17.45897  eV     1   --> A'             
     e(  2 -  2) =    -17.31887  eV     1   --> A'             
     e(  3 -  3) =    -10.81452  eV     1   --> A'             
     e(  4 -  4) =    -10.68136  eV     1   --> A'             
     e(  5 -  5) =     -6.54572  eV     1   --> A''            
     e(  6 -  6) =     -6.42694  eV     1   --> A''            
     e(  7 -  7) =     -4.28711  eV     1   --> A'             
     e(  8 -  8) =     -3.62244  eV     1   --> A'             
     e(  9 -  9) =      2.79132  eV     1   --> A'             
     e( 10 - 10) =      3.37206  eV     1   --> A'             
     e( 11 - 11) =      6.73873  eV     1   --> A'             
     e( 12 - 12) =      7.36585  eV     1   --> A'             
     e( 13 - 13) =      8.30865  eV     1   --> A'             
     e( 14 - 14) =      8.41339  eV     1   --> A'             
     e( 15 - 15) =      9.24054  eV     1   --> A'             
     e( 16 - 16) =     10.22425  eV     1   --> A'             
     e( 17 - 17) =     10.52847  eV     1   --> A'             
     e( 18 - 18) =     11.88450  eV     1   --> A'             
     e( 19 - 19) =     12.27411  eV     1   --> A'             
     e( 20 - 20) =     12.84895  eV     1   --> A'             

 **************************************************************************

 **************************************************************************

                    xk=(   0.00000,   0.44905,   0.00000  )

     Band symmetry, C_s (m)     point group:

     e(  1 -  1) =    -17.69889  eV     1   --> A'             
     e(  2 -  2) =    -17.55037  eV     1   --> A'             
     e(  3 -  3) =    -10.40814  eV     1   --> A'             
     e(  4 -  4) =    -10.27615  eV     1   --> A'             
     e(  5 -  5) =     -6.43692  eV     1   --> A''            
     e(  6 -  6) =     -6.31820  eV     1   --> A''            
     e(  7 -  7) =     -4.68287  eV     1   --> A'             
     e(  8 -  8) =     -3.91817  eV     1   --> A'             
     e(  9 -  9) =      3.28093  eV     1   --> A'             
     e( 10 - 10) =      3.82190  eV     1   --> A'             
     e( 11 - 11) =      6.32773  eV     1   --> A'             
     e( 12 - 12) =      7.13710  eV     1   --> A'             
     e( 13 - 13) =      7.95091  eV     1   --> A'             
     e( 14 - 14) =      8.04666  eV     1   --> A'             
     e( 15 - 15) =      8.63151  eV     1   --> A'             
     e( 16 - 16) =      9.56797  eV     1   --> A'             
     e( 17 - 17) =     10.04792  eV     1   --> A'             
     e( 18 - 18) =     11.46343  eV     1   --> A'             
     e( 19 - 19) =     12.11059  eV     1   --> A'             
     e( 20 - 20) =     13.13393  eV     1   --> A'             

 **************************************************************************

 **************************************************************************

                    xk=(   0.00000,   0.41698,   0.00000  )

     Band symmetry, C_s (m)     point group:

     e(  1 -  1) =    -17.96443  eV     1   --> A'             
     e(  2 -  2) =    -17.80808  eV     1   --> A'             
     e(  3 -  3) =     -9.93117  eV     1   --> A'             
     e(  4 -  4) =     -9.80093  eV     1   --> A'             
     e(  5 -  5) =     -6.29982  eV     1   --> A''            
     e(  6 -  6) =     -6.18116  eV     1   --> A''            
     e(  7 -  7) =     -5.09840  eV     1   --> A'             
     e(  8 -  8) =     -4.25500  eV     1   --> A'             
     e(  9 -  9) =      3.82141  eV     1   --> A'             
     e( 10 - 10) =      4.30102  eV     1   --> A'             
     e( 11 - 11) =      5.85181  eV     1   --> A'             
     e( 12 - 12) =      6.73807  eV     1   --> A'             
     e( 13 - 13) =      7.57636  eV     1   --> A'             
     e( 14 - 14) =      7.86507  eV     1   --> A'             
     e( 15 - 15) =      8.20210  eV     1   --> A'             
     e( 16 - 16) =      8.97436  eV     1   --> A'             
     e( 17 - 17) =      9.60217  eV     1   --> A'             
     e( 18 - 18) =     11.01745  eV     1   --> A'             
     e( 19 - 19) =     11.58138  eV     1   --> A'             
     e( 20 - 20) =     13.45297  eV     1   --> A'             

 **************************************************************************

 **************************************************************************

                    xk=(   0.00000,   0.38490,   0.00000  )

     Band symmetry, C_s (m)     point group:

     e(  1 -  1) =    -18.24025  eV     1   --> A'             
     e(  2 -  2) =    -18.07697  eV     1   --> A'             
     e(  3 -  3) =     -9.40061  eV     1   --> A'             
     e(  4 -  4) =     -9.27267  eV     1   --> A'             
     e(  5 -  5) =     -6.13565  eV     1   --> A''            
     e(  6 -  6) =     -6.01710  eV     1   --> A''            
     e(  7 -  7) =     -5.51454  eV     1   --> A'             
     e(  8 -  8) =     -4.60920  eV     1   --> A'             
     e(  9 -  9) =      4.35280  eV     1   --> A'             
     e( 10 - 10) =      4.74663  eV     1   --> A'             
     e( 11 - 11) =      5.36313  eV     1   --> A'             
     e( 12 - 12) =      6.36226  eV     1   --> A'             
     e( 13 - 13) =      7.06717  eV     1   --> A'             
     e( 14 - 14) =      7.77436  eV     1   --> A'             
     e( 15 - 15) =      7.92443  eV     1   --> A'             
     e( 16 - 16) =      8.49276  eV     1   --> A'             
     e( 17 - 17) =      9.23333  eV     1   --> A'             
     e( 18 - 18) =     10.59866  eV     1   --> A'             
     e( 19 - 19) =     11.05095  eV     1   --> A'             
     e( 20 - 20) =     13.29602  eV     1   --> A'             

 **************************************************************************

 **************************************************************************

                    xk=(   0.00000,   0.35283,   0.00000  )

     Band symmetry, C_s (m)     point group:

     e(  1 -  1) =    -18.51517  eV     1   --> A'             
     e(  2 -  2) =    -18.34574  eV     1   --> A'             
     e(  3 -  3) =     -8.83222  eV     1   --> A'             
     e(  4 -  4) =     -8.70669  eV     1   --> A'             
     e(  5 -  5) =     -5.94720  eV     1   --> A''            
     e(  6 -  6) =     -5.91847  eV     1   --> A'             
     e(  7 -  7) =     -5.82884  eV     1   --> A''            
     e(  8 -  8) =     -4.96418  eV     1   --> A'             
     e(  9 -  9) =      4.69417  eV     1   --> A'             
     e( 10 - 10) =      4.86723  eV     1   --> A'             
     e( 11 - 11) =      5.14093  eV     1   --> A'             
     e( 12 - 12) =      6.21898  eV     1   --> A'             
     e( 13 - 13) =      6.55211  eV     1   --> A'             
     e( 14 - 14) =      7.56718  eV     1   --> A'             
     e( 15 - 15) =      7.67650  eV     1   --> A'             
     e( 16 - 16) =      8.24199  eV     1   --> A'             
     e( 17 - 17) =      8.96407  eV     1   --> A'             
     e( 18 - 18) =     10.22711  eV     1   --> A'             
     e( 19 - 19) =     10.55658  eV     1   --> A'             
     e( 20 - 20) =     12.96024  eV     1   --> A'             

 **************************************************************************

 **************************************************************************

                    xk=(   0.00000,   0.32075,   0.00000  )

     Band symmetry, C_s (m)     point group:

     e(  1 -  1) =    -18.78127  eV     1   --> A'             
     e(  2 -  2) =    -18.60629  eV     1   --> A'             
     e(  3 -  3) =     -8.23952  eV     1   --> A'             
     e(  4 -  4) =     -8.11687  eV     1   --> A'             
     e(  5 -  5) =     -6.30099  eV     1   --> A'             
     e(  6 -  6) =     -5.73755  eV     1   --> A''            
     e(  7 -  7) =     -5.61935  eV     1   --> A''            
     e(  8 -  8) =     -5.30849  eV     1   --> A'             
     e(  9 -  9) =      4.39056  eV     1   --> A'             
     e( 10 - 10) =      4.64755  eV     1   --> A'             
     e( 11 - 11) =      5.48123  eV     1   --> A'             
     e( 12 - 12) =      6.07066  eV     1   --> A'             
     e( 13 - 13) =      6.38123  eV     1   --> A'             
     e( 14 - 14) =      7.29258  eV     1   --> A'             
     e( 15 - 15) =      7.44712  eV     1   --> A'             
     e( 16 - 16) =      8.20108  eV     1   --> A'             
     e( 17 - 17) =      8.79167  eV     1   --> A'             
     e( 18 - 18) =      9.91688  eV     1   --> A'             
     e( 19 - 19) =     10.11357  eV     1   --> A'             
     e( 20 - 20) =     12.62725  eV     1   --> A'             

 **************************************************************************

 **************************************************************************

                    xk=(   0.00000,   0.28868,   0.00000  )

     Band symmetry, C_s (m)     point group:

     e(  1 -  1) =    -19.03250  eV     1   --> A'             
     e(  2 -  2) =    -18.85274  eV     1   --> A'             
     e(  3 -  3) =     -7.63523  eV     1   --> A'             
     e(  4 -  4) =     -7.51699  eV     1   --> A'             
     e(  5 -  5) =     -6.65422  eV     1   --> A'             
     e(  6 -  6) =     -5.63304  eV     1   --> A'             
     e(  7 -  7) =     -5.51150  eV     1   --> A''            
     e(  8 -  8) =     -5.39345  eV     1   --> A''            
     e(  9 -  9) =      3.97086  eV     1   --> A'             
     e( 10 - 10) =      4.34520  eV     1   --> A'             
     e( 11 - 11) =      5.52044  eV     1   --> A'             
     e( 12 - 12) =      5.84937  eV     1   --> A'             
     e( 13 - 13) =      6.39070  eV     1   --> A'             
     e( 14 - 14) =      7.20483  eV     1   --> A'             
     e( 15 - 15) =      7.39120  eV     1   --> A'             
     e( 16 - 16) =      8.22983  eV     1   --> A'             
     e( 17 - 17) =      8.69956  eV     1   --> A'             
     e( 18 - 18) =      9.67452  eV     1   --> A'             
     e( 19 - 19) =      9.74224  eV     1   --> A'             
     e( 20 - 20) =     12.32878  eV     1   --> A'             

 **************************************************************************

 **************************************************************************

                    xk=(   0.00000,   0.25660,   0.00000  )

     Band symmetry, C_s (m)     point group:

     e(  1 -  1) =    -19.26445  eV     1   --> A'             
     e(  2 -  2) =    -19.08056  eV     1   --> A'             
     e(  3 -  3) =     -7.07674  eV     1   --> A'             
     e(  4 -  4) =     -6.98926  eV     1   --> A'             
     e(  5 -  5) =     -6.85697  eV     1   --> A'             
     e(  6 -  6) =     -5.93062  eV     1   --> A'             
     e(  7 -  7) =     -5.27253  eV     1   --> A''            
     e(  8 -  8) =     -5.15481  eV     1   --> A''            
     e(  9 -  9) =      3.58422  eV     1   --> A'             
     e( 10 - 10) =      4.00941  eV     1   --> A'             
     e( 11 - 11) =      5.15558  eV     1   --> A'             
     e( 12 - 12) =      5.87253  eV     1   --> A'             
     e( 13 - 13) =      6.12646  eV     1   --> A'             
     e( 14 - 14) =      7.13664  eV     1   --> A'             
     e( 15 - 15) =      7.70822  eV     1   --> A'             
     e( 16 - 16) =      8.28888  eV     1   --> A'             
     e( 17 - 17) =      8.67941  eV     1   --> A'             
     e( 18 - 18) =      9.44736  eV     1   --> A'             
     e( 19 - 19) =      9.52534  eV     1   --> A'             
     e( 20 - 20) =     12.05500  eV     1   --> A'             

 **************************************************************************

 **************************************************************************

                    xk=(   0.00000,   0.22453,   0.00000  )

     Band symmetry, C_s (m)     point group:

     e(  1 -  1) =    -19.47441  eV     1   --> A'             
     e(  2 -  2) =    -19.28688  eV     1   --> A'             
     e(  3 -  3) =     -7.29340  eV     1   --> A'             
     e(  4 -  4) =     -6.44141  eV     1   --> A'             
     e(  5 -  5) =     -6.32480  eV     1   --> A'             
     e(  6 -  6) =     -6.17007  eV     1   --> A'             
     e(  7 -  7) =     -5.02811  eV     1   --> A''            
     e(  8 -  8) =     -4.91072  eV     1   --> A''            
     e(  9 -  9) =      3.23644  eV     1   --> A'             
     e( 10 - 10) =      3.68904  eV     1   --> A'             
     e( 11 - 11) =      4.80042  eV     1   --> A'             
     e( 12 - 12) =      5.76092  eV     1   --> A'             
     e( 13 - 13) =      5.81561  eV     1   --> A'             
     e( 14 - 14) =      7.09147  eV     1   --> A'             
     e( 15 - 15) =      7.93823  eV     1   --> A'             
     e( 16 - 16) =      8.44603  eV     1   --> A'             
     e( 17 - 17) =      8.72507  eV     1   --> A'             
     e( 18 - 18) =      9.31641  eV     1   --> A'             
     e( 19 - 19) =      9.42097  eV     1   --> A'             
     e( 20 - 20) =     11.66918  eV     1   --> A'             

 **************************************************************************

 **************************************************************************

                    xk=(   0.00000,   0.19245,   0.00000  )

     Band symmetry, C_s (m)     point group:

     e(  1 -  1) =    -19.65979  eV     1   --> A'             
     e(  2 -  2) =    -19.46901  eV     1   --> A'             
     e(  3 -  3) =     -7.54703  eV     1   --> A'             
     e(  4 -  4) =     -6.46094  eV     1   --> A'             
     e(  5 -  5) =     -5.84904  eV     1   --> A'             
     e(  6 -  6) =     -5.73131  eV     1   --> A'             
     e(  7 -  7) =     -4.78464  eV     1   --> A''            
     e(  8 -  8) =     -4.66767  eV     1   --> A''            
     e(  9 -  9) =      2.92987  eV     1   --> A'             
     e( 10 - 10) =      3.40067  eV     1   --> A'             
     e( 11 - 11) =      4.48724  eV     1   --> A'             
     e( 12 - 12) =      5.52412  eV     1   --> A'             
     e( 13 - 13) =      5.57985  eV     1   --> A'             
     e( 14 - 14) =      7.02417  eV     1   --> A'             
     e( 15 - 15) =      7.91302  eV     1   --> A'             
     e( 16 - 16) =      8.68494  eV     1   --> A'             
     e( 17 - 17) =      8.81791  eV     1   --> A'             
     e( 18 - 18) =      9.34773  eV     1   --> A'             
     e( 19 - 19) =      9.40497  eV     1   --> A'             
     e( 20 - 20) =     11.27761  eV     1   --> A'             

 **************************************************************************

 **************************************************************************

                    xk=(   0.00000,   0.16038,   0.00000  )

     Band symmetry, C_s (m)     point group:

     e(  1 -  1) =    -19.81902  eV     1   --> A'             
     e(  2 -  2) =    -19.62564  eV     1   --> A'             
     e(  3 -  3) =     -7.76610  eV     1   --> A'             
     e(  4 -  4) =     -6.66186  eV     1   --> A'             
     e(  5 -  5) =     -5.32243  eV     1   --> A'             
     e(  6 -  6) =     -5.20566  eV     1   --> A'             
     e(  7 -  7) =     -4.55228  eV     1   --> A''            
     e(  8 -  8) =     -4.43565  eV     1   --> A''            
     e(  9 -  9) =      2.66583  eV     1   --> A'             
     e( 10 - 10) =      3.15093  eV     1   --> A'             
     e( 11 - 11) =      4.21988  eV     1   --> A'             
     e( 12 - 12) =      5.27078  eV     1   --> A'             
     e( 13 - 13) =      5.38441  eV     1   --> A'             
     e( 14 - 14) =      6.92816  eV     1   --> A'             
     e( 15 - 15) =      7.77974  eV     1   --> A'             
     e( 16 - 16) =      8.83438  eV     1   --> A'             
     e( 17 - 17) =      8.93362  eV     1   --> A'             
     e( 18 - 18) =      9.31417  eV     1   --> A'             
     e( 19 - 19) =      9.65440  eV     1   --> A'             
     e( 20 - 20) =     10.70684  eV     1   --> A''            

 **************************************************************************

 **************************************************************************

                    xk=(   0.00000,   0.12830,   0.00000  )

     Band symmetry, C_s (m)     point group:

     e(  1 -  1) =    -19.95086  eV     1   --> A'             
     e(  2 -  2) =    -19.75530  eV     1   --> A'             
     e(  3 -  3) =     -7.94725  eV     1   --> A'             
     e(  4 -  4) =     -6.83116  eV     1   --> A'             
     e(  5 -  5) =     -4.85188  eV     1   --> A'             
     e(  6 -  6) =     -4.73598  eV     1   --> A'             
     e(  7 -  7) =     -4.34096  eV     1   --> A''            
     e(  8 -  8) =     -4.22461  eV     1   --> A''            
     e(  9 -  9) =      2.44561  eV     1   --> A'             
     e( 10 - 10) =      2.94329  eV     1   --> A'             
     e( 11 - 11) =      3.99970  eV     1   --> A'             
     e( 12 - 12) =      5.05963  eV     1   --> A'             
     e( 13 - 13) =      5.20456  eV     1   --> A'             
     e( 14 - 14) =      6.82235  eV     1   --> A'             
     e( 15 - 15) =      7.62503  eV     1   --> A'             
     e( 16 - 16) =      8.93106  eV     1   --> A'             
     e( 17 - 17) =      9.03535  eV     1   --> A'             
     e( 18 - 18) =      9.28229  eV     1   --> A'             
     e( 19 - 19) =      9.95342  eV     1   --> A'             
     e( 20 - 20) =     10.17096  eV     1   --> A''            

 **************************************************************************

 **************************************************************************

                    xk=(   0.00000,   0.09623,   0.00000  )

     Band symmetry, C_s (m)     point group:

     e(  1 -  1) =    -20.05426  eV     1   --> A'             
     e(  2 -  2) =    -19.85695  eV     1   --> A'             
     e(  3 -  3) =     -8.08894  eV     1   --> A'             
     e(  4 -  4) =     -6.96438  eV     1   --> A'             
     e(  5 -  5) =     -4.45675  eV     1   --> A'             
     e(  6 -  6) =     -4.34131  eV     1   --> A'             
     e(  7 -  7) =     -4.16076  eV     1   --> A''            
     e(  8 -  8) =     -4.04486  eV     1   --> A''            
     e(  9 -  9) =      2.27076  eV     1   --> A'             
     e( 10 - 10) =      2.77975  eV     1   --> A'             
     e( 11 - 11) =      3.82743  eV     1   --> A'             
     e( 12 - 12) =      4.89340  eV     1   --> A'             
     e( 13 - 13) =      5.05409  eV     1   --> A'             
     e( 14 - 14) =      6.72485  eV     1   --> A'             
     e( 15 - 15) =      7.48465  eV     1   --> A'             
     e( 16 - 16) =      9.01073  eV     1   --> A'             
     e( 17 - 17) =      9.11112  eV     1   --> A'             
     e( 18 - 18) =      9.25671  eV     1   --> A'             
     e( 19 - 19) =      9.73604  eV     1   --> A''            
     e( 20 - 20) =      9.85275  eV     1   --> A''            

 **************************************************************************

 **************************************************************************

                    xk=(   0.00000,   0.06415,   0.00000  )

     Band symmetry, C_s (m)     point group:

     e(  1 -  1) =    -20.12852  eV     1   --> A'             
     e(  2 -  2) =    -19.93003  eV     1   --> A'             
     e(  3 -  3) =     -8.19067  eV     1   --> A'             
     e(  4 -  4) =     -7.06022  eV     1   --> A'             
     e(  5 -  5) =     -4.15693  eV     1   --> A'             
     e(  6 -  6) =     -4.04159  eV     1   --> A'             
     e(  7 -  7) =     -4.02220  eV     1   --> A''            
     e(  8 -  8) =     -3.90657  eV     1   --> A''            
     e(  9 -  9) =      2.14328  eV     1   --> A'             
     e( 10 - 10) =      2.66175  eV     1   --> A'             
     e( 11 - 11) =      3.70375  eV     1   --> A'             
     e( 12 - 12) =      4.77363  eV     1   --> A'             
     e( 13 - 13) =      4.94122  eV     1   --> A'             
     e( 14 - 14) =      6.64778  eV     1   --> A'             
     e( 15 - 15) =      7.37550  eV     1   --> A'             
     e( 16 - 16) =      9.07495  eV     1   --> A'             
     e( 17 - 17) =      9.15310  eV     1   --> A'             
     e( 18 - 18) =      9.24750  eV     1   --> A'             
     e( 19 - 19) =      9.41413  eV     1   --> A''            
     e( 20 - 20) =      9.53077  eV     1   --> A''            

 **************************************************************************

 **************************************************************************

                    xk=(   0.00000,   0.03208,   0.00000  )

     Band symmetry, C_s (m)     point group:

     e(  1 -  1) =    -20.17320  eV     1   --> A'             
     e(  2 -  2) =    -19.97404  eV     1   --> A'             
     e(  3 -  3) =     -8.25176  eV     1   --> A'             
     e(  4 -  4) =     -7.11773  eV     1   --> A'             
     e(  5 -  5) =     -3.96920  eV     1   --> A'             
     e(  6 -  6) =     -3.93463  eV     1   --> A''            
     e(  7 -  7) =     -3.85381  eV     1   --> A'             
     e(  8 -  8) =     -3.81909  eV     1   --> A''            
     e(  9 -  9) =      2.06547  eV     1   --> A'             
     e( 10 - 10) =      2.59048  eV     1   --> A'             
     e( 11 - 11) =      3.62924  eV     1   --> A'             
     e( 12 - 12) =      4.70136  eV     1   --> A'             
     e( 13 - 13) =      4.87138  eV     1   --> A'             
     e( 14 - 14) =      6.59895  eV     1   --> A'             
     e( 15 - 15) =      7.30677  eV     1   --> A'             
     e( 16 - 16) =      9.11998  eV     1   --> A'             
     e( 17 - 17) =      9.15847  eV     1   --> A'             
     e( 18 - 18) =      9.21625  eV     1   --> A''            
     e( 19 - 19) =      9.25830  eV     1   --> A'             
     e( 20 - 20) =      9.33289  eV     1   --> A''            

 **************************************************************************

 **************************************************************************

                    xk=(   0.00000,   0.00000,   0.00000  )

     point group C_3v (3m)  
     there are  3 classes
     the character table:

       E     2C3   3s_v 
A_1    1.00  1.00  1.00
A_2    1.00  1.00 -1.00
E      2.00 -1.00  0.00

     the symmetry operations in each class and the name of the first element:

     E        1
                                                                 
     2C3      2    3
                                                                 
     3s_v     4    5    6
                                                                 

     Band symmetry, C_3v (3m)   point group:

     e(  1 -  1) =    -20.18804  eV     1   --> A_1  L_1       
     e(  2 -  2) =    -19.98867  eV     1   --> A_1  L_1       
     e(  3 -  3) =     -8.27208  eV     1   --> A_1  L_1       
     e(  4 -  4) =     -7.13660  eV     1   --> A_1  L_1       
     e(  5 -  6) =     -3.90471  eV     2   --> E    L_3       
     e(  7 -  8) =     -3.78922  eV     2   --> E    L_3       
     e(  9 -  9) =      2.03930  eV     1   --> A_1  L_1       
     e( 10 - 10) =      2.56665  eV     1   --> A_1  L_1       
     e( 11 - 11) =      3.60435  eV     1   --> A_1  L_1       
     e( 12 - 12) =      4.67720  eV     1   --> A_1  L_1       
     e( 13 - 13) =      4.84770  eV     1   --> A_1  L_1       
     e( 14 - 14) =      6.58228  eV     1   --> A_1  L_1       
     e( 15 - 15) =      7.28331  eV     1   --> A_1  L_1       
     e( 16 - 16) =      9.14323  eV     1   --> A_1  L_1       
     e( 17 - 18) =      9.14976  eV     2   --> E    L_3       
     e( 19 - 20) =      9.26641  eV     2   --> E    L_3       

 **************************************************************************

     BANDS        :     10.73s CPU     10.96s WALL


   This run was terminated on:  12:34:54  15Apr2024            

=------------------------------------------------------------------------------=
   JOB DONE.
=------------------------------------------------------------------------------=
