
     Program PWSCF v.7.2 starts on 17Apr2024 at 15:25: 2 

     This program is part of the open-source Quantum ESPRESSO suite
     for quantum simulation of materials; please cite
         "P. Giannozzi et al., J. Phys.:Condens. Matter 21 395502 (2009);
         "P. Giannozzi et al., J. Phys.:Condens. Matter 29 465901 (2017);
         "P. Giannozzi et al., J. Chem. Phys. 152 154105 (2020);
          URL http://www.quantum-espresso.org", 
     in publications or presentations arising from this work. More details at
     http://www.quantum-espresso.org/quote

     Parallel version (MPI & OpenMP), running on       8 processor cores
     Number of MPI processes:                 8
     Threads/MPI process:                     1

     MPI processes distributed on     1 nodes
     0 MiB available memory on the printing compute node when the environment starts

     Waiting for input...
     Reading input from standard input
Warning: card &IONS ignored
Warning: card / ignored
Warning: card &CELL ignored
Warning: card CELL_DOFREE = 'Z' ignored
Warning: card / ignored

     Current dimensions of program PWSCF are:
     Max number of different atomic species (ntypx) = 10
     Max number of k-points (npk) =  40000
     Max angular momentum in pseudopotentials (lmaxx) =  4

     Atomic positions and unit cell read from directory:
     ./tmp/BN2L_AB1_PBE_vdW.save/
     Atomic positions from file used, from input discarded


     IMPORTANT: XC functional enforced from input :
     Exchange-correlation= VDW-DF2-B86R
                           (   1   4  26   0   2   0   0)
     Any further DFT definition will be discarded
     Please, verify this is what you really want


     R & G space division:  proc/nbgrp/npool/nimage =       8
     Subspace diagonalization in iterative solution of the eigenvalue problem:
     a serial algorithm will be used


     Parallelization info
     --------------------
     sticks:   dense  smooth     PW     G-vecs:    dense   smooth      PW
     Min          45      45     14                 5791     5791    1010
     Max          46      46     16                 5824     5824    1027
     Sum         367     367    121                46525    46525    8181

     Using Slab Decomposition



     bravais-lattice index     =            4
     lattice parameter (alat)  =       4.7486  a.u.
     unit-cell volume          =     741.8522 (a.u.)^3
     number of atoms/cell      =            4
     number of atomic types    =            2
     number of electrons       =        16.00
     number of Kohn-Sham states=           20
     kinetic-energy cutoff     =      60.0000  Ry
     charge density cutoff     =     240.0000  Ry
     Exchange-correlation= VDW-DF2-B86R
                           (   1   4  26   0   2   0   0)

     celldm(1)=   4.748600  celldm(2)=   0.000000  celldm(3)=   8.000000
     celldm(4)=   0.000000  celldm(5)=   0.000000  celldm(6)=   0.000000

     crystal axes: (cart. coord. in units of alat)
               a(1) = (   1.000000   0.000000   0.000000 )  
               a(2) = (  -0.500000   0.866025   0.000000 )  
               a(3) = (   0.000000   0.000000   8.000000 )  

     reciprocal axes: (cart. coord. in units 2 pi/alat)
               b(1) = (  1.000000  0.577350 -0.000000 )  
               b(2) = (  0.000000  1.154701  0.000000 )  
               b(3) = (  0.000000 -0.000000  0.125000 )  


     PseudoPot. # 1 for B  read from file:
     ../../../../Pseudo/PBE/B.upf
     MD5 check sum: 72f82fc31bc892420d0cab7e25c88ab8
     Pseudo is Norm-conserving + core correction, Zval =  3.0
     Generated using ONCVPSP code by D. R. Hamann
     Using radial grid of 1534 points,  4 beta functions with: 
                l(1) =   0
                l(2) =   0
                l(3) =   1
                l(4) =   1

     PseudoPot. # 2 for N  read from file:
     ../../../../Pseudo/PBE/N.upf
     MD5 check sum: d34365f73bb0e2ee98afc20ec3e87676
     Pseudo is Norm-conserving + core correction, Zval =  5.0
     Generated using ONCVPSP code by D. R. Hamann
     Using radial grid of 1058 points,  4 beta functions with: 
                l(1) =   0
                l(2) =   0
                l(3) =   1
                l(4) =   1

     atomic species   valence    mass     pseudopotential
        B              3.00    10.00000     B ( 1.00)
        N              5.00    14.01100     N ( 1.00)

      6 Sym. Ops. (no inversion) found


                                    s                        frac. trans.

      isym =  1     identity                                     

 cryst.   s( 1) = (     1          0          0      )
                  (     0          1          0      )
                  (     0          0          1      )

 cart.    s( 1) = (  1.0000000  0.0000000  0.0000000 )
                  (  0.0000000  1.0000000  0.0000000 )
                  (  0.0000000  0.0000000  1.0000000 )


      isym =  2     120 deg rotation - cryst. axis [0,0,1]       

 cryst.   s( 2) = (     0          1          0      )
                  (    -1         -1          0      )
                  (     0          0          1      )

 cart.    s( 2) = ( -0.5000000 -0.8660254  0.0000000 )
                  (  0.8660254 -0.5000000  0.0000000 )
                  (  0.0000000  0.0000000  1.0000000 )


      isym =  3     120 deg rotation - cryst. axis [0,0,-1]      

 cryst.   s( 3) = (    -1         -1          0      )
                  (     1          0          0      )
                  (     0          0          1      )

 cart.    s( 3) = ( -0.5000000  0.8660254  0.0000000 )
                  ( -0.8660254 -0.5000000  0.0000000 )
                  (  0.0000000  0.0000000  1.0000000 )


      isym =  4     inv. 180 deg rotation - cart. axis [1,0,0]   

 cryst.   s( 4) = (    -1          0          0      )
                  (     1          1          0      )
                  (     0          0          1      )

 cart.    s( 4) = ( -1.0000000  0.0000000  0.0000000 )
                  (  0.0000000  1.0000000  0.0000000 )
                  (  0.0000000  0.0000000  1.0000000 )


      isym =  5     inv. 180 deg rotation - cryst. axis [0,1,0]  

 cryst.   s( 5) = (     1          1          0      )
                  (     0         -1          0      )
                  (     0          0          1      )

 cart.    s( 5) = (  0.5000000  0.8660254  0.0000000 )
                  (  0.8660254 -0.5000000  0.0000000 )
                  (  0.0000000  0.0000000  1.0000000 )


      isym =  6     inv. 180 deg rotation - cryst. axis [1,1,0]  

 cryst.   s( 6) = (     0         -1          0      )
                  (    -1          0          0      )
                  (     0          0          1      )

 cart.    s( 6) = (  0.5000000 -0.8660254  0.0000000 )
                  ( -0.8660254 -0.5000000  0.0000000 )
                  (  0.0000000  0.0000000  1.0000000 )


     point group C_3v (3m)  
     there are  3 classes
     the character table:

       E     2C3   3s_v 
A_1    1.00  1.00  1.00
A_2    1.00  1.00 -1.00
E      2.00 -1.00  0.00

     the symmetry operations in each class and the name of the first element:

     E        1
          identity                                               
     2C3      2    3
          120 deg rotation - cryst. axis [0,0,1]                 
     3s_v     4    5    6
          inv. 180 deg rotation - cart. axis [1,0,0]             

   Cartesian axes

     site n.     atom                  positions (alat units)
         1           B   tau(   1) = (   0.0000000   0.0000000   0.0000000  )
         2           N   tau(   2) = (  -0.0000003   0.5773502   0.0000000  )
         3           N   tau(   3) = (   0.0000000   0.0000000   1.3079920  )
         4           B   tau(   4) = (   0.5000005   0.2886748   1.3079920  )

   Crystallographic axes

     site n.     atom                  positions (cryst. coord.)
         1           B   tau(   1) = (  0.0000000  0.0000000  0.0000000  )
         2           N   tau(   2) = (  0.3333330  0.6666666  0.0000000  )
         3           N   tau(   3) = (  0.0000000  0.0000000  0.1634990  )
         4           B   tau(   4) = (  0.6666670  0.3333330  0.1634990  )

     number of k points=    51  Marzari-Vanderbilt smearing, width (Ry)=  0.0050
                       cart. coord. in units 2pi/alat
        k(    1) = (   0.0000000   0.0000000   0.0000000), wk =   0.0392157
        k(    2) = (  -0.0158729   0.0274930   0.0000000), wk =   0.0392157
        k(    3) = (  -0.0317457   0.0549860   0.0000000), wk =   0.0392157
        k(    4) = (  -0.0476186   0.0824789   0.0000000), wk =   0.0392157
        k(    5) = (  -0.0634914   0.1099719   0.0000000), wk =   0.0392157
        k(    6) = (  -0.0793643   0.1374649   0.0000000), wk =   0.0392157
        k(    7) = (  -0.0952371   0.1649579   0.0000000), wk =   0.0392157
        k(    8) = (  -0.1111100   0.1924509   0.0000000), wk =   0.0392157
        k(    9) = (  -0.1269829   0.2199438   0.0000000), wk =   0.0392157
        k(   10) = (  -0.1428557   0.2474368   0.0000000), wk =   0.0392157
        k(   11) = (  -0.1587286   0.2749298   0.0000000), wk =   0.0392157
        k(   12) = (  -0.1746014   0.3024228   0.0000000), wk =   0.0392157
        k(   13) = (  -0.1904743   0.3299158   0.0000000), wk =   0.0392157
        k(   14) = (  -0.2063471   0.3574087   0.0000000), wk =   0.0392157
        k(   15) = (  -0.2222200   0.3849017   0.0000000), wk =   0.0392157
        k(   16) = (  -0.2380929   0.4123947   0.0000000), wk =   0.0392157
        k(   17) = (  -0.2539657   0.4398877   0.0000000), wk =   0.0392157
        k(   18) = (  -0.2698386   0.4673807   0.0000000), wk =   0.0392157
        k(   19) = (  -0.2857114   0.4948736   0.0000000), wk =   0.0392157
        k(   20) = (  -0.3015843   0.5223666   0.0000000), wk =   0.0392157
        k(   21) = (  -0.3174571   0.5498596   0.0000000), wk =   0.0392157
        k(   22) = (  -0.3333300   0.5773526   0.0000000), wk =   0.0392157
        k(   23) = (  -0.3030273   0.5773524   0.0000000), wk =   0.0392157
        k(   24) = (  -0.2727245   0.5773522   0.0000000), wk =   0.0392157
        k(   25) = (  -0.2424218   0.5773519   0.0000000), wk =   0.0392157
        k(   26) = (  -0.2121191   0.5773517   0.0000000), wk =   0.0392157
        k(   27) = (  -0.1818164   0.5773515   0.0000000), wk =   0.0392157
        k(   28) = (  -0.1515136   0.5773513   0.0000000), wk =   0.0392157
        k(   29) = (  -0.1212109   0.5773511   0.0000000), wk =   0.0392157
        k(   30) = (  -0.0909082   0.5773509   0.0000000), wk =   0.0392157
        k(   31) = (  -0.0606055   0.5773507   0.0000000), wk =   0.0392157
        k(   32) = (  -0.0303027   0.5773505   0.0000000), wk =   0.0392157
        k(   33) = (   0.0000000   0.5773503   0.0000000), wk =   0.0392157
        k(   34) = (   0.0000000   0.5452753   0.0000000), wk =   0.0392157
        k(   35) = (   0.0000000   0.5132002   0.0000000), wk =   0.0392157
        k(   36) = (   0.0000000   0.4811252   0.0000000), wk =   0.0392157
        k(   37) = (   0.0000000   0.4490502   0.0000000), wk =   0.0392157
        k(   38) = (   0.0000000   0.4169752   0.0000000), wk =   0.0392157
        k(   39) = (   0.0000000   0.3849002   0.0000000), wk =   0.0392157
        k(   40) = (   0.0000000   0.3528252   0.0000000), wk =   0.0392157
        k(   41) = (   0.0000000   0.3207501   0.0000000), wk =   0.0392157
        k(   42) = (   0.0000000   0.2886751   0.0000000), wk =   0.0392157
        k(   43) = (   0.0000000   0.2566001   0.0000000), wk =   0.0392157
        k(   44) = (   0.0000000   0.2245251   0.0000000), wk =   0.0392157
        k(   45) = (   0.0000000   0.1924501   0.0000000), wk =   0.0392157
        k(   46) = (   0.0000000   0.1603751   0.0000000), wk =   0.0392157
        k(   47) = (   0.0000000   0.1283001   0.0000000), wk =   0.0392157
        k(   48) = (   0.0000000   0.0962250   0.0000000), wk =   0.0392157
        k(   49) = (   0.0000000   0.0641500   0.0000000), wk =   0.0392157
        k(   50) = (   0.0000000   0.0320750   0.0000000), wk =   0.0392157
        k(   51) = (   0.0000000   0.0000000   0.0000000), wk =   0.0392157

                       cryst. coord.
        k(    1) = (   0.0000000   0.0000000   0.0000000), wk =   0.0392157
        k(    2) = (  -0.0158729   0.0317460   0.0000000), wk =   0.0392157
        k(    3) = (  -0.0317457   0.0634921   0.0000000), wk =   0.0392157
        k(    4) = (  -0.0476186   0.0952381   0.0000000), wk =   0.0392157
        k(    5) = (  -0.0634914   0.1269842   0.0000000), wk =   0.0392157
        k(    6) = (  -0.0793643   0.1587302   0.0000000), wk =   0.0392157
        k(    7) = (  -0.0952371   0.1904763   0.0000000), wk =   0.0392157
        k(    8) = (  -0.1111100   0.2222223   0.0000000), wk =   0.0392157
        k(    9) = (  -0.1269829   0.2539684   0.0000000), wk =   0.0392157
        k(   10) = (  -0.1428557   0.2857144   0.0000000), wk =   0.0392157
        k(   11) = (  -0.1587286   0.3174605   0.0000000), wk =   0.0392157
        k(   12) = (  -0.1746014   0.3492065   0.0000000), wk =   0.0392157
        k(   13) = (  -0.1904743   0.3809526   0.0000000), wk =   0.0392157
        k(   14) = (  -0.2063471   0.4126986   0.0000000), wk =   0.0392157
        k(   15) = (  -0.2222200   0.4444447   0.0000000), wk =   0.0392157
        k(   16) = (  -0.2380929   0.4761907   0.0000000), wk =   0.0392157
        k(   17) = (  -0.2539657   0.5079368   0.0000000), wk =   0.0392157
        k(   18) = (  -0.2698386   0.5396828   0.0000000), wk =   0.0392157
        k(   19) = (  -0.2857114   0.5714289   0.0000000), wk =   0.0392157
        k(   20) = (  -0.3015843   0.6031749   0.0000000), wk =   0.0392157
        k(   21) = (  -0.3174571   0.6349210   0.0000000), wk =   0.0392157
        k(   22) = (  -0.3333300   0.6666670   0.0000000), wk =   0.0392157
        k(   23) = (  -0.3030273   0.6515155   0.0000000), wk =   0.0392157
        k(   24) = (  -0.2727245   0.6363639   0.0000000), wk =   0.0392157
        k(   25) = (  -0.2424218   0.6212124   0.0000000), wk =   0.0392157
        k(   26) = (  -0.2121191   0.6060608   0.0000000), wk =   0.0392157
        k(   27) = (  -0.1818164   0.5909093   0.0000000), wk =   0.0392157
        k(   28) = (  -0.1515136   0.5757577   0.0000000), wk =   0.0392157
        k(   29) = (  -0.1212109   0.5606062   0.0000000), wk =   0.0392157
        k(   30) = (  -0.0909082   0.5454546   0.0000000), wk =   0.0392157
        k(   31) = (  -0.0606055   0.5303031   0.0000000), wk =   0.0392157
        k(   32) = (  -0.0303027   0.5151515   0.0000000), wk =   0.0392157
        k(   33) = (   0.0000000   0.5000000   0.0000000), wk =   0.0392157
        k(   34) = (   0.0000000   0.4722222   0.0000000), wk =   0.0392157
        k(   35) = (   0.0000000   0.4444444   0.0000000), wk =   0.0392157
        k(   36) = (   0.0000000   0.4166667   0.0000000), wk =   0.0392157
        k(   37) = (   0.0000000   0.3888889   0.0000000), wk =   0.0392157
        k(   38) = (   0.0000000   0.3611111   0.0000000), wk =   0.0392157
        k(   39) = (   0.0000000   0.3333333   0.0000000), wk =   0.0392157
        k(   40) = (   0.0000000   0.3055556   0.0000000), wk =   0.0392157
        k(   41) = (   0.0000000   0.2777778   0.0000000), wk =   0.0392157
        k(   42) = (   0.0000000   0.2500000   0.0000000), wk =   0.0392157
        k(   43) = (   0.0000000   0.2222222   0.0000000), wk =   0.0392157
        k(   44) = (   0.0000000   0.1944444   0.0000000), wk =   0.0392157
        k(   45) = (   0.0000000   0.1666667   0.0000000), wk =   0.0392157
        k(   46) = (   0.0000000   0.1388889   0.0000000), wk =   0.0392157
        k(   47) = (   0.0000000   0.1111111   0.0000000), wk =   0.0392157
        k(   48) = (   0.0000000   0.0833333   0.0000000), wk =   0.0392157
        k(   49) = (   0.0000000   0.0555556   0.0000000), wk =   0.0392157
        k(   50) = (   0.0000000   0.0277778   0.0000000), wk =   0.0392157
        k(   51) = (   0.0000000   0.0000000   0.0000000), wk =   0.0392157

     Dense  grid:    46525 G-vectors     FFT dimensions: (  24,  24, 192)

     Dynamical RAM for                 wfc:       0.22 MB

     Dynamical RAM for     wfc (w. buffer):       0.22 MB

     Dynamical RAM for           str. fact:       0.18 MB

     Dynamical RAM for           local pot:       0.00 MB

     Dynamical RAM for          nlocal pot:       0.35 MB

     Dynamical RAM for                qrad:       0.71 MB

     Dynamical RAM for          rho,v,vnew:       0.58 MB

     Dynamical RAM for           G-vectors:       0.38 MB

     Dynamical RAM for          h,s,v(r/c):       0.07 MB

     Dynamical RAM for          <psi|beta>:       0.01 MB

     Dynamical RAM for                 psi:       0.44 MB

     Dynamical RAM for                hpsi:       0.44 MB

     Dynamical RAM for      wfcinit/wfcrot:       0.45 MB

     Estimated static dynamical RAM per process >       3.22 MB

     Estimated max dynamical RAM per process >       4.19 MB

     Estimated total dynamical RAM >      33.51 MB

     The potential is recalculated from file :
     ./tmp/BN2L_AB1_PBE_vdW.save/charge-density



     %%%%%%%%%%%%%%%%%%%%%%%%%%%%%%%%%%%%%%%%%%%%%%%%%%%%%%%%%%%%%%%%%%%%%%%%
     %                                                                      %
     % You are using vdW-DF, which was implemented by the Thonhauser group. %
     % Please cite the following two papers that made this development      %
     % possible and the two reviews that describe the various versions:     %
     %                                                                      %
     %   T. Thonhauser et al., PRL 115, 136402 (2015).                      %
     %   T. Thonhauser et al., PRB 76, 125112 (2007).                       %
     %   K. Berland et al., Rep. Prog. Phys. 78, 066501 (2015).             %
     %   D.C. Langreth et al., J. Phys.: Condens. Matter 21, 084203 (2009). %
     %                                                                      %
     % If you are calculating stress with vdW-DF, please also cite:         %
     %                                                                      %
     %   R. Sabatini et al., J. Phys.: Condens. Matter 24, 424209 (2012).   %
     %                                                                      %
     %%%%%%%%%%%%%%%%%%%%%%%%%%%%%%%%%%%%%%%%%%%%%%%%%%%%%%%%%%%%%%%%%%%%%%%%

     %%%%%%%%%%%%%%%%%%%%%%%%%%%%%%%%%%%%%%%%%%%%%%%%%%%%%%%%%%%%%%%%%%%%%%%%
     %                                                                      %
     %  vdW-DF NEWS:                                                        %
     %                                                                      %
     %  * vdW-DF3 is now available. DOI: 10.1021/acs.jctc.0c00471           %
     %    use with input_dft = 'vdW-DF3-opt1' or 'vdW-DF3-opt2'             %
     %                                                                      %
     %  * Unscreened and range-separated hybrid vdW-DF-cx functionals       %
     %    DOI: 10.1063/1.4986522 and 10.1088/1361-648X/ac2ad2               %
     %    use with input_dft = 'vdW-DF-cx0'    and 'vdW-DF-ahcx'            %
     %  * Unscreened and range-separated hybrid vdW-DF2-b86r functionals    %
     %    DOI: 10.1063/1.4986522 and DOI: 10.1103/PhysRevX.12.041003        %
     %    use with input_dft = 'vdW-DF2-br0' and 'vdW-DF2-ahbr'             %
     %                                                                      %
     %%%%%%%%%%%%%%%%%%%%%%%%%%%%%%%%%%%%%%%%%%%%%%%%%%%%%%%%%%%%%%%%%%%%%%%%


     Carrying out vdW-DF run using the following parameters:
     Nqs    =  20  Npoints =  1024  r_max =  100.000
     q_mesh =  0.00001000  0.04494208  0.09755937  0.15916263
               0.23128650  0.31572767  0.41458969  0.53033537
               0.66584808  0.82450364  1.01025438  1.22772762
               1.48234092  1.78043706  2.12944203  2.53805004
               3.01644009  3.57652955  4.23227104  5.00000000


     -----------------------------------------------
     Non-local corr. energy    =       0.20080852 Ry
     -----------------------------------------------

     Starting wfcs are   16 randomized atomic wfcs +    4 random wfcs

     Band Structure Calculation
     Davidson diagonalization with overlap

     Computing kpt #:     1  of    51
     total cpu time spent up to now is       11.7 secs

     Computing kpt #:     2  of    51
     total cpu time spent up to now is       12.1 secs

     Computing kpt #:     3  of    51
     total cpu time spent up to now is       12.5 secs

     Computing kpt #:     4  of    51
     total cpu time spent up to now is       12.9 secs

     Computing kpt #:     5  of    51
     total cpu time spent up to now is       13.4 secs

     Computing kpt #:     6  of    51
     total cpu time spent up to now is       13.9 secs

     Computing kpt #:     7  of    51
     total cpu time spent up to now is       14.4 secs

     Computing kpt #:     8  of    51
     total cpu time spent up to now is       14.8 secs

     Computing kpt #:     9  of    51
     total cpu time spent up to now is       15.3 secs

     Computing kpt #:    10  of    51
     total cpu time spent up to now is       15.8 secs

     Computing kpt #:    11  of    51
     total cpu time spent up to now is       16.2 secs

     Computing kpt #:    12  of    51
     total cpu time spent up to now is       16.6 secs

     Computing kpt #:    13  of    51
     total cpu time spent up to now is       17.0 secs

     Computing kpt #:    14  of    51
     total cpu time spent up to now is       17.4 secs

     Computing kpt #:    15  of    51
     total cpu time spent up to now is       17.7 secs

     Computing kpt #:    16  of    51
     total cpu time spent up to now is       18.0 secs

     Computing kpt #:    17  of    51
     total cpu time spent up to now is       18.4 secs

     Computing kpt #:    18  of    51
     total cpu time spent up to now is       18.7 secs

     Computing kpt #:    19  of    51
     total cpu time spent up to now is       19.0 secs

     Computing kpt #:    20  of    51
     total cpu time spent up to now is       19.3 secs

     Computing kpt #:    21  of    51
     total cpu time spent up to now is       19.7 secs

     Computing kpt #:    22  of    51
     total cpu time spent up to now is       20.2 secs

     Computing kpt #:    23  of    51
     total cpu time spent up to now is       20.6 secs

     Computing kpt #:    24  of    51
     total cpu time spent up to now is       21.0 secs

     Computing kpt #:    25  of    51
     total cpu time spent up to now is       21.4 secs

     Computing kpt #:    26  of    51
     total cpu time spent up to now is       21.7 secs

     Computing kpt #:    27  of    51
     total cpu time spent up to now is       22.0 secs

     Computing kpt #:    28  of    51
     total cpu time spent up to now is       22.4 secs

     Computing kpt #:    29  of    51
     total cpu time spent up to now is       22.7 secs

     Computing kpt #:    30  of    51
     total cpu time spent up to now is       23.0 secs

     Computing kpt #:    31  of    51
     total cpu time spent up to now is       23.4 secs

     Computing kpt #:    32  of    51
     total cpu time spent up to now is       23.8 secs

     Computing kpt #:    33  of    51
     total cpu time spent up to now is       24.2 secs

     Computing kpt #:    34  of    51
     total cpu time spent up to now is       24.5 secs

     Computing kpt #:    35  of    51
     total cpu time spent up to now is       24.9 secs

     Computing kpt #:    36  of    51
     total cpu time spent up to now is       25.3 secs

     Computing kpt #:    37  of    51
     total cpu time spent up to now is       25.6 secs

     Computing kpt #:    38  of    51
     total cpu time spent up to now is       26.0 secs

     Computing kpt #:    39  of    51
     total cpu time spent up to now is       26.4 secs

     Computing kpt #:    40  of    51
     total cpu time spent up to now is       26.8 secs

     Computing kpt #:    41  of    51
     total cpu time spent up to now is       27.3 secs

     Computing kpt #:    42  of    51
     total cpu time spent up to now is       27.8 secs

     Computing kpt #:    43  of    51
     total cpu time spent up to now is       28.3 secs

     Computing kpt #:    44  of    51
     total cpu time spent up to now is       28.8 secs

     Computing kpt #:    45  of    51
     total cpu time spent up to now is       29.4 secs

     Computing kpt #:    46  of    51
     total cpu time spent up to now is       29.8 secs

     Computing kpt #:    47  of    51
     total cpu time spent up to now is       30.3 secs

     Computing kpt #:    48  of    51
     total cpu time spent up to now is       30.8 secs

     Computing kpt #:    49  of    51
     total cpu time spent up to now is       31.3 secs

     Computing kpt #:    50  of    51
     total cpu time spent up to now is       31.7 secs

     Computing kpt #:    51  of    51
     total cpu time spent up to now is       32.1 secs

     ethr =  6.25E-09,  avg # of iterations = 44.5

     total cpu time spent up to now is       32.1 secs

     End of band structure calculation

          k = 0.0000 0.0000 0.0000 (  5775 PWs)   bands (ev):

   -20.1761 -19.9788  -8.2621  -7.1350  -3.9312  -3.9312  -3.8162  -3.8162
     2.0201   2.5490   3.5844   4.6530   4.8129   6.5435   7.2410   9.0819
     9.0820   9.0857   9.1981   9.1981

          k =-0.0159 0.0275 0.0000 (  5783 PWs)   bands (ev):

   -20.1617 -19.9645  -8.2420  -7.1160  -3.9945  -3.9609  -3.8796  -3.8458
     2.0457   2.5723   3.6087   4.6766   4.8360   6.5598   7.2639   9.0565
     9.0976   9.1468   9.1914   9.2632

          k =-0.0317 0.0550 0.0000 (  5791 PWs)   bands (ev):

   -20.1181 -19.9215  -8.1822  -7.0599  -4.1767  -4.0633  -4.0468  -3.9330
     2.1218   2.6419   3.6814   4.7472   4.9043   6.6075   7.3313   9.0176
     9.0980   9.1804   9.3291   9.4492

          k =-0.0476 0.0825 0.0000 (  5773 PWs)   bands (ev):

   -20.0455 -19.8502  -8.0830  -6.9665  -4.4625  -4.3485  -4.1894  -4.0747
     2.2467   2.7572   3.8023   4.8642   5.0148   6.6827   7.4393   8.9797
     9.0870   9.1793   9.5836   9.7327

          k =-0.0635 0.1100 0.0000 (  5767 PWs)   bands (ev):

   -19.9447 -19.7509  -7.9447  -6.8365  -4.8343  -4.7205  -4.3828  -4.2682
     2.4183   2.9171   3.9706   5.0268   5.1631   6.7783   7.5819   8.9540
     9.0766   9.1856   9.7609   9.9760

          k =-0.0794 0.1375 0.0000 (  5776 PWs)   bands (ev):

   -19.8160 -19.6244  -7.7680  -6.6710  -5.2696  -5.1559  -4.6227  -4.5081
     2.6350   3.1203   4.1861   5.2337   5.3424   6.8827   7.7475   8.9429
     9.0739   9.1974   9.5412  10.1389

          k =-0.0952 0.1650 0.0000 (  5776 PWs)   bands (ev):

   -19.6605 -19.4715  -7.5541  -6.4736  -5.7470  -5.6334  -4.9024  -4.7878
     2.8959   3.3654   4.4483   5.4828   5.5411   6.9795   7.9037   8.9347
     9.0409   9.2085   9.3328  10.3556

          k =-0.1111 0.1925 0.0000 (  5776 PWs)   bands (ev):

   -19.4792 -19.2931  -7.3053  -6.3142  -6.2086  -6.1072  -5.2156  -5.1010
     3.2004   3.6495   4.7564   5.7342   5.7705   7.0543   7.9411   8.8710
     8.9957   9.2568   9.3717  10.5799

          k =-0.1270 0.2199 0.0000 (  5786 PWs)   bands (ev):

   -19.2736 -19.0910  -7.0377  -6.7749  -6.6556  -5.9542  -5.5551  -5.4403
     3.5480   3.9675   5.1083   5.8689   6.0828   7.1233   7.7216   8.9511
     9.0757   9.3806   9.5018  10.8142

          k =-0.1429 0.2474 0.0000 (  5816 PWs)   bands (ev):

   -19.0458 -18.8673  -7.3084  -7.2023  -6.6749  -5.9154  -5.8018  -5.6601
     3.9376   4.3078   5.4887   5.8724   6.3694   7.2570   7.4063   9.2015
     9.2598   9.5565   9.6830  11.0613

          k =-0.1587 0.2749 0.0000 (  5824 PWs)   bands (ev):

   -18.7981 -18.6240  -7.8156  -7.7062  -6.3367  -6.2865  -6.1690  -5.3419
     4.3662   4.6388   5.5919   6.0165   6.4314   7.3348   7.5235   9.4957
     9.5682   9.7744   9.9099  11.3245

          k =-0.1746 0.3024 0.0000 (  5812 PWs)   bands (ev):

   -18.5336 -18.3645  -8.3065  -8.1965  -6.6661  -6.5528  -5.9534  -4.9989
     4.7872   4.8894   5.2964   6.2801   6.4903   7.6594   7.8833   9.8345
     9.9324  10.0308  10.1825  11.6072

          k =-0.1905 0.3299 0.0000 (  5832 PWs)   bands (ev):

   -18.2569 -18.0933  -8.7709  -8.6608  -7.0469  -6.9326  -5.5522  -4.6399
     4.7289   4.8594   5.4076   6.3620   7.0263   8.1359   8.3102  10.2167
    10.2549  10.3531  10.5137  11.9097

          k =-0.2063 0.3574 0.0000 (  5850 PWs)   bands (ev):

   -17.9731 -17.8157  -9.1999  -9.0897  -7.4244  -7.3096  -5.1317  -4.2709
     4.3447   4.4663   5.9501   6.7308   7.6109   8.6794   8.7777  10.5182
    10.6178  10.7090  10.9202  12.2042

          k =-0.2222 0.3849 0.0000 (  5860 PWs)   bands (ev):

   -17.6892 -17.5385  -9.5840  -9.4738  -7.7940  -7.6787  -4.6998  -3.9017
     3.8980   4.0325   6.5437   7.2358   8.2386   9.2475   9.2775  10.7607
    10.9745  11.0827  11.3749  12.3343

          k =-0.2381 0.4124 0.0000 (  5858 PWs)   bands (ev):

   -17.4139 -17.2705  -9.9130  -9.8026  -8.1521  -8.0362  -4.2664  -3.5439
     3.4606   3.6039   7.1742   7.8004   8.9004   9.7108   9.8786  10.9833
    11.2954  11.3972  11.8362  12.2629

          k =-0.2540 0.4399 0.0000 (  5854 PWs)   bands (ev):

   -17.1577 -17.0219 -10.1770 -10.0662  -8.4951  -8.3786  -3.8444  -3.2121
     3.0583   3.2102   7.8336   8.3822   9.5550  10.1001  10.4570  11.2182
    11.4812  11.6245  12.1395  12.4336

          k =-0.2698 0.4674 0.0000 (  5842 PWs)   bands (ev):

   -16.9324 -16.8037 -10.3654 -10.2538  -8.8192  -8.7022  -3.4504  -2.9244
     2.7109   2.8725   8.5064   8.9298   9.9601  10.5806  10.8890  11.3156
    11.6426  12.0156  12.3286  12.8659

          k =-0.2857 0.4949 0.0000 (  5832 PWs)   bands (ev):

   -16.7498 -16.6273 -10.4698 -10.3576  -9.1192  -9.0024  -3.1054  -2.6987
     2.4339   2.6066   9.1267   9.3932   9.9913  11.1233  11.2308  11.3857
    12.0040  12.4874  12.6831  13.2582

          k =-0.3016 0.5224 0.0000 (  5814 PWs)   bands (ev):

   -16.6187 -16.5006 -10.4900 -10.3778  -9.3856  -9.2703  -2.8324  -2.5494
     2.2402   2.4232   9.4333   9.8001  10.0313  11.1448  11.5542  12.0984
    12.2437  12.9395  13.2748  13.4634

          k =-0.3175 0.5499 0.0000 (  5828 PWs)   bands (ev):

   -16.5428 -16.4272 -10.4452 -10.3366  -9.5953  -9.4848  -2.6541  -2.4768
     2.1338   2.3218   9.4995   9.7456  10.5184  11.0700  11.8519  12.4296
    12.8308  13.2682  13.3481  13.9484

          k =-0.3333 0.5774 0.0000 (  5826 PWs)   bands (ev):

   -16.5192 -16.4042 -10.4030 -10.3002  -9.6856  -9.5811  -2.5923  -2.4595
     2.1040   2.2916   9.5056   9.7043  10.7525  11.0246  11.9166  12.6848
    12.9335  13.2035  13.8643  13.9489

          k =-0.3030 0.5774 0.0000 (  5824 PWs)   bands (ev):

   -16.5376 -16.4222 -10.4606 -10.3500  -9.5906  -9.4786  -2.6372  -2.4761
     2.1202   2.3143   9.5110   9.7442  10.6373  10.9733  11.8506  12.5819
    12.7882  13.1872  13.5624  13.7325

          k =-0.2727 0.5774 0.0000 (  5812 PWs)   bands (ev):

   -16.5860 -16.4696 -10.5930 -10.4735  -9.3407  -9.2209  -2.7412  -2.5323
     2.1473   2.3719   9.5311   9.8476  10.4250  10.7933  11.6451  12.3587
    12.5647  12.8850  13.2103  13.3883

          k =-0.2424 0.5774 0.0000 (  5812 PWs)   bands (ev):

   -16.6543 -16.5367 -10.7435 -10.6195  -9.0040  -8.8812  -2.8731  -2.6223
     2.1642   2.4448   9.5267   9.9490  10.1860  10.5837  11.3764  12.0503
    12.2334  12.5820  12.8730  13.0017

          k =-0.2121 0.5774 0.0000 (  5836 PWs)   bands (ev):

   -16.7329 -16.6142 -10.8889 -10.7622  -8.6234  -8.4999  -3.0148  -2.7316
     2.1647   2.5134   9.3950   9.7468  10.1474  10.4617  11.1153  11.7584
    11.7930  12.4076  12.5845  12.6559

          k =-0.1818 0.5774 0.0000 (  5824 PWs)   bands (ev):

   -16.8137 -16.6940 -11.0200 -10.8915  -8.2253  -8.1023  -3.1533  -2.8461
     2.1506   2.5664   9.0851   9.3283  10.1782  10.4046  10.9128  11.3570
    11.6142  12.2437  12.3632  12.4264

          k =-0.1515 0.5774 0.0000 (  5818 PWs)   bands (ev):

   -16.8909 -16.7704 -11.1335 -11.0035  -7.8332  -7.7114  -3.2808  -2.9561
     2.1261   2.6005   8.6672   8.8469  10.1542  10.3169  10.7563  11.0067
    11.6203  12.0475  12.1313  12.3964

          k =-0.1212 0.5774 0.0000 (  5836 PWs)   bands (ev):

   -16.9598 -16.8387 -11.2278 -11.0967  -7.4687  -7.3480  -3.3922  -3.0546
     2.0966   2.6185   8.2235   8.3654  10.0620  10.2430  10.6136  10.7427
    11.6580  11.8808  11.9884  12.3874

          k =-0.0909 0.5774 0.0000 (  5836 PWs)   bands (ev):

   -17.0165 -16.8949 -11.3015 -11.1696  -7.1535  -7.0338  -3.4822  -3.1354
     2.0676   2.6251   7.8164   7.9367   9.9558  10.1805  10.4903  10.5592
    11.6100  11.7409  11.9713  12.3634

          k =-0.0606 0.5774 0.0000 (  5820 PWs)   bands (ev):

   -17.0587 -16.9367 -11.3544 -11.2220  -6.9088  -6.7897  -3.5477  -3.1949
     2.0439   2.6257   7.4921   7.6011   9.8720  10.1236  10.3940  10.4456
    11.5341  11.6361  11.9903  12.3300

          k =-0.0303 0.5774 0.0000 (  5814 PWs)   bands (ev):

   -17.0846 -16.9625 -11.3861 -11.2535  -6.7533  -6.6346  -3.5879  -3.2314
     2.0280   2.6242   7.2839   7.3877   9.8201  10.0829  10.3330  10.3852
    11.4809  11.5724  11.9998  12.3027

          k = 0.0000 0.5774 0.0000 (  5820 PWs)   bands (ev):

   -17.0934 -16.9712 -11.3968 -11.2641  -6.7000  -6.5815  -3.6015  -3.2440
     2.0224   2.6232   7.2120   7.3144   9.8026  10.0681  10.3124  10.3660
    11.4624  11.5511  12.0018  12.2925

          k = 0.0000 0.5453 0.0000 (  5846 PWs)   bands (ev):

   -17.1387 -17.0141 -11.3286 -11.1959  -6.6842  -6.5656  -3.6997  -3.2824
     2.1108   2.7120   7.1434   7.3356   9.3173   9.5489  10.5774  10.8070
    10.9657  11.6013  11.9226  12.3805

          k = 0.0000 0.5132 0.0000 (  5850 PWs)   bands (ev):

   -17.2671 -17.1362 -11.1295 -10.9967  -6.6369  -6.5184  -3.9522  -3.4133
     2.3654   2.9613   6.9704   7.3473   8.7513   8.8946   9.9029  10.8439
    10.9125  11.5966  11.9787  12.6793

          k = 0.0000 0.4811 0.0000 (  5846 PWs)   bands (ev):

   -17.4610 -17.3220 -10.8170 -10.6847  -6.5585  -6.4402  -4.2968  -3.6377
     2.7562   3.3321   6.6824   7.2970   8.2601   8.3615   9.1987  10.1805
    10.4752  11.8302  12.2150  12.7946

          k = 0.0000 0.4491 0.0000 (  5858 PWs)   bands (ev):

   -17.6995 -17.5522 -10.4130 -10.2817  -6.4506  -6.3324  -4.6903  -3.9317
     3.2427   3.7787   6.2810   7.0847   7.8940   7.9905   8.5867   9.5262
     9.9956  11.4095  12.0553  13.0707

          k = 0.0000 0.4170 0.0000 (  5848 PWs)   bands (ev):

   -17.9632 -17.8082  -9.9380  -9.8084  -6.3140  -6.1959  -5.1033  -4.2665
     3.7805   4.2558   5.8122   6.6979   7.5330   7.7971   8.1486   8.9330
     9.5495  10.9645  11.5295  13.3830

          k = 0.0000 0.3849 0.0000 (  5838 PWs)   bands (ev):

   -18.2374 -18.0756  -9.4098  -9.2826  -6.1505  -6.0325  -5.5172  -4.6188
     4.3098   4.7003   5.3279   6.3252   7.0319   7.7100   7.8683   8.4463
     9.1782  10.5463  11.0012  13.2340

          k = 0.0000 0.3528 0.0000 (  5828 PWs)   bands (ev):

   -18.5109 -18.3430  -8.8437  -8.7189  -5.9629  -5.9191  -5.8451  -4.9724
     4.6567   4.8351   5.0924   6.1776   6.5207   7.5174   7.6247   8.1803
     8.9051  10.1749  10.5082  12.9013

          k = 0.0000 0.3208 0.0000 (  5818 PWs)   bands (ev):

   -18.7756 -18.6023  -8.2531  -8.1311  -6.2999  -5.7545  -5.6369  -5.3147
     4.3628   4.6169   5.4300   6.0412   6.3359   7.2489   7.3992   8.1310
     8.7296   9.8640  10.0659  12.5694

          k = 0.0000 0.2887 0.0000 (  5810 PWs)   bands (ev):

   -19.0256 -18.8475  -7.6509  -7.5331  -6.6513  -5.6375  -5.5291  -5.4116
     3.9452   4.3189   5.4871   5.8054   6.3539   7.1591   7.3391   8.1579
     8.6356   9.6210   9.6935  12.2709

          k = 0.0000 0.2566 0.0000 (  5786 PWs)   bands (ev):

   -19.2565 -19.0743  -7.0852  -7.0009  -6.8686  -5.9340  -5.2915  -5.1743
     3.5603   3.9855   5.1290   5.8267   6.0950   7.0917   7.6509   8.2156
     8.6140   9.3969   9.4694  11.9852

          k = 0.0000 0.2245 0.0000 (  5788 PWs)   bands (ev):

   -19.4655 -19.2798  -7.2877  -6.4599  -6.3430  -6.1760  -5.0484  -4.9315
     3.2139   3.6668   4.7759   5.7188   5.7864   7.0469   7.8845   8.3706
     8.6585   9.2604   9.3631  11.5896

          k = 0.0000 0.1925 0.0000 (  5778 PWs)   bands (ev):

   -19.6501 -19.4613  -7.5400  -6.4620  -5.8707  -5.7534  -4.8067  -4.6902
     2.9084   3.3798   4.4641   5.4966   5.5403   6.9809   7.8636   8.6111
     8.7501   9.2874   9.3406  11.1958

          k = 0.0000 0.1604 0.0000 (  5768 PWs)   bands (ev):

   -19.8086 -19.6171  -7.7580  -6.6619  -5.3458  -5.2296  -4.5754  -4.4593
     2.6452   3.1312   4.1978   5.2444   5.3468   6.8864   7.7339   8.7634
     8.8649   9.2543   9.5803  10.6312

          k = 0.0000 0.1283 0.0000 (  5792 PWs)   bands (ev):

   -19.9400 -19.7463  -7.9384  -6.8306  -4.8764  -4.7610  -4.3659  -4.2501
     2.4256   2.9243   3.9784   5.0341   5.1681   6.7818   7.5811   8.8616
     8.9674   9.2223   9.8731  10.0982

          k = 0.0000 0.0962 0.0000 (  5782 PWs)   bands (ev):

   -20.0429 -19.8475  -8.0794  -6.9631  -4.4821  -4.3671  -4.1862  -4.0708
     2.2512   2.7614   3.8067   4.8685   5.0185   6.6852   7.4417   8.9425
     9.0451   9.1956   9.6656   9.7819

          k = 0.0000 0.0642 0.0000 (  5797 PWs)   bands (ev):

   -20.1169 -19.9204  -8.1806  -7.0585  -4.1835  -4.0687  -4.0489  -3.9337
     2.1239   2.6438   3.6835   4.7491   4.9061   6.6088   7.3330   9.0079
     9.0905   9.1828   9.3455   9.4616

          k = 0.0000 0.0321 0.0000 (  5777 PWs)   bands (ev):

   -20.1613 -19.9641  -8.2414  -7.1157  -3.9960  -3.9610  -3.8811  -3.8460
     2.0462   2.5728   3.6092   4.6771   4.8365   6.5603   7.2644   9.0555
     9.0980   9.1489   9.1911   9.2650

          k = 0.0000 0.0000 0.0000 (  5775 PWs)   bands (ev):

   -20.1761 -19.9788  -8.2621  -7.1350  -3.9312  -3.9312  -3.8162  -3.8162
     2.0201   2.5490   3.5844   4.6530   4.8129   6.5435   7.2410   9.0819
     9.0820   9.0857   9.1981   9.1981

     Writing all to output data dir ./tmp/BN2L_AB1_PBE_vdW.save/

     init_run     :     10.97s CPU     11.17s WALL (       1 calls)
     electrons    :     21.67s CPU     20.80s WALL (       1 calls)

     Called by init_run:
     wfcinit      :      0.00s CPU      0.00s WALL (       1 calls)
     wfcinit:atom :      0.01s CPU      0.01s WALL (      51 calls)
     wfcinit:wfcr :      0.61s CPU      0.62s WALL (      51 calls)
     potinit      :     10.57s CPU     10.76s WALL (       1 calls)
     hinit0       :      0.36s CPU      0.37s WALL (       1 calls)

     Called by electrons:
     c_bands      :     21.67s CPU     20.79s WALL (       1 calls)
     v_of_rho     :     10.57s CPU     10.75s WALL (       1 calls)
     v_h          :      0.00s CPU      0.00s WALL (       1 calls)
     v_xc         :     10.57s CPU     10.75s WALL (       1 calls)
     vdW_kernel   :     10.51s CPU     10.68s WALL (       1 calls)

     Called by c_bands:
     init_us_2    :      0.02s CPU      0.02s WALL (      51 calls)
     init_us_2:cp :      0.02s CPU      0.02s WALL (      51 calls)
     cegterg      :     20.99s CPU     20.08s WALL (     136 calls)

     Called by sum_band:

     Called by *egterg:
     cdiaghg      :      1.52s CPU      1.57s WALL (    2320 calls)
     cegterg:over :      2.22s CPU      1.75s WALL (    2269 calls)
     cegterg:upda :      1.37s CPU      1.13s WALL (    2269 calls)
     cegterg:last :      2.37s CPU      1.63s WALL (    1256 calls)
     h_psi        :     13.39s CPU     13.78s WALL (    2456 calls)
     g_psi        :      0.12s CPU      0.15s WALL (    2269 calls)

     Called by h_psi:
     h_psi:calbec :      1.10s CPU      1.11s WALL (    2456 calls)
     vloc_psi     :     11.04s CPU     11.63s WALL (    2456 calls)
     add_vuspsi   :      1.11s CPU      0.88s WALL (    2456 calls)

     General routines
     calbec       :      1.10s CPU      1.10s WALL (    2456 calls)
     fft          :      0.30s CPU      0.30s WALL (      61 calls)
     fftw         :      9.65s CPU     10.14s WALL (   49536 calls)
     davcio       :      0.00s CPU      0.02s WALL (     102 calls)

     Parallel routines

     PWSCF        :     32.90s CPU     32.34s WALL


   This run was terminated on:  15:25:34  17Apr2024            

=------------------------------------------------------------------------------=
   JOB DONE.
=------------------------------------------------------------------------------=
