
     Program PWSCF v.7.2 starts on 15Apr2024 at 12:33:26 

     This program is part of the open-source Quantum ESPRESSO suite
     for quantum simulation of materials; please cite
         "P. Giannozzi et al., J. Phys.:Condens. Matter 21 395502 (2009);
         "P. Giannozzi et al., J. Phys.:Condens. Matter 29 465901 (2017);
         "P. Giannozzi et al., J. Chem. Phys. 152 154105 (2020);
          URL http://www.quantum-espresso.org", 
     in publications or presentations arising from this work. More details at
     http://www.quantum-espresso.org/quote

     Parallel version (MPI & OpenMP), running on       8 processor cores
     Number of MPI processes:                 8
     Threads/MPI process:                     1

     MPI processes distributed on     1 nodes
     0 MiB available memory on the printing compute node when the environment starts

     Waiting for input...
     Reading input from standard input
Warning: card &IONS ignored
Warning: card / ignored
Warning: card &CELL ignored
Warning: card CELL_DOFREE = 'Z' ignored
Warning: card / ignored

     Current dimensions of program PWSCF are:
     Max number of different atomic species (ntypx) = 10
     Max number of k-points (npk) =  40000
     Max angular momentum in pseudopotentials (lmaxx) =  4

     Atomic positions and unit cell read from directory:
     ./tmp/BN2L_AB1_PBE_vdW.save/
     Atomic positions from file used, from input discarded


     IMPORTANT: XC functional enforced from input :
     Exchange-correlation= VDW-DF2-B86R
                           (   1   4  26   0   2   0   0)
     Any further DFT definition will be discarded
     Please, verify this is what you really want


     R & G space division:  proc/nbgrp/npool/nimage =       8
     Subspace diagonalization in iterative solution of the eigenvalue problem:
     a serial algorithm will be used


     Parallelization info
     --------------------
     sticks:   dense  smooth     PW     G-vecs:    dense   smooth      PW
     Min          45      45     15                 5775     5775    1005
     Max          46      46     16                 5804     5804    1022
     Sum         367     367    121                46381    46381    8133

     Using Slab Decomposition



     bravais-lattice index     =            4
     lattice parameter (alat)  =       4.7400  a.u.
     unit-cell volume          =     737.8289 (a.u.)^3
     number of atoms/cell      =            4
     number of atomic types    =            2
     number of electrons       =        16.00
     number of Kohn-Sham states=           20
     kinetic-energy cutoff     =      60.0000  Ry
     charge density cutoff     =     240.0000  Ry
     Exchange-correlation= VDW-DF2-B86R
                           (   1   4  26   0   2   0   0)

     celldm(1)=   4.740000  celldm(2)=   0.000000  celldm(3)=   8.000000
     celldm(4)=   0.000000  celldm(5)=   0.000000  celldm(6)=   0.000000

     crystal axes: (cart. coord. in units of alat)
               a(1) = (   1.000000   0.000000   0.000000 )  
               a(2) = (  -0.500000   0.866025   0.000000 )  
               a(3) = (   0.000000   0.000000   8.000000 )  

     reciprocal axes: (cart. coord. in units 2 pi/alat)
               b(1) = (  1.000000  0.577350 -0.000000 )  
               b(2) = (  0.000000  1.154701  0.000000 )  
               b(3) = (  0.000000 -0.000000  0.125000 )  


     PseudoPot. # 1 for B  read from file:
     ../../../../Pseudo/PBE/B.upf
     MD5 check sum: 72f82fc31bc892420d0cab7e25c88ab8
     Pseudo is Norm-conserving + core correction, Zval =  3.0
     Generated using ONCVPSP code by D. R. Hamann
     Using radial grid of 1534 points,  4 beta functions with: 
                l(1) =   0
                l(2) =   0
                l(3) =   1
                l(4) =   1

     PseudoPot. # 2 for N  read from file:
     ../../../../Pseudo/PBE/N.upf
     MD5 check sum: d34365f73bb0e2ee98afc20ec3e87676
     Pseudo is Norm-conserving + core correction, Zval =  5.0
     Generated using ONCVPSP code by D. R. Hamann
     Using radial grid of 1058 points,  4 beta functions with: 
                l(1) =   0
                l(2) =   0
                l(3) =   1
                l(4) =   1

     atomic species   valence    mass     pseudopotential
        B              3.00    10.00000     B ( 1.00)
        N              5.00    14.01100     N ( 1.00)

      6 Sym. Ops. (no inversion) found


                                    s                        frac. trans.

      isym =  1     identity                                     

 cryst.   s( 1) = (     1          0          0      )
                  (     0          1          0      )
                  (     0          0          1      )

 cart.    s( 1) = (  1.0000000  0.0000000  0.0000000 )
                  (  0.0000000  1.0000000  0.0000000 )
                  (  0.0000000  0.0000000  1.0000000 )


      isym =  2     120 deg rotation - cryst. axis [0,0,1]       

 cryst.   s( 2) = (     0          1          0      )
                  (    -1         -1          0      )
                  (     0          0          1      )

 cart.    s( 2) = ( -0.5000000 -0.8660254  0.0000000 )
                  (  0.8660254 -0.5000000  0.0000000 )
                  (  0.0000000  0.0000000  1.0000000 )


      isym =  3     120 deg rotation - cryst. axis [0,0,-1]      

 cryst.   s( 3) = (    -1         -1          0      )
                  (     1          0          0      )
                  (     0          0          1      )

 cart.    s( 3) = ( -0.5000000  0.8660254  0.0000000 )
                  ( -0.8660254 -0.5000000  0.0000000 )
                  (  0.0000000  0.0000000  1.0000000 )


      isym =  4     inv. 180 deg rotation - cart. axis [1,0,0]   

 cryst.   s( 4) = (    -1          0          0      )
                  (     1          1          0      )
                  (     0          0          1      )

 cart.    s( 4) = ( -1.0000000  0.0000000  0.0000000 )
                  (  0.0000000  1.0000000  0.0000000 )
                  (  0.0000000  0.0000000  1.0000000 )


      isym =  5     inv. 180 deg rotation - cryst. axis [0,1,0]  

 cryst.   s( 5) = (     1          1          0      )
                  (     0         -1          0      )
                  (     0          0          1      )

 cart.    s( 5) = (  0.5000000  0.8660254  0.0000000 )
                  (  0.8660254 -0.5000000  0.0000000 )
                  (  0.0000000  0.0000000  1.0000000 )


      isym =  6     inv. 180 deg rotation - cryst. axis [1,1,0]  

 cryst.   s( 6) = (     0         -1          0      )
                  (    -1          0          0      )
                  (     0          0          1      )

 cart.    s( 6) = (  0.5000000 -0.8660254  0.0000000 )
                  ( -0.8660254 -0.5000000  0.0000000 )
                  (  0.0000000  0.0000000  1.0000000 )


     point group C_3v (3m)  
     there are  3 classes
     the character table:

       E     2C3   3s_v 
A_1    1.00  1.00  1.00
A_2    1.00  1.00 -1.00
E      2.00 -1.00  0.00

     the symmetry operations in each class and the name of the first element:

     E        1
          identity                                               
     2C3      2    3
          120 deg rotation - cryst. axis [0,0,1]                 
     3s_v     4    5    6
          inv. 180 deg rotation - cart. axis [1,0,0]             

   Cartesian axes

     site n.     atom                  positions (alat units)
         1           B   tau(   1) = (   0.0000000   0.0000000   0.0000000  )
         2           N   tau(   2) = (  -0.0000003   0.5773502   0.0000000  )
         3           N   tau(   3) = (   0.0000000   0.0000000   1.3078400  )
         4           B   tau(   4) = (   0.5000005   0.2886748   1.3078400  )

   Crystallographic axes

     site n.     atom                  positions (cryst. coord.)
         1           B   tau(   1) = (  0.0000000  0.0000000  0.0000000  )
         2           N   tau(   2) = (  0.3333330  0.6666666  0.0000000  )
         3           N   tau(   3) = (  0.0000000  0.0000000  0.1634800  )
         4           B   tau(   4) = (  0.6666670  0.3333330  0.1634800  )

     number of k points=    51  Marzari-Vanderbilt smearing, width (Ry)=  0.0050
                       cart. coord. in units 2pi/alat
        k(    1) = (   0.0000000   0.0000000   0.0000000), wk =   0.0392157
        k(    2) = (  -0.0158729   0.0274930   0.0000000), wk =   0.0392157
        k(    3) = (  -0.0317457   0.0549860   0.0000000), wk =   0.0392157
        k(    4) = (  -0.0476186   0.0824789   0.0000000), wk =   0.0392157
        k(    5) = (  -0.0634914   0.1099719   0.0000000), wk =   0.0392157
        k(    6) = (  -0.0793643   0.1374649   0.0000000), wk =   0.0392157
        k(    7) = (  -0.0952371   0.1649579   0.0000000), wk =   0.0392157
        k(    8) = (  -0.1111100   0.1924509   0.0000000), wk =   0.0392157
        k(    9) = (  -0.1269829   0.2199438   0.0000000), wk =   0.0392157
        k(   10) = (  -0.1428557   0.2474368   0.0000000), wk =   0.0392157
        k(   11) = (  -0.1587286   0.2749298   0.0000000), wk =   0.0392157
        k(   12) = (  -0.1746014   0.3024228   0.0000000), wk =   0.0392157
        k(   13) = (  -0.1904743   0.3299158   0.0000000), wk =   0.0392157
        k(   14) = (  -0.2063471   0.3574087   0.0000000), wk =   0.0392157
        k(   15) = (  -0.2222200   0.3849017   0.0000000), wk =   0.0392157
        k(   16) = (  -0.2380929   0.4123947   0.0000000), wk =   0.0392157
        k(   17) = (  -0.2539657   0.4398877   0.0000000), wk =   0.0392157
        k(   18) = (  -0.2698386   0.4673807   0.0000000), wk =   0.0392157
        k(   19) = (  -0.2857114   0.4948736   0.0000000), wk =   0.0392157
        k(   20) = (  -0.3015843   0.5223666   0.0000000), wk =   0.0392157
        k(   21) = (  -0.3174571   0.5498596   0.0000000), wk =   0.0392157
        k(   22) = (  -0.3333300   0.5773526   0.0000000), wk =   0.0392157
        k(   23) = (  -0.3030273   0.5773524   0.0000000), wk =   0.0392157
        k(   24) = (  -0.2727245   0.5773522   0.0000000), wk =   0.0392157
        k(   25) = (  -0.2424218   0.5773519   0.0000000), wk =   0.0392157
        k(   26) = (  -0.2121191   0.5773517   0.0000000), wk =   0.0392157
        k(   27) = (  -0.1818164   0.5773515   0.0000000), wk =   0.0392157
        k(   28) = (  -0.1515136   0.5773513   0.0000000), wk =   0.0392157
        k(   29) = (  -0.1212109   0.5773511   0.0000000), wk =   0.0392157
        k(   30) = (  -0.0909082   0.5773509   0.0000000), wk =   0.0392157
        k(   31) = (  -0.0606055   0.5773507   0.0000000), wk =   0.0392157
        k(   32) = (  -0.0303027   0.5773505   0.0000000), wk =   0.0392157
        k(   33) = (   0.0000000   0.5773503   0.0000000), wk =   0.0392157
        k(   34) = (   0.0000000   0.5452753   0.0000000), wk =   0.0392157
        k(   35) = (   0.0000000   0.5132002   0.0000000), wk =   0.0392157
        k(   36) = (   0.0000000   0.4811252   0.0000000), wk =   0.0392157
        k(   37) = (   0.0000000   0.4490502   0.0000000), wk =   0.0392157
        k(   38) = (   0.0000000   0.4169752   0.0000000), wk =   0.0392157
        k(   39) = (   0.0000000   0.3849002   0.0000000), wk =   0.0392157
        k(   40) = (   0.0000000   0.3528252   0.0000000), wk =   0.0392157
        k(   41) = (   0.0000000   0.3207501   0.0000000), wk =   0.0392157
        k(   42) = (   0.0000000   0.2886751   0.0000000), wk =   0.0392157
        k(   43) = (   0.0000000   0.2566001   0.0000000), wk =   0.0392157
        k(   44) = (   0.0000000   0.2245251   0.0000000), wk =   0.0392157
        k(   45) = (   0.0000000   0.1924501   0.0000000), wk =   0.0392157
        k(   46) = (   0.0000000   0.1603751   0.0000000), wk =   0.0392157
        k(   47) = (   0.0000000   0.1283001   0.0000000), wk =   0.0392157
        k(   48) = (   0.0000000   0.0962250   0.0000000), wk =   0.0392157
        k(   49) = (   0.0000000   0.0641500   0.0000000), wk =   0.0392157
        k(   50) = (   0.0000000   0.0320750   0.0000000), wk =   0.0392157
        k(   51) = (   0.0000000   0.0000000   0.0000000), wk =   0.0392157

                       cryst. coord.
        k(    1) = (   0.0000000   0.0000000   0.0000000), wk =   0.0392157
        k(    2) = (  -0.0158729   0.0317460   0.0000000), wk =   0.0392157
        k(    3) = (  -0.0317457   0.0634921   0.0000000), wk =   0.0392157
        k(    4) = (  -0.0476186   0.0952381   0.0000000), wk =   0.0392157
        k(    5) = (  -0.0634914   0.1269842   0.0000000), wk =   0.0392157
        k(    6) = (  -0.0793643   0.1587302   0.0000000), wk =   0.0392157
        k(    7) = (  -0.0952371   0.1904763   0.0000000), wk =   0.0392157
        k(    8) = (  -0.1111100   0.2222223   0.0000000), wk =   0.0392157
        k(    9) = (  -0.1269829   0.2539684   0.0000000), wk =   0.0392157
        k(   10) = (  -0.1428557   0.2857144   0.0000000), wk =   0.0392157
        k(   11) = (  -0.1587286   0.3174605   0.0000000), wk =   0.0392157
        k(   12) = (  -0.1746014   0.3492065   0.0000000), wk =   0.0392157
        k(   13) = (  -0.1904743   0.3809526   0.0000000), wk =   0.0392157
        k(   14) = (  -0.2063471   0.4126986   0.0000000), wk =   0.0392157
        k(   15) = (  -0.2222200   0.4444447   0.0000000), wk =   0.0392157
        k(   16) = (  -0.2380929   0.4761907   0.0000000), wk =   0.0392157
        k(   17) = (  -0.2539657   0.5079368   0.0000000), wk =   0.0392157
        k(   18) = (  -0.2698386   0.5396828   0.0000000), wk =   0.0392157
        k(   19) = (  -0.2857114   0.5714289   0.0000000), wk =   0.0392157
        k(   20) = (  -0.3015843   0.6031749   0.0000000), wk =   0.0392157
        k(   21) = (  -0.3174571   0.6349210   0.0000000), wk =   0.0392157
        k(   22) = (  -0.3333300   0.6666670   0.0000000), wk =   0.0392157
        k(   23) = (  -0.3030273   0.6515155   0.0000000), wk =   0.0392157
        k(   24) = (  -0.2727245   0.6363639   0.0000000), wk =   0.0392157
        k(   25) = (  -0.2424218   0.6212124   0.0000000), wk =   0.0392157
        k(   26) = (  -0.2121191   0.6060608   0.0000000), wk =   0.0392157
        k(   27) = (  -0.1818164   0.5909093   0.0000000), wk =   0.0392157
        k(   28) = (  -0.1515136   0.5757577   0.0000000), wk =   0.0392157
        k(   29) = (  -0.1212109   0.5606062   0.0000000), wk =   0.0392157
        k(   30) = (  -0.0909082   0.5454546   0.0000000), wk =   0.0392157
        k(   31) = (  -0.0606055   0.5303031   0.0000000), wk =   0.0392157
        k(   32) = (  -0.0303027   0.5151515   0.0000000), wk =   0.0392157
        k(   33) = (   0.0000000   0.5000000   0.0000000), wk =   0.0392157
        k(   34) = (   0.0000000   0.4722222   0.0000000), wk =   0.0392157
        k(   35) = (   0.0000000   0.4444444   0.0000000), wk =   0.0392157
        k(   36) = (   0.0000000   0.4166667   0.0000000), wk =   0.0392157
        k(   37) = (   0.0000000   0.3888889   0.0000000), wk =   0.0392157
        k(   38) = (   0.0000000   0.3611111   0.0000000), wk =   0.0392157
        k(   39) = (   0.0000000   0.3333333   0.0000000), wk =   0.0392157
        k(   40) = (   0.0000000   0.3055556   0.0000000), wk =   0.0392157
        k(   41) = (   0.0000000   0.2777778   0.0000000), wk =   0.0392157
        k(   42) = (   0.0000000   0.2500000   0.0000000), wk =   0.0392157
        k(   43) = (   0.0000000   0.2222222   0.0000000), wk =   0.0392157
        k(   44) = (   0.0000000   0.1944444   0.0000000), wk =   0.0392157
        k(   45) = (   0.0000000   0.1666667   0.0000000), wk =   0.0392157
        k(   46) = (   0.0000000   0.1388889   0.0000000), wk =   0.0392157
        k(   47) = (   0.0000000   0.1111111   0.0000000), wk =   0.0392157
        k(   48) = (   0.0000000   0.0833333   0.0000000), wk =   0.0392157
        k(   49) = (   0.0000000   0.0555556   0.0000000), wk =   0.0392157
        k(   50) = (   0.0000000   0.0277778   0.0000000), wk =   0.0392157
        k(   51) = (   0.0000000   0.0000000   0.0000000), wk =   0.0392157

     Dense  grid:    46381 G-vectors     FFT dimensions: (  24,  24, 192)

     Dynamical RAM for                 wfc:       0.22 MB

     Dynamical RAM for     wfc (w. buffer):       0.22 MB

     Dynamical RAM for           str. fact:       0.18 MB

     Dynamical RAM for           local pot:       0.00 MB

     Dynamical RAM for          nlocal pot:       0.35 MB

     Dynamical RAM for                qrad:       0.71 MB

     Dynamical RAM for          rho,v,vnew:       0.58 MB

     Dynamical RAM for           G-vectors:       0.38 MB

     Dynamical RAM for          h,s,v(r/c):       0.07 MB

     Dynamical RAM for          <psi|beta>:       0.01 MB

     Dynamical RAM for                 psi:       0.44 MB

     Dynamical RAM for                hpsi:       0.44 MB

     Dynamical RAM for      wfcinit/wfcrot:       0.45 MB

     Estimated static dynamical RAM per process >       3.21 MB

     Estimated max dynamical RAM per process >       4.18 MB

     Estimated total dynamical RAM >      33.43 MB

     The potential is recalculated from file :
     ./tmp/BN2L_AB1_PBE_vdW.save/charge-density



     %%%%%%%%%%%%%%%%%%%%%%%%%%%%%%%%%%%%%%%%%%%%%%%%%%%%%%%%%%%%%%%%%%%%%%%%
     %                                                                      %
     % You are using vdW-DF, which was implemented by the Thonhauser group. %
     % Please cite the following two papers that made this development      %
     % possible and the two reviews that describe the various versions:     %
     %                                                                      %
     %   T. Thonhauser et al., PRL 115, 136402 (2015).                      %
     %   T. Thonhauser et al., PRB 76, 125112 (2007).                       %
     %   K. Berland et al., Rep. Prog. Phys. 78, 066501 (2015).             %
     %   D.C. Langreth et al., J. Phys.: Condens. Matter 21, 084203 (2009). %
     %                                                                      %
     % If you are calculating stress with vdW-DF, please also cite:         %
     %                                                                      %
     %   R. Sabatini et al., J. Phys.: Condens. Matter 24, 424209 (2012).   %
     %                                                                      %
     %%%%%%%%%%%%%%%%%%%%%%%%%%%%%%%%%%%%%%%%%%%%%%%%%%%%%%%%%%%%%%%%%%%%%%%%

     %%%%%%%%%%%%%%%%%%%%%%%%%%%%%%%%%%%%%%%%%%%%%%%%%%%%%%%%%%%%%%%%%%%%%%%%
     %                                                                      %
     %  vdW-DF NEWS:                                                        %
     %                                                                      %
     %  * vdW-DF3 is now available. DOI: 10.1021/acs.jctc.0c00471           %
     %    use with input_dft = 'vdW-DF3-opt1' or 'vdW-DF3-opt2'             %
     %                                                                      %
     %  * Unscreened and range-separated hybrid vdW-DF-cx functionals       %
     %    DOI: 10.1063/1.4986522 and 10.1088/1361-648X/ac2ad2               %
     %    use with input_dft = 'vdW-DF-cx0'    and 'vdW-DF-ahcx'            %
     %  * Unscreened and range-separated hybrid vdW-DF2-b86r functionals    %
     %    DOI: 10.1063/1.4986522 and DOI: 10.1103/PhysRevX.12.041003        %
     %    use with input_dft = 'vdW-DF2-br0' and 'vdW-DF2-ahbr'             %
     %                                                                      %
     %%%%%%%%%%%%%%%%%%%%%%%%%%%%%%%%%%%%%%%%%%%%%%%%%%%%%%%%%%%%%%%%%%%%%%%%


     Carrying out vdW-DF run using the following parameters:
     Nqs    =  20  Npoints =  1024  r_max =  100.000
     q_mesh =  0.00001000  0.04494208  0.09755937  0.15916263
               0.23128650  0.31572767  0.41458969  0.53033537
               0.66584808  0.82450364  1.01025438  1.22772762
               1.48234092  1.78043706  2.12944203  2.53805004
               3.01644009  3.57652955  4.23227104  5.00000000


     -----------------------------------------------
     Non-local corr. energy    =       0.20060349 Ry
     -----------------------------------------------

     Starting wfcs are   16 randomized atomic wfcs +    4 random wfcs

     Band Structure Calculation
     Davidson diagonalization with overlap

     Computing kpt #:     1  of    51
     total cpu time spent up to now is        9.8 secs

     Computing kpt #:     2  of    51
     total cpu time spent up to now is       10.2 secs

     Computing kpt #:     3  of    51
     total cpu time spent up to now is       10.5 secs

     Computing kpt #:     4  of    51
     total cpu time spent up to now is       10.9 secs

     Computing kpt #:     5  of    51
     total cpu time spent up to now is       11.2 secs

     Computing kpt #:     6  of    51
     total cpu time spent up to now is       11.6 secs

     Computing kpt #:     7  of    51
     total cpu time spent up to now is       11.9 secs

     Computing kpt #:     8  of    51
     total cpu time spent up to now is       12.3 secs

     Computing kpt #:     9  of    51
     total cpu time spent up to now is       12.6 secs

     Computing kpt #:    10  of    51
     total cpu time spent up to now is       13.0 secs

     Computing kpt #:    11  of    51
     total cpu time spent up to now is       13.3 secs

     Computing kpt #:    12  of    51
     total cpu time spent up to now is       13.6 secs

     Computing kpt #:    13  of    51
     total cpu time spent up to now is       13.8 secs

     Computing kpt #:    14  of    51
     total cpu time spent up to now is       14.1 secs

     Computing kpt #:    15  of    51
     total cpu time spent up to now is       14.4 secs

     Computing kpt #:    16  of    51
     total cpu time spent up to now is       14.6 secs

     Computing kpt #:    17  of    51
     total cpu time spent up to now is       14.9 secs

     Computing kpt #:    18  of    51
     total cpu time spent up to now is       15.1 secs

     Computing kpt #:    19  of    51
     total cpu time spent up to now is       15.4 secs

     Computing kpt #:    20  of    51
     total cpu time spent up to now is       15.7 secs

     Computing kpt #:    21  of    51
     total cpu time spent up to now is       16.1 secs

     Computing kpt #:    22  of    51
     total cpu time spent up to now is       16.5 secs

     Computing kpt #:    23  of    51
     total cpu time spent up to now is       16.8 secs

     Computing kpt #:    24  of    51
     total cpu time spent up to now is       17.2 secs

     Computing kpt #:    25  of    51
     total cpu time spent up to now is       17.5 secs

     Computing kpt #:    26  of    51
     total cpu time spent up to now is       17.8 secs

     Computing kpt #:    27  of    51
     total cpu time spent up to now is       18.1 secs

     Computing kpt #:    28  of    51
     total cpu time spent up to now is       18.3 secs

     Computing kpt #:    29  of    51
     total cpu time spent up to now is       18.6 secs

     Computing kpt #:    30  of    51
     total cpu time spent up to now is       18.9 secs

     Computing kpt #:    31  of    51
     total cpu time spent up to now is       19.2 secs

     Computing kpt #:    32  of    51
     total cpu time spent up to now is       19.5 secs

     Computing kpt #:    33  of    51
     total cpu time spent up to now is       19.8 secs

     Computing kpt #:    34  of    51
     total cpu time spent up to now is       20.1 secs

     Computing kpt #:    35  of    51
     total cpu time spent up to now is       20.4 secs

     Computing kpt #:    36  of    51
     total cpu time spent up to now is       20.7 secs

     Computing kpt #:    37  of    51
     total cpu time spent up to now is       21.0 secs

     Computing kpt #:    38  of    51
     total cpu time spent up to now is       21.2 secs

     Computing kpt #:    39  of    51
     total cpu time spent up to now is       21.6 secs

     Computing kpt #:    40  of    51
     total cpu time spent up to now is       21.9 secs

     Computing kpt #:    41  of    51
     total cpu time spent up to now is       22.3 secs

     Computing kpt #:    42  of    51
     total cpu time spent up to now is       22.7 secs

     Computing kpt #:    43  of    51
     total cpu time spent up to now is       23.1 secs

     Computing kpt #:    44  of    51
     total cpu time spent up to now is       23.5 secs

     Computing kpt #:    45  of    51
     total cpu time spent up to now is       24.0 secs

     Computing kpt #:    46  of    51
     total cpu time spent up to now is       24.5 secs

     Computing kpt #:    47  of    51
     total cpu time spent up to now is       24.8 secs

     Computing kpt #:    48  of    51
     total cpu time spent up to now is       25.2 secs

     Computing kpt #:    49  of    51
     total cpu time spent up to now is       25.6 secs

     Computing kpt #:    50  of    51
     total cpu time spent up to now is       25.9 secs

     Computing kpt #:    51  of    51
     total cpu time spent up to now is       26.3 secs

     ethr =  6.25E-09,  avg # of iterations = 44.8

     total cpu time spent up to now is       26.3 secs

     End of band structure calculation

          k = 0.0000 0.0000 0.0000 (  5727 PWs)   bands (ev):

   -20.1880 -19.9887  -8.2721  -7.1366  -3.9047  -3.9047  -3.7892  -3.7892
     2.0393   2.5667   3.6044   4.6772   4.8477   6.5823   7.2833   9.1432
     9.1498   9.1498   9.2664   9.2664

          k =-0.0159 0.0275 0.0000 (  5747 PWs)   bands (ev):

   -20.1735 -19.9743  -8.2521  -7.1181  -3.9678  -3.9342  -3.8525  -3.8187
     2.0649   2.5900   3.6287   4.7009   4.8709   6.5986   7.3063   9.1209
     9.1584   9.2147   9.2586   9.3314

          k =-0.0317 0.0550 0.0000 (  5755 PWs)   bands (ev):

   -20.1297 -19.9312  -8.1923  -7.0618  -4.1501  -4.0363  -4.0207  -3.9064
     2.1412   2.6598   3.7017   4.7717   4.9394   6.6465   7.3738   9.0844
     9.1599   9.2464   9.3978   9.5185

          k =-0.0476 0.0825 0.0000 (  5749 PWs)   bands (ev):

   -20.0569 -19.8596  -8.0927  -6.9680  -4.4371  -4.3226  -4.1642  -4.0491
     2.2663   2.7755   3.8230   4.8891   5.0504   6.7223   7.4822   9.0472
     9.1515   9.2427   9.6561   9.8038

          k =-0.0635 0.1100 0.0000 (  5751 PWs)   bands (ev):

   -19.9557 -19.7600  -7.9538  -6.8373  -4.8098  -4.6955  -4.3591  -4.2440
     2.4382   2.9360   3.9919   5.0522   5.1994   6.8188   7.6254   9.0219
     9.1427   9.2485   9.8450  10.0473

          k =-0.0794 0.1375 0.0000 (  5752 PWs)   bands (ev):

   -19.8265 -19.6329  -7.7762  -6.6713  -5.2460  -5.1319  -4.5998  -4.4848
     2.6555   3.1400   4.2082   5.2599   5.3799   6.9245   7.7921   9.0106
     9.1410   9.2616   9.6195  10.2153

          k =-0.0952 0.1650 0.0000 (  5768 PWs)   bands (ev):

   -19.6703 -19.4795  -7.5614  -6.4730  -5.7249  -5.6109  -4.8814  -4.7663
     2.9171   3.3860   4.4713   5.5101   5.5803   7.0225   7.9505   9.0031
     9.1087   9.2745   9.4012  10.4358

          k =-0.1111 0.1925 0.0000 (  5758 PWs)   bands (ev):

   -19.4882 -19.3003  -7.3114  -6.3030  -6.1933  -6.0903  -5.1956  -5.0806
     3.2226   3.6714   4.7806   5.7758   5.7994   7.0984   7.9937   8.9404
     9.0544   9.3224   9.4393  10.6626

          k =-0.1270 0.2199 0.0000 (  5758 PWs)   bands (ev):

   -19.2816 -19.0973  -7.0409  -6.7565  -6.6370  -5.9508  -5.5366  -5.4214
     3.5715   3.9911   5.1342   5.9146   6.1136   7.1673   7.7795   9.0129
     9.1311   9.4465   9.5709  10.8985

          k =-0.1429 0.2474 0.0000 (  5786 PWs)   bands (ev):

   -19.0528 -18.8725  -7.2911  -7.1849  -6.6773  -5.8985  -5.7847  -5.6552
     3.9625   4.3336   5.5186   5.9200   6.4048   7.2997   7.4602   9.2618
     9.3132   9.6226   9.7536  11.1465

          k =-0.1587 0.2749 0.0000 (  5774 PWs)   bands (ev):

   -18.8037 -18.6280  -7.7996  -7.6898  -6.3377  -6.2709  -6.1530  -5.3355
     4.3928   4.6681   5.6434   6.0461   6.4766   7.3766   7.5659   9.5508
     9.6282   9.8405   9.9822  11.4097

          k =-0.1746 0.3024 0.0000 (  5786 PWs)   bands (ev):

   -18.5380 -18.3674  -8.2929  -8.1825  -6.6520  -6.5384  -5.9531  -4.9912
     4.8189   4.9227   5.3480   6.3239   6.5205   7.6966   7.9267   9.8878
     9.9997  10.0950  10.2556  11.6909

          k =-0.1905 0.3299 0.0000 (  5790 PWs)   bands (ev):

   -18.2597 -18.0948  -8.7593  -8.6487  -7.0339  -6.9193  -5.5496  -4.6301
     4.7735   4.9076   5.4402   6.3988   7.0584   8.1737   8.3554  10.2708
    10.3257  10.4202  10.5867  11.9905

          k =-0.2063 0.3574 0.0000 (  5808 PWs)   bands (ev):

   -17.9743 -17.8156  -9.1906  -9.0800  -7.4123  -7.2971  -5.1270  -4.2593
     4.3911   4.5131   5.9836   6.7655   7.6454   8.7191   8.8249  10.5916
    10.6699  10.7830  10.9929  12.2806

          k =-0.2222 0.3849 0.0000 (  5812 PWs)   bands (ev):

   -17.6886 -17.5368  -9.5766  -9.4660  -7.7829  -7.6671  -4.6928  -3.8880
     3.9432   4.0780   6.5795   7.2714   8.2757   9.2936   9.3229  10.8338
    11.0324  11.1543  11.4487  12.4043

          k =-0.2381 0.4124 0.0000 (  5826 PWs)   bands (ev):

   -17.4116 -17.2671  -9.9083  -9.7975  -8.1420  -8.0257  -4.2569  -3.5282
     3.5032   3.6472   7.2127   7.8381   8.9407   9.7613   9.9240  11.0555
    11.3539  11.4682  11.9078  12.3289

          k =-0.2540 0.4399 0.0000 (  5816 PWs)   bands (ev):

   -17.1536 -17.0167 -10.1746 -10.0634  -8.4854  -8.3686  -3.8324  -3.1944
     3.0986   3.2513   7.8753   8.4225   9.6002  10.1488  10.5063  11.2885
    11.5436  11.6870  12.1962  12.5163

          k =-0.2698 0.4674 0.0000 (  5810 PWs)   bands (ev):

   -16.9266 -16.7970 -10.3652 -10.2533  -8.8097  -8.6925  -3.4363  -2.9053
     2.7491   2.9116   8.5519   8.9726  10.0097  10.6251  10.9410  11.3840
    11.7049  12.0743  12.3874  12.9518

          k =-0.2857 0.4949 0.0000 (  5794 PWs)   bands (ev):

   -16.7423 -16.6191 -10.4721 -10.3594  -9.1093  -8.9922  -3.0890  -2.6785
     2.4705   2.6444   9.1756   9.4389  10.0372  11.1743  11.2962  11.4379
    12.0680  12.5476  12.7414  13.3406

          k =-0.3016 0.5224 0.0000 (  5796 PWs)   bands (ev):

   -16.6101 -16.4914 -10.4951 -10.3826  -9.3750  -9.2594  -2.8142  -2.5286
     2.2755   2.4598   9.4804   9.8474  10.0795  11.2113  11.6096  12.1523
    12.3006  12.9995  13.3420  13.5281

          k =-0.3175 0.5499 0.0000 (  5792 PWs)   bands (ev):

   -16.5334 -16.4173 -10.4529 -10.3441  -9.5825  -9.4717  -2.6343  -2.4558
     2.1686   2.3580   9.5460   9.7867  10.5790  11.1340  11.9097  12.4821
    12.8876  13.3248  13.4129  14.0114

          k =-0.3333 0.5774 0.0000 (  5814 PWs)   bands (ev):

   -16.5097 -16.3943 -10.4129 -10.3095  -9.6717  -9.5666  -2.5724  -2.4389
     2.1384   2.3275   9.5519   9.7440  10.8204  11.0836  11.9722  12.7374
    12.9890  13.2662  13.9242  14.0099

          k =-0.3030 0.5774 0.0000 (  5792 PWs)   bands (ev):

   -16.5282 -16.4123 -10.4681 -10.3573  -9.5780  -9.4657  -2.6173  -2.4551
     2.1548   2.3505   9.5576   9.7849  10.7025  11.0327  11.9088  12.6348
    12.8436  13.2536  13.6183  13.7911

          k =-0.2727 0.5774 0.0000 (  5788 PWs)   bands (ev):

   -16.5771 -16.4602 -10.5980 -10.4783  -9.3305  -9.2103  -2.7222  -2.5116
     2.1818   2.4083   9.5797   9.8906  10.4873  10.8499  11.7058  12.4134
    12.6205  12.9529  13.2644  13.4490

          k =-0.2424 0.5774 0.0000 (  5788 PWs)   bands (ev):

   -16.6459 -16.5277 -10.7468 -10.6222  -8.9948  -8.8715  -2.8548  -2.6019
     2.1984   2.4814   9.5803   9.9992  10.2438  10.6362  11.4392  12.1045
    12.2952  12.6448  12.9257  13.0595

          k =-0.2121 0.5774 0.0000 (  5796 PWs)   bands (ev):

   -16.7250 -16.6057 -10.8910 -10.7637  -8.6141  -8.4900  -2.9972  -2.7117
     2.1985   2.5502   9.4564   9.8140  10.1930  10.5102  11.1794  11.8120
    11.8553  12.4652  12.6359  12.7101

          k =-0.1818 0.5774 0.0000 (  5788 PWs)   bands (ev):

   -16.8066 -16.6863 -11.0217 -10.8926  -8.2155  -8.0919  -3.1366  -2.8269
     2.1837   2.6030   9.1526   9.3999  10.2241  10.4523  10.9738  11.4182
    11.6651  12.2972  12.4154  12.4782

          k =-0.1515 0.5774 0.0000 (  5794 PWs)   bands (ev):

   -16.8845 -16.7633 -11.1350 -11.0042  -7.8229  -7.7006  -3.2650  -2.9376
     2.1586   2.6369   8.7383   8.9211  10.2016  10.3646  10.8114  11.0640
    11.6733  12.0992  12.1815  12.4495

          k =-0.1212 0.5774 0.0000 (  5800 PWs)   bands (ev):

   -16.9539 -16.8321 -11.2289 -11.0971  -7.4579  -7.3366  -3.3765  -3.0361
     2.1286   2.6546   8.2970   8.4410  10.1103  10.2900  10.6646  10.7965
    11.7112  11.9319  12.0391  12.4409

          k =-0.0909 0.5774 0.0000 (  5794 PWs)   bands (ev):

   -17.0109 -16.8887 -11.3024 -11.1698  -7.1421  -7.0217  -3.4669  -3.1175
     2.0992   2.6610   7.8913   8.0129  10.0040  10.2272  10.5393  10.6103
    11.6607  11.7908  12.0257  12.4172

          k =-0.0606 0.5774 0.0000 (  5794 PWs)   bands (ev):

   -17.0535 -16.9309 -11.3553 -11.2223  -6.8969  -6.7774  -3.5334  -3.1776
     2.0747   2.6613   7.5674   7.6773   9.9196  10.1700  10.4421  10.4947
    11.5833  11.6853  12.0458  12.3836

          k =-0.0303 0.5774 0.0000 (  5788 PWs)   bands (ev):

   -17.0796 -16.9568 -11.3872 -11.2538  -6.7409  -6.6218  -3.5737  -3.2145
     2.0586   2.6595   7.3592   7.4637   9.8673  10.1290  10.3806  10.4333
    11.5295  11.6211  12.0557  12.3563

          k = 0.0000 0.5774 0.0000 (  5812 PWs)   bands (ev):

   -17.0886 -16.9657 -11.3979 -11.2644  -6.6880  -6.5689  -3.5878  -3.2274
     2.0527   2.6583   7.2874   7.3904   9.8495  10.1142  10.3599  10.4138
    11.5108  11.5997  12.0575  12.3459

          k = 0.0000 0.5453 0.0000 (  5818 PWs)   bands (ev):

   -17.1341 -17.0088 -11.3291 -11.1956  -6.6720  -6.5529  -3.6863  -3.2657
     2.1419   2.7478   7.2160   7.4123   9.3642   9.5930  10.6251  10.8551
    11.0163  11.6511  11.9767  12.4325

          k = 0.0000 0.5132 0.0000 (  5824 PWs)   bands (ev):

   -17.2636 -17.1318 -11.1287 -10.9952  -6.6243  -6.5054  -3.9404  -3.3971
     2.3981   2.9990   7.0365   7.4226   8.7995   8.9389   9.9460  10.8931
    10.9641  11.6503  12.0302  12.7369

          k = 0.0000 0.4811 0.0000 (  5816 PWs)   bands (ev):

   -17.4590 -17.3189 -10.8145 -10.6814  -6.5457  -6.4269  -4.2871  -3.6224
     2.7913   3.3721   6.7387   7.3658   8.3086   8.4134   9.2405  10.2242
    10.5285  11.8845  12.2741  12.8490

          k = 0.0000 0.4491 0.0000 (  5808 PWs)   bands (ev):

   -17.6989 -17.5504 -10.4081 -10.2761  -6.4369  -6.3182  -4.6829  -3.9182
     3.2809   3.8219   6.3277   7.1371   7.9509   8.0467   8.6315   9.5680
    10.0479  11.4634  12.1106  13.1339

          k = 0.0000 0.4170 0.0000 (  5822 PWs)   bands (ev):

   -17.9644 -17.8081  -9.9312  -9.8009  -6.2998  -6.1812  -5.0984  -4.2550
     3.8214   4.3010   5.8518   6.7381   7.5764   7.8651   8.2021   8.9744
     9.6022  11.0175  11.5814  13.4530

          k = 0.0000 0.3849 0.0000 (  5814 PWs)   bands (ev):

   -18.2403 -18.0770  -9.4006  -9.2727  -6.1356  -6.0171  -5.5145  -4.6092
     4.3528   4.7466   5.3631   6.3623   7.0672   7.7744   7.9244   8.4928
     9.2333  10.5987  11.0509  13.2960

          k = 0.0000 0.3528 0.0000 (  5800 PWs)   bands (ev):

   -18.5152 -18.3457  -8.8322  -8.7067  -5.9472  -5.9185  -5.8288  -4.9642
     4.6942   4.8672   5.1409   6.2190   6.5521   7.5672   7.6765   8.2420
     8.9641  10.2271  10.5566  12.9602

          k = 0.0000 0.3208 0.0000 (  5792 PWs)   bands (ev):

   -18.7813 -18.6063  -8.2395  -8.1169  -6.3010  -5.7375  -5.6193  -5.3085
     4.3906   4.6475   5.4812   6.0707   6.3812   7.2926   7.4471   8.2011
     8.7917   9.9169  10.1136  12.6273

          k = 0.0000 0.2887 0.0000 (  5802 PWs)   bands (ev):

   -19.0325 -18.8527  -7.6352  -7.5170  -6.6542  -5.6330  -5.5115  -5.3934
     3.9709   4.3452   5.5204   5.8494   6.3907   7.2048   7.3912   8.2298
     8.6996   9.6745   9.7422  12.3288

          k = 0.0000 0.2566 0.0000 (  5764 PWs)   bands (ev):

   -19.2645 -19.0806  -7.0767  -6.9893  -6.8570  -5.9306  -5.2725  -5.1548
     3.5842   4.0094   5.1556   5.8725   6.1265   7.1366   7.7082   8.2889
     8.6794   9.4474   9.5253  12.0550

          k = 0.0000 0.2245 0.0000 (  5762 PWs)   bands (ev):

   -19.4744 -19.2869  -7.2934  -6.4414  -6.3248  -6.1701  -5.0281  -4.9107
     3.2364   3.6890   4.8004   5.7609   5.8156   7.0915   7.9382   8.4460
     8.7251   9.3164   9.4210  11.6692

          k = 0.0000 0.1925 0.0000 (  5740 PWs)   bands (ev):

   -19.6598 -19.4690  -7.5470  -6.4609  -5.8490  -5.7313  -4.7846  -4.6677
     2.9299   3.4007   4.4872   5.5241   5.5799   7.0242   7.9130   8.6849
     8.8179   9.3477   9.4050  11.2776

          k = 0.0000 0.1604 0.0000 (  5732 PWs)   bands (ev):

   -19.8190 -19.6256  -7.7661  -6.6619  -5.3224  -5.2057  -4.5523  -4.4357
     2.6658   3.1509   4.2199   5.2708   5.3844   6.9282   7.7797   8.8344
     8.9336   9.3142   9.6544  10.7068

          k = 0.0000 0.1283 0.0000 (  5750 PWs)   bands (ev):

   -19.9509 -19.7553  -7.9472  -6.8312  -4.8519  -4.7360  -4.3410  -4.2246
     2.4456   2.9433   3.9997   5.0596   5.2046   6.8224   7.6250   8.9311
     9.0353   9.2823   9.9534  10.1710

          k = 0.0000 0.0962 0.0000 (  5752 PWs)   bands (ev):

   -20.0543 -19.8570  -8.0889  -6.9644  -4.4568  -4.3413  -4.1608  -4.0449
     2.2708   2.7797   3.8274   4.8934   5.0541   6.7249   7.4846   9.0107
     9.1111   9.2567   9.7360   9.8528

          k = 0.0000 0.0642 0.0000 (  5753 PWs)   bands (ev):

   -20.1285 -19.9300  -8.1907  -7.0602  -4.1569  -4.0416  -4.0222  -3.9066
     2.1433   2.6618   3.7038   4.7736   4.9412   6.6478   7.3755   9.0749
     9.1531   9.2475   9.4141   9.5308

          k = 0.0000 0.0321 0.0000 (  5747 PWs)   bands (ev):

   -20.1732 -19.9740  -8.2518  -7.1177  -3.9692  -3.9346  -3.8538  -3.8191
     2.0655   2.5905   3.6292   4.7014   4.8714   6.5990   7.3068   9.1200
     9.1585   9.2163   9.2583   9.3329

          k = 0.0000 0.0000 0.0000 (  5727 PWs)   bands (ev):

   -20.1880 -19.9887  -8.2721  -7.1366  -3.9047  -3.9047  -3.7892  -3.7892
     2.0393   2.5667   3.6044   4.6772   4.8477   6.5823   7.2833   9.1432
     9.1498   9.1498   9.2664   9.2664

     Writing all to output data dir ./tmp/BN2L_AB1_PBE_vdW.save/

     init_run     :      9.43s CPU      9.48s WALL (       1 calls)
     electrons    :     17.73s CPU     16.69s WALL (       1 calls)

     Called by init_run:
     wfcinit      :      0.00s CPU      0.00s WALL (       1 calls)
     wfcinit:atom :      0.01s CPU      0.01s WALL (      51 calls)
     wfcinit:wfcr :      0.49s CPU      0.49s WALL (      51 calls)
     potinit      :      9.04s CPU      9.08s WALL (       1 calls)
     hinit0       :      0.36s CPU      0.36s WALL (       1 calls)

     Called by electrons:
     c_bands      :     17.73s CPU     16.69s WALL (       1 calls)
     v_of_rho     :      9.04s CPU      9.08s WALL (       1 calls)
     v_h          :      0.00s CPU      0.00s WALL (       1 calls)
     v_xc         :      9.04s CPU      9.08s WALL (       1 calls)
     vdW_kernel   :      8.99s CPU      9.03s WALL (       1 calls)

     Called by c_bands:
     init_us_2    :      0.01s CPU      0.01s WALL (      51 calls)
     init_us_2:cp :      0.01s CPU      0.01s WALL (      51 calls)
     cegterg      :     17.18s CPU     16.14s WALL (     135 calls)

     Called by sum_band:

     Called by *egterg:
     cdiaghg      :      1.38s CPU      1.41s WALL (    2335 calls)
     cegterg:over :      1.79s CPU      1.35s WALL (    2284 calls)
     cegterg:upda :      1.17s CPU      0.90s WALL (    2284 calls)
     cegterg:last :      1.99s CPU      1.34s WALL (    1262 calls)
     h_psi        :     10.78s CPU     10.98s WALL (    2470 calls)
     g_psi        :      0.10s CPU      0.14s WALL (    2284 calls)

     Called by h_psi:
     h_psi:calbec :      0.75s CPU      0.78s WALL (    2470 calls)
     vloc_psi     :      9.03s CPU      9.39s WALL (    2470 calls)
     add_vuspsi   :      0.91s CPU      0.71s WALL (    2470 calls)

     General routines
     calbec       :      0.75s CPU      0.77s WALL (    2470 calls)
     fft          :      0.29s CPU      0.29s WALL (      61 calls)
     fftw         :      8.16s CPU      8.45s WALL (   49498 calls)
     davcio       :      0.00s CPU      0.01s WALL (     102 calls)

     Parallel routines

     PWSCF        :     27.38s CPU     26.46s WALL


   This run was terminated on:  12:33:53  15Apr2024            

=------------------------------------------------------------------------------=
   JOB DONE.
=------------------------------------------------------------------------------=
