
     Program PWSCF v.7.2 starts on 17Apr2024 at 15:24:45 

     This program is part of the open-source Quantum ESPRESSO suite
     for quantum simulation of materials; please cite
         "P. Giannozzi et al., J. Phys.:Condens. Matter 21 395502 (2009);
         "P. Giannozzi et al., J. Phys.:Condens. Matter 29 465901 (2017);
         "P. Giannozzi et al., J. Chem. Phys. 152 154105 (2020);
          URL http://www.quantum-espresso.org", 
     in publications or presentations arising from this work. More details at
     http://www.quantum-espresso.org/quote

     Parallel version (MPI & OpenMP), running on       8 processor cores
     Number of MPI processes:                 8
     Threads/MPI process:                     1

     MPI processes distributed on     1 nodes
     0 MiB available memory on the printing compute node when the environment starts

     Waiting for input...
     Reading input from standard input
Warning: card &CELL ignored
Warning: card CELL_DOFREE = 'Z' ignored
Warning: card / ignored

     Current dimensions of program PWSCF are:
     Max number of different atomic species (ntypx) = 10
     Max number of k-points (npk) =  40000
     Max angular momentum in pseudopotentials (lmaxx) =  4

     IMPORTANT: XC functional enforced from input :
     Exchange-correlation= VDW-DF2-B86R
                           (   1   4  26   0   2   0   0)
     Any further DFT definition will be discarded
     Please, verify this is what you really want


     R & G space division:  proc/nbgrp/npool/nimage =       8
     Subspace diagonalization in iterative solution of the eigenvalue problem:
     a serial algorithm will be used


     Parallelization info
     --------------------
     sticks:   dense  smooth     PW     G-vecs:    dense   smooth      PW
     Min          45      45     14                 5791     5791    1010
     Max          46      46     16                 5824     5824    1027
     Sum         367     367    121                46525    46525    8181

     Using Slab Decomposition



     bravais-lattice index     =            4
     lattice parameter (alat)  =       4.7486  a.u.
     unit-cell volume          =     741.8522 (a.u.)^3
     number of atoms/cell      =            4
     number of atomic types    =            2
     number of electrons       =        16.00
     number of Kohn-Sham states=           12
     kinetic-energy cutoff     =      60.0000  Ry
     charge density cutoff     =     240.0000  Ry
     scf convergence threshold =      1.0E-06
     mixing beta               =       0.7000
     number of iterations used =            8  plain     mixing
     Exchange-correlation= VDW-DF2-B86R
                           (   1   4  26   0   2   0   0)

     celldm(1)=   4.748600  celldm(2)=   0.000000  celldm(3)=   8.000000
     celldm(4)=   0.000000  celldm(5)=   0.000000  celldm(6)=   0.000000

     crystal axes: (cart. coord. in units of alat)
               a(1) = (   1.000000   0.000000   0.000000 )  
               a(2) = (  -0.500000   0.866025   0.000000 )  
               a(3) = (   0.000000   0.000000   8.000000 )  

     reciprocal axes: (cart. coord. in units 2 pi/alat)
               b(1) = (  1.000000  0.577350 -0.000000 )  
               b(2) = (  0.000000  1.154701  0.000000 )  
               b(3) = (  0.000000 -0.000000  0.125000 )  


     PseudoPot. # 1 for B  read from file:
     ../../../../Pseudo/PBE/B.upf
     MD5 check sum: 72f82fc31bc892420d0cab7e25c88ab8
     Pseudo is Norm-conserving + core correction, Zval =  3.0
     Generated using ONCVPSP code by D. R. Hamann
     Using radial grid of 1534 points,  4 beta functions with: 
                l(1) =   0
                l(2) =   0
                l(3) =   1
                l(4) =   1

     PseudoPot. # 2 for N  read from file:
     ../../../../Pseudo/PBE/N.upf
     MD5 check sum: d34365f73bb0e2ee98afc20ec3e87676
     Pseudo is Norm-conserving + core correction, Zval =  5.0
     Generated using ONCVPSP code by D. R. Hamann
     Using radial grid of 1058 points,  4 beta functions with: 
                l(1) =   0
                l(2) =   0
                l(3) =   1
                l(4) =   1

     atomic species   valence    mass     pseudopotential
        B              3.00    10.00000     B ( 1.00)
        N              5.00    14.01100     N ( 1.00)

      6 Sym. Ops. (no inversion) found


                                    s                        frac. trans.

      isym =  1     identity                                     

 cryst.   s( 1) = (     1          0          0      )
                  (     0          1          0      )
                  (     0          0          1      )

 cart.    s( 1) = (  1.0000000  0.0000000  0.0000000 )
                  (  0.0000000  1.0000000  0.0000000 )
                  (  0.0000000  0.0000000  1.0000000 )


      isym =  2     120 deg rotation - cryst. axis [0,0,1]       

 cryst.   s( 2) = (     0          1          0      )
                  (    -1         -1          0      )
                  (     0          0          1      )

 cart.    s( 2) = ( -0.5000000 -0.8660254  0.0000000 )
                  (  0.8660254 -0.5000000  0.0000000 )
                  (  0.0000000  0.0000000  1.0000000 )


      isym =  3     120 deg rotation - cryst. axis [0,0,-1]      

 cryst.   s( 3) = (    -1         -1          0      )
                  (     1          0          0      )
                  (     0          0          1      )

 cart.    s( 3) = ( -0.5000000  0.8660254  0.0000000 )
                  ( -0.8660254 -0.5000000  0.0000000 )
                  (  0.0000000  0.0000000  1.0000000 )


      isym =  4     inv. 180 deg rotation - cart. axis [1,0,0]   

 cryst.   s( 4) = (    -1          0          0      )
                  (     1          1          0      )
                  (     0          0          1      )

 cart.    s( 4) = ( -1.0000000  0.0000000  0.0000000 )
                  (  0.0000000  1.0000000  0.0000000 )
                  (  0.0000000  0.0000000  1.0000000 )


      isym =  5     inv. 180 deg rotation - cryst. axis [0,1,0]  

 cryst.   s( 5) = (     1          1          0      )
                  (     0         -1          0      )
                  (     0          0          1      )

 cart.    s( 5) = (  0.5000000  0.8660254  0.0000000 )
                  (  0.8660254 -0.5000000  0.0000000 )
                  (  0.0000000  0.0000000  1.0000000 )


      isym =  6     inv. 180 deg rotation - cryst. axis [1,1,0]  

 cryst.   s( 6) = (     0         -1          0      )
                  (    -1          0          0      )
                  (     0          0          1      )

 cart.    s( 6) = (  0.5000000 -0.8660254  0.0000000 )
                  ( -0.8660254 -0.5000000  0.0000000 )
                  (  0.0000000  0.0000000  1.0000000 )


     point group C_3v (3m)  
     there are  3 classes
     the character table:

       E     2C3   3s_v 
A_1    1.00  1.00  1.00
A_2    1.00  1.00 -1.00
E      2.00 -1.00  0.00

     the symmetry operations in each class and the name of the first element:

     E        1
          identity                                               
     2C3      2    3
          120 deg rotation - cryst. axis [0,0,1]                 
     3s_v     4    5    6
          inv. 180 deg rotation - cart. axis [1,0,0]             

   Cartesian axes

     site n.     atom                  positions (alat units)
         1           B   tau(   1) = (   0.0000000   0.0000000   0.0000000  )
         2           N   tau(   2) = (  -0.0000003   0.5773502   0.0000000  )
         3           N   tau(   3) = (   0.0000000   0.0000000   1.3079920  )
         4           B   tau(   4) = (   0.5000005   0.2886748   1.3079920  )

   Crystallographic axes

     site n.     atom                  positions (cryst. coord.)
         1           B   tau(   1) = (  0.0000000  0.0000000  0.0000000  )
         2           N   tau(   2) = (  0.3333330  0.6666666  0.0000000  )
         3           N   tau(   3) = (  0.0000000  0.0000000  0.1634990  )
         4           B   tau(   4) = (  0.6666670  0.3333330  0.1634990  )

     number of k points=    19  Marzari-Vanderbilt smearing, width (Ry)=  0.0050
                       cart. coord. in units 2pi/alat
        k(    1) = (   0.0000000   0.0000000   0.0000000), wk =   0.0138889
        k(    2) = (   0.0000000   0.0962250   0.0000000), wk =   0.0833333
        k(    3) = (   0.0000000   0.1924501   0.0000000), wk =   0.0833333
        k(    4) = (   0.0000000   0.2886751   0.0000000), wk =   0.0833333
        k(    5) = (   0.0000000   0.3849002   0.0000000), wk =   0.0833333
        k(    6) = (   0.0000000   0.4811252   0.0000000), wk =   0.0833333
        k(    7) = (   0.0000000  -0.5773503   0.0000000), wk =   0.0416667
        k(    8) = (   0.0833333   0.1443376   0.0000000), wk =   0.0833333
        k(    9) = (   0.0833333   0.2405626   0.0000000), wk =   0.1666667
        k(   10) = (   0.0833333   0.3367877   0.0000000), wk =   0.1666667
        k(   11) = (   0.0833333   0.4330127   0.0000000), wk =   0.1666667
        k(   12) = (   0.0833333   0.5292377   0.0000000), wk =   0.1666667
        k(   13) = (   0.1666667   0.2886751   0.0000000), wk =   0.0833333
        k(   14) = (   0.1666667   0.3849002   0.0000000), wk =   0.1666667
        k(   15) = (   0.1666667   0.4811252   0.0000000), wk =   0.1666667
        k(   16) = (   0.1666667   0.5773503   0.0000000), wk =   0.0833333
        k(   17) = (   0.2500000   0.4330127   0.0000000), wk =   0.0833333
        k(   18) = (   0.2500000   0.5292377   0.0000000), wk =   0.1666667
        k(   19) = (   0.3333333   0.5773503   0.0000000), wk =   0.0277778

                       cryst. coord.
        k(    1) = (   0.0000000   0.0000000   0.0000000), wk =   0.0138889
        k(    2) = (   0.0000000   0.0833333   0.0000000), wk =   0.0833333
        k(    3) = (   0.0000000   0.1666667   0.0000000), wk =   0.0833333
        k(    4) = (   0.0000000   0.2500000   0.0000000), wk =   0.0833333
        k(    5) = (   0.0000000   0.3333333   0.0000000), wk =   0.0833333
        k(    6) = (   0.0000000   0.4166667   0.0000000), wk =   0.0833333
        k(    7) = (   0.0000000  -0.5000000   0.0000000), wk =   0.0416667
        k(    8) = (   0.0833333   0.0833333   0.0000000), wk =   0.0833333
        k(    9) = (   0.0833333   0.1666667   0.0000000), wk =   0.1666667
        k(   10) = (   0.0833333   0.2500000   0.0000000), wk =   0.1666667
        k(   11) = (   0.0833333   0.3333333   0.0000000), wk =   0.1666667
        k(   12) = (   0.0833333   0.4166667   0.0000000), wk =   0.1666667
        k(   13) = (   0.1666667   0.1666667   0.0000000), wk =   0.0833333
        k(   14) = (   0.1666667   0.2500000   0.0000000), wk =   0.1666667
        k(   15) = (   0.1666667   0.3333333   0.0000000), wk =   0.1666667
        k(   16) = (   0.1666667   0.4166667   0.0000000), wk =   0.0833333
        k(   17) = (   0.2500000   0.2500000   0.0000000), wk =   0.0833333
        k(   18) = (   0.2500000   0.3333333   0.0000000), wk =   0.1666667
        k(   19) = (   0.3333333   0.3333333   0.0000000), wk =   0.0277778

     Dense  grid:    46525 G-vectors     FFT dimensions: (  24,  24, 192)

     Dynamical RAM for                 wfc:       0.13 MB

     Dynamical RAM for     wfc (w. buffer):       2.66 MB

     Dynamical RAM for           str. fact:       0.18 MB

     Dynamical RAM for           local pot:       0.00 MB

     Dynamical RAM for          nlocal pot:       0.35 MB

     Dynamical RAM for                qrad:       0.71 MB

     Dynamical RAM for          rho,v,vnew:       0.58 MB

     Dynamical RAM for               rhoin:       0.19 MB

     Dynamical RAM for            rho*nmix:       1.42 MB

     Dynamical RAM for           G-vectors:       0.38 MB

     Dynamical RAM for          h,s,v(r/c):       0.03 MB

     Dynamical RAM for          <psi|beta>:       0.01 MB

     Dynamical RAM for                 psi:       0.27 MB

     Dynamical RAM for                hpsi:       0.27 MB

     Dynamical RAM for      wfcinit/wfcrot:       0.36 MB

     Estimated static dynamical RAM per process >       5.85 MB

     Estimated max dynamical RAM per process >       7.84 MB

     Estimated total dynamical RAM >      62.69 MB

     Initial potential from superposition of free atoms

     starting charge      15.9995, renormalised to      16.0000

     negative rho (up, down):  1.046E-04 0.000E+00


     %%%%%%%%%%%%%%%%%%%%%%%%%%%%%%%%%%%%%%%%%%%%%%%%%%%%%%%%%%%%%%%%%%%%%%%%
     %                                                                      %
     % You are using vdW-DF, which was implemented by the Thonhauser group. %
     % Please cite the following two papers that made this development      %
     % possible and the two reviews that describe the various versions:     %
     %                                                                      %
     %   T. Thonhauser et al., PRL 115, 136402 (2015).                      %
     %   T. Thonhauser et al., PRB 76, 125112 (2007).                       %
     %   K. Berland et al., Rep. Prog. Phys. 78, 066501 (2015).             %
     %   D.C. Langreth et al., J. Phys.: Condens. Matter 21, 084203 (2009). %
     %                                                                      %
     % If you are calculating stress with vdW-DF, please also cite:         %
     %                                                                      %
     %   R. Sabatini et al., J. Phys.: Condens. Matter 24, 424209 (2012).   %
     %                                                                      %
     %%%%%%%%%%%%%%%%%%%%%%%%%%%%%%%%%%%%%%%%%%%%%%%%%%%%%%%%%%%%%%%%%%%%%%%%

     %%%%%%%%%%%%%%%%%%%%%%%%%%%%%%%%%%%%%%%%%%%%%%%%%%%%%%%%%%%%%%%%%%%%%%%%
     %                                                                      %
     %  vdW-DF NEWS:                                                        %
     %                                                                      %
     %  * vdW-DF3 is now available. DOI: 10.1021/acs.jctc.0c00471           %
     %    use with input_dft = 'vdW-DF3-opt1' or 'vdW-DF3-opt2'             %
     %                                                                      %
     %  * Unscreened and range-separated hybrid vdW-DF-cx functionals       %
     %    DOI: 10.1063/1.4986522 and 10.1088/1361-648X/ac2ad2               %
     %    use with input_dft = 'vdW-DF-cx0'    and 'vdW-DF-ahcx'            %
     %  * Unscreened and range-separated hybrid vdW-DF2-b86r functionals    %
     %    DOI: 10.1063/1.4986522 and DOI: 10.1103/PhysRevX.12.041003        %
     %    use with input_dft = 'vdW-DF2-br0' and 'vdW-DF2-ahbr'             %
     %                                                                      %
     %%%%%%%%%%%%%%%%%%%%%%%%%%%%%%%%%%%%%%%%%%%%%%%%%%%%%%%%%%%%%%%%%%%%%%%%


     Carrying out vdW-DF run using the following parameters:
     Nqs    =  20  Npoints =  1024  r_max =  100.000
     q_mesh =  0.00001000  0.04494208  0.09755937  0.15916263
               0.23128650  0.31572767  0.41458969  0.53033537
               0.66584808  0.82450364  1.01025438  1.22772762
               1.48234092  1.78043706  2.12944203  2.53805004
               3.01644009  3.57652955  4.23227104  5.00000000


     -----------------------------------------------
     Non-local corr. energy    =       0.17465970 Ry
     -----------------------------------------------

     Starting wfcs are   16 randomized atomic wfcs

     total cpu time spent up to now is       10.7 secs

     Self-consistent Calculation

     iteration #  1     ecut=    60.00 Ry     beta= 0.70
     Davidson diagonalization with overlap

---- Real-time Memory Report at c_bands before calling an iterative solver
             0 MiB given to the printing process from OS
             0 MiB allocation reported by mallinfo(arena+hblkhd)
             0 MiB available memory on the node where the printing process lives
------------------
     ethr =  1.00E-02,  avg # of iterations =  4.2

     negative rho (up, down):  6.264E-06 0.000E+00


     -----------------------------------------------
     Non-local corr. energy    =       0.20474832 Ry
     -----------------------------------------------


     total cpu time spent up to now is       11.4 secs

     total energy              =     -53.44117727 Ry
     estimated scf accuracy    <       0.74965466 Ry

     iteration #  2     ecut=    60.00 Ry     beta= 0.70
     Davidson diagonalization with overlap

---- Real-time Memory Report at c_bands before calling an iterative solver
             0 MiB given to the printing process from OS
             0 MiB allocation reported by mallinfo(arena+hblkhd)
             0 MiB available memory on the node where the printing process lives
------------------
     ethr =  4.69E-03,  avg # of iterations =  3.5

     negative rho (up, down):  1.634E-06 0.000E+00


     -----------------------------------------------
     Non-local corr. energy    =       0.19867454 Ry
     -----------------------------------------------


     total cpu time spent up to now is       12.1 secs

     total energy              =     -53.63618717 Ry
     estimated scf accuracy    <       0.32426360 Ry

     iteration #  3     ecut=    60.00 Ry     beta= 0.70
     Davidson diagonalization with overlap

---- Real-time Memory Report at c_bands before calling an iterative solver
             0 MiB given to the printing process from OS
             0 MiB allocation reported by mallinfo(arena+hblkhd)
             0 MiB available memory on the node where the printing process lives
------------------
     ethr =  2.03E-03,  avg # of iterations =  2.0


     -----------------------------------------------
     Non-local corr. energy    =       0.20061803 Ry
     -----------------------------------------------


     total cpu time spent up to now is       12.6 secs

     total energy              =     -53.68847927 Ry
     estimated scf accuracy    <       0.00558839 Ry

     iteration #  4     ecut=    60.00 Ry     beta= 0.70
     Davidson diagonalization with overlap

---- Real-time Memory Report at c_bands before calling an iterative solver
             0 MiB given to the printing process from OS
             0 MiB allocation reported by mallinfo(arena+hblkhd)
             0 MiB available memory on the node where the printing process lives
------------------
     ethr =  3.49E-05,  avg # of iterations =  9.6


     -----------------------------------------------
     Non-local corr. energy    =       0.20079398 Ry
     -----------------------------------------------


     total cpu time spent up to now is       13.7 secs

     total energy              =     -53.69316035 Ry
     estimated scf accuracy    <       0.00568014 Ry

     iteration #  5     ecut=    60.00 Ry     beta= 0.70
     Davidson diagonalization with overlap

---- Real-time Memory Report at c_bands before calling an iterative solver
             0 MiB given to the printing process from OS
             0 MiB allocation reported by mallinfo(arena+hblkhd)
             0 MiB available memory on the node where the printing process lives
------------------
     ethr =  3.49E-05,  avg # of iterations =  2.3


     -----------------------------------------------
     Non-local corr. energy    =       0.20077127 Ry
     -----------------------------------------------


     total cpu time spent up to now is       14.3 secs

     total energy              =     -53.69327741 Ry
     estimated scf accuracy    <       0.00111564 Ry

     iteration #  6     ecut=    60.00 Ry     beta= 0.70
     Davidson diagonalization with overlap

---- Real-time Memory Report at c_bands before calling an iterative solver
             0 MiB given to the printing process from OS
             0 MiB allocation reported by mallinfo(arena+hblkhd)
             0 MiB available memory on the node where the printing process lives
------------------
     ethr =  6.97E-06,  avg # of iterations =  3.2


     -----------------------------------------------
     Non-local corr. energy    =       0.20079054 Ry
     -----------------------------------------------


     total cpu time spent up to now is       14.9 secs

     total energy              =     -53.69358951 Ry
     estimated scf accuracy    <       0.00001774 Ry

     iteration #  7     ecut=    60.00 Ry     beta= 0.70
     Davidson diagonalization with overlap

---- Real-time Memory Report at c_bands before calling an iterative solver
             0 MiB given to the printing process from OS
             0 MiB allocation reported by mallinfo(arena+hblkhd)
             0 MiB available memory on the node where the printing process lives
------------------
     ethr =  1.11E-07,  avg # of iterations =  5.2


     -----------------------------------------------
     Non-local corr. energy    =       0.20080029 Ry
     -----------------------------------------------


     total cpu time spent up to now is       15.6 secs

     total energy              =     -53.69359376 Ry
     estimated scf accuracy    <       0.00002050 Ry

     iteration #  8     ecut=    60.00 Ry     beta= 0.70
     Davidson diagonalization with overlap

---- Real-time Memory Report at c_bands before calling an iterative solver
             0 MiB given to the printing process from OS
             0 MiB allocation reported by mallinfo(arena+hblkhd)
             0 MiB available memory on the node where the printing process lives
------------------
     ethr =  1.11E-07,  avg # of iterations =  1.9


     -----------------------------------------------
     Non-local corr. energy    =       0.20080810 Ry
     -----------------------------------------------


     total cpu time spent up to now is       16.1 secs

     total energy              =     -53.69359161 Ry
     estimated scf accuracy    <       0.00000596 Ry

     iteration #  9     ecut=    60.00 Ry     beta= 0.70
     Davidson diagonalization with overlap

---- Real-time Memory Report at c_bands before calling an iterative solver
             0 MiB given to the printing process from OS
             0 MiB allocation reported by mallinfo(arena+hblkhd)
             0 MiB available memory on the node where the printing process lives
------------------
     ethr =  3.72E-08,  avg # of iterations =  2.1


     -----------------------------------------------
     Non-local corr. energy    =       0.20080852 Ry
     -----------------------------------------------


     total cpu time spent up to now is       16.6 secs

     End of self-consistent calculation

          k = 0.0000 0.0000 0.0000 (  5775 PWs)   bands (ev):

   -20.1767 -19.9798  -8.2628  -7.1358  -3.9317  -3.9316  -3.8174  -3.8174
     2.0200   2.5487   3.5844   4.6552

     occupation numbers 
     1.0000   1.0000   1.0000   1.0000   1.0000   1.0000   1.0000   1.0000
     0.0000   0.0000   0.0000   0.0000

          k = 0.0000 0.0962 0.0000 (  5782 PWs)   bands (ev):

   -20.0434 -19.8486  -8.0801  -6.9639  -4.4825  -4.3683  -4.1867  -4.0721
     2.2511   2.7611   3.8068   4.8689

     occupation numbers 
     1.0000   1.0000   1.0000   1.0000   1.0000   1.0000   1.0000   1.0000
     0.0000   0.0000   0.0000   0.0000

          k = 0.0000 0.1925 0.0000 (  5778 PWs)   bands (ev):

   -19.6506 -19.4623  -7.5407  -6.4628  -5.8710  -5.7547  -4.8071  -4.6914
     2.9084   3.3795   4.4643   5.4969

     occupation numbers 
     1.0000   1.0000   1.0000   1.0000   1.0000   1.0000   1.0000   1.0000
     0.0000   0.0000   0.0000   0.0000

          k = 0.0000 0.2887 0.0000 (  5810 PWs)   bands (ev):

   -19.0261 -18.8486  -7.6512  -7.5343  -6.6520  -5.6383  -5.5295  -5.4128
     3.9452   4.3185   5.4868   5.8050

     occupation numbers 
     1.0000   1.0000   1.0000   1.0000   1.0000   1.0000   1.0000   1.0000
     0.0000   0.0000   0.0000   0.0000

          k = 0.0000 0.3849 0.0000 (  5838 PWs)   bands (ev):

   -18.2380 -18.0767  -9.4101  -9.2837  -6.1508  -6.0336  -5.5180  -4.6197
     4.3093   4.6996   5.3276   6.3251

     occupation numbers 
     1.0000   1.0000   1.0000   1.0000   1.0000   1.0000   1.0000   1.0000
     0.0000   0.0000   0.0000   0.0000

          k = 0.0000 0.4811 0.0000 (  5846 PWs)   bands (ev):

   -17.4616 -17.3232 -10.8172 -10.6858  -6.5588  -6.4414  -4.2976  -3.6387
     2.7558   3.3315   6.6820   7.2966

     occupation numbers 
     1.0000   1.0000   1.0000   1.0000   1.0000   1.0000   1.0000   1.0000
     0.0000   0.0000   0.0000   0.0000

          k = 0.0000-0.5774 0.0000 (  5820 PWs)   bands (ev):

   -17.0940 -16.9725 -11.3969 -11.2652  -6.7003  -6.5827  -3.6024  -3.2451
     2.0220   2.6227   7.2122   7.3132

     occupation numbers 
     1.0000   1.0000   1.0000   1.0000   1.0000   1.0000   1.0000   1.0000
     0.0000   0.0000   0.0000   0.0000

          k = 0.0833 0.1443 0.0000 (  5780 PWs)   bands (ev):

   -19.7802 -19.5897  -7.7187  -6.6252  -5.3863  -5.2735  -4.6895  -4.5757
     2.6960   3.1774   4.2476   5.3889

     occupation numbers 
     1.0000   1.0000   1.0000   1.0000   1.0000   1.0000   1.0000   1.0000
     0.0000   0.0000   0.0000   0.0000

          k = 0.0833 0.2406 0.0000 (  5791 PWs)   bands (ev):

   -19.2702 -19.0883  -7.0412  -6.8527  -6.7293  -5.9507  -5.4710  -5.3559
     3.5502   3.9710   5.1129   5.8563

     occupation numbers 
     1.0000   1.0000   1.0000   1.0000   1.0000   1.0000   1.0000   1.0000
     0.0000   0.0000   0.0000   0.0000

          k = 0.0833 0.3368 0.0000 (  5833 PWs)   bands (ev):

   -18.5577 -18.3890  -8.5653  -8.4455  -6.2132  -6.1000  -5.9839  -5.0317
     4.7105   4.8176   5.2221   6.2316

     occupation numbers 
     1.0000   1.0000   1.0000   1.0000   1.0000   1.0000   1.0000   1.0000
     0.0000   0.0000   0.0000   0.0000

          k = 0.0833 0.4330 0.0000 (  5846 PWs)   bands (ev):

   -17.7519 -17.6027 -10.1377 -10.0101  -6.7613  -6.6434  -4.7809  -3.9933
     3.5079   3.9696   6.2967   7.1099

     occupation numbers 
     1.0000   1.0000   1.0000   1.0000   1.0000   1.0000   1.0000   1.0000
     0.0000   0.0000   0.0000   0.0000

          k = 0.0833 0.5292 0.0000 (  5838 PWs)   bands (ev):

   -17.1269 -17.0009 -11.1684 -11.0375  -7.0488  -6.9302  -3.7080  -3.2429
     2.2526   2.8135   7.5282   7.8699

     occupation numbers 
     1.0000   1.0000   1.0000   1.0000   1.0000   1.0000   1.0000   1.0000
     0.0000   0.0000   0.0000   0.0000

          k = 0.1667 0.2887 0.0000 (  5806 PWs)   bands (ev):

   -18.6681 -18.4971  -8.0638  -7.9550  -6.4764  -6.3660  -6.1442  -5.1735
     4.5901   4.7760   5.4565   6.2391

     occupation numbers 
     1.0000   1.0000   1.0000   1.0000   1.0000   1.0000   1.0000   1.0000
     0.0000   0.0000   0.0000   0.0000

          k = 0.1667 0.3849 0.0000 (  5839 PWs)   bands (ev):

   -17.9165 -17.7613  -9.4026  -9.2875  -7.3366  -7.2206  -5.0449  -4.1985
     4.1651   4.3786   6.0560   6.8270

     occupation numbers 
     1.0000   1.0000   1.0000   1.0000   1.0000   1.0000   1.0000   1.0000
     0.0000   0.0000   0.0000   0.0000

          k = 0.1667 0.4811 0.0000 (  5836 PWs)   bands (ev):

   -17.1897 -17.0560 -10.5796 -10.4548  -7.8561  -7.7361  -3.8765  -3.2713
     2.7891   3.1786   7.7341   8.3850

     occupation numbers 
     1.0000   1.0000   1.0000   1.0000   1.0000   1.0000   1.0000   1.0000
     0.0000   0.0000   0.0000   0.0000

          k = 0.1667 0.5774 0.0000 (  5810 PWs)   bands (ev):

   -16.8536 -16.7341 -11.0792 -10.9508  -8.0272  -7.9057  -3.2198  -2.9034
     2.1391   2.5851   8.8842   9.0906

     occupation numbers 
     1.0000   1.0000   1.0000   1.0000   1.0000   1.0000   1.0000   1.0000
     0.0000   0.0000   0.0000   0.0000

          k = 0.2500 0.4330 0.0000 (  5866 PWs)   bands (ev):

   -17.2199 -17.0829 -10.1180 -10.0083  -8.4112  -8.2958  -3.9490  -3.2928
     3.1547   3.3029   7.6665   8.2372

     occupation numbers 
     1.0000   1.0000   1.0000   1.0000   1.0000   1.0000   1.0000   1.0000
     0.0000   0.0000   0.0000   0.0000

          k = 0.2500 0.5292 0.0000 (  5823 PWs)   bands (ev):

   -16.7122 -16.5926 -10.6272 -10.5080  -9.0177  -8.8976  -3.0149  -2.6690
     2.2994   2.5408   9.3097   9.6039

     occupation numbers 
     1.0000   1.0000   1.0000   1.0000   1.0000   1.0000   1.0000   1.0000
     0.0000   0.0000   0.0000   0.0000

          k = 0.3333 0.5774 0.0000 (  5826 PWs)   bands (ev):

   -16.5198 -16.4055 -10.4031 -10.3013  -9.6857  -9.5823  -2.5931  -2.4609
     2.1045   2.2904   9.5049   9.7046

     occupation numbers 
     1.0000   1.0000   1.0000   1.0000   1.0000   1.0000   1.0000   1.0000
     0.0000   0.0000   0.0000   0.0000

     the Fermi energy is    -1.3308 ev

!    total energy              =     -53.69359312 Ry
     estimated scf accuracy    <       0.00000003 Ry
     smearing contrib. (-TS)   =       0.00000000 Ry
     internal energy E=F+TS    =     -53.69359312 Ry

     The total energy is F=E-TS. E is the sum of the following terms:
     one-electron contribution =    -536.36584150 Ry
     hartree contribution      =     272.33431455 Ry
     xc contribution           =     -17.37118872 Ry
     ewald contribution        =     227.70912255 Ry

     convergence has been achieved in   9 iterations

     Writing all to output data dir ./tmp/BN2L_AB1_PBE_vdW.save/

     init_run     :     10.39s CPU     10.58s WALL (       1 calls)
     electrons    :      5.62s CPU      5.92s WALL (       1 calls)

     Called by init_run:
     wfcinit      :      0.19s CPU      0.19s WALL (       1 calls)
     wfcinit:atom :      0.00s CPU      0.00s WALL (      19 calls)
     wfcinit:wfcr :      0.17s CPU      0.17s WALL (      19 calls)
     potinit      :      9.80s CPU      9.97s WALL (       1 calls)
     hinit0       :      0.37s CPU      0.38s WALL (       1 calls)

     Called by electrons:
     c_bands      :      4.55s CPU      4.72s WALL (       9 calls)
     sum_band     :      0.53s CPU      0.56s WALL (       9 calls)
     v_of_rho     :     10.28s CPU     10.51s WALL (      10 calls)
     v_h          :      0.01s CPU      0.01s WALL (      10 calls)
     v_xc         :     10.27s CPU     10.50s WALL (      10 calls)
     mix_rho      :      0.02s CPU      0.05s WALL (       9 calls)
     vdW_kernel   :      9.71s CPU      9.87s WALL (       1 calls)

     Called by c_bands:
     init_us_2    :      0.10s CPU      0.11s WALL (     361 calls)
     init_us_2:cp :      0.10s CPU      0.11s WALL (     361 calls)
     cegterg      :      4.39s CPU      4.55s WALL (     171 calls)

     Called by sum_band:
     sum_band:wei :      0.00s CPU      0.00s WALL (       9 calls)
     sum_band:loo :      0.52s CPU      0.55s WALL (       9 calls)
     sum_band:buf :      0.01s CPU      0.02s WALL (     171 calls)
     sum_band:ini :      0.05s CPU      0.05s WALL (     171 calls)

     Called by *egterg:
     cdiaghg      :      0.17s CPU      0.18s WALL (     814 calls)
     cegterg:over :      0.28s CPU      0.29s WALL (     643 calls)
     cegterg:upda :      0.19s CPU      0.22s WALL (     643 calls)
     cegterg:last :      0.26s CPU      0.23s WALL (     428 calls)
     h_psi        :      3.46s CPU      3.58s WALL (     833 calls)
     g_psi        :      0.02s CPU      0.03s WALL (     643 calls)

     Called by h_psi:
     h_psi:calbec :      0.32s CPU      0.33s WALL (     833 calls)
     vloc_psi     :      2.80s CPU      2.96s WALL (     833 calls)
     add_vuspsi   :      0.30s CPU      0.26s WALL (     833 calls)

     General routines
     calbec       :      0.32s CPU      0.32s WALL (     833 calls)
     fft          :      0.50s CPU      0.52s WALL (     600 calls)
     ffts         :      0.00s CPU      0.00s WALL (       9 calls)
     fftw         :      2.85s CPU      3.00s WALL (   14858 calls)

     Parallel routines

     PWSCF        :     16.12s CPU     16.65s WALL


   This run was terminated on:  15:25: 2  17Apr2024            

=------------------------------------------------------------------------------=
   JOB DONE.
=------------------------------------------------------------------------------=
