
     Program PWSCF v.7.2 starts on 12Apr2024 at 17:33:22 

     This program is part of the open-source Quantum ESPRESSO suite
     for quantum simulation of materials; please cite
         "P. Giannozzi et al., J. Phys.:Condens. Matter 21 395502 (2009);
         "P. Giannozzi et al., J. Phys.:Condens. Matter 29 465901 (2017);
         "P. Giannozzi et al., J. Chem. Phys. 152 154105 (2020);
          URL http://www.quantum-espresso.org", 
     in publications or presentations arising from this work. More details at
     http://www.quantum-espresso.org/quote

     Parallel version (MPI & OpenMP), running on       8 processor cores
     Number of MPI processes:                 8
     Threads/MPI process:                     1

     MPI processes distributed on     1 nodes
     0 MiB available memory on the printing compute node when the environment starts

     Waiting for input...
     Reading input from standard input

     Current dimensions of program PWSCF are:
     Max number of different atomic species (ntypx) = 10
     Max number of k-points (npk) =  40000
     Max angular momentum in pseudopotentials (lmaxx) =  4

     File ./tmp/BN2L_A1B_PBE_vdW.update deleted, as requested

     File ./tmp/BN2L_A1B_PBE_vdW.bfgs deleted, as requested

     IMPORTANT: XC functional enforced from input :
     Exchange-correlation= VDW-DF2-B86R
                           (   1   4  26   0   2   0   0)
     Any further DFT definition will be discarded
     Please, verify this is what you really want


     R & G space division:  proc/nbgrp/npool/nimage =       8
     Subspace diagonalization in iterative solution of the eigenvalue problem:
     a serial algorithm will be used


     Parallelization info
     --------------------
     sticks:   dense  smooth     PW     G-vecs:    dense   smooth      PW
     Min          93      93     26                16393    16393    2566
     Max          94      94     27                16428    16428    2595
     Sum         745     745    211               131209   131209   20621

     Using Slab Decomposition



     bravais-lattice index     =            4
     lattice parameter (alat)  =       4.7400  a.u.
     unit-cell volume          =     737.8289 (a.u.)^3
     number of atoms/cell      =            4
     number of atomic types    =            2
     number of electrons       =        16.00
     number of Kohn-Sham states=           12
     kinetic-energy cutoff     =     120.0000  Ry
     charge density cutoff     =     480.0000  Ry
     scf convergence threshold =      1.0E-06
     mixing beta               =       0.7000
     number of iterations used =            8  plain     mixing
     energy convergence thresh.=      1.0E-04
     force convergence thresh. =      1.0E-03
     press convergence thresh. =      5.0E-01
     Exchange-correlation= VDW-DF2-B86R
                           (   1   4  26   0   2   0   0)
     nstep                     =           50


     celldm(1)=   4.740000  celldm(2)=   0.000000  celldm(3)=   8.000000
     celldm(4)=   0.000000  celldm(5)=   0.000000  celldm(6)=   0.000000

     crystal axes: (cart. coord. in units of alat)
               a(1) = (   1.000000   0.000000   0.000000 )  
               a(2) = (  -0.500000   0.866025   0.000000 )  
               a(3) = (   0.000000   0.000000   8.000000 )  

     reciprocal axes: (cart. coord. in units 2 pi/alat)
               b(1) = (  1.000000  0.577350 -0.000000 )  
               b(2) = (  0.000000  1.154701  0.000000 )  
               b(3) = (  0.000000 -0.000000  0.125000 )  


     PseudoPot. # 1 for B  read from file:
     ../../../../Pseudo/PBE/B.upf
     MD5 check sum: 72f82fc31bc892420d0cab7e25c88ab8
     Pseudo is Norm-conserving + core correction, Zval =  3.0
     Generated using ONCVPSP code by D. R. Hamann
     Using radial grid of 1534 points,  4 beta functions with: 
                l(1) =   0
                l(2) =   0
                l(3) =   1
                l(4) =   1

     PseudoPot. # 2 for N  read from file:
     ../../../../Pseudo/PBE/N.upf
     MD5 check sum: d34365f73bb0e2ee98afc20ec3e87676
     Pseudo is Norm-conserving + core correction, Zval =  5.0
     Generated using ONCVPSP code by D. R. Hamann
     Using radial grid of 1058 points,  4 beta functions with: 
                l(1) =   0
                l(2) =   0
                l(3) =   1
                l(4) =   1

     atomic species   valence    mass     pseudopotential
        B              3.00    10.00000     B ( 1.00)
        N              5.00    14.01100     N ( 1.00)

      6 Sym. Ops. (no inversion) found


                                    s                        frac. trans.

      isym =  1     identity                                     

 cryst.   s( 1) = (     1          0          0      )
                  (     0          1          0      )
                  (     0          0          1      )

 cart.    s( 1) = (  1.0000000  0.0000000  0.0000000 )
                  (  0.0000000  1.0000000  0.0000000 )
                  (  0.0000000  0.0000000  1.0000000 )


      isym =  2     120 deg rotation - cryst. axis [0,0,1]       

 cryst.   s( 2) = (     0          1          0      )
                  (    -1         -1          0      )
                  (     0          0          1      )

 cart.    s( 2) = ( -0.5000000 -0.8660254  0.0000000 )
                  (  0.8660254 -0.5000000  0.0000000 )
                  (  0.0000000  0.0000000  1.0000000 )


      isym =  3     120 deg rotation - cryst. axis [0,0,-1]      

 cryst.   s( 3) = (    -1         -1          0      )
                  (     1          0          0      )
                  (     0          0          1      )

 cart.    s( 3) = ( -0.5000000  0.8660254  0.0000000 )
                  ( -0.8660254 -0.5000000  0.0000000 )
                  (  0.0000000  0.0000000  1.0000000 )


      isym =  4     inv. 180 deg rotation - cart. axis [1,0,0]   

 cryst.   s( 4) = (    -1          0          0      )
                  (     1          1          0      )
                  (     0          0          1      )

 cart.    s( 4) = ( -1.0000000  0.0000000  0.0000000 )
                  (  0.0000000  1.0000000  0.0000000 )
                  (  0.0000000  0.0000000  1.0000000 )


      isym =  5     inv. 180 deg rotation - cryst. axis [0,1,0]  

 cryst.   s( 5) = (     1          1          0      )
                  (     0         -1          0      )
                  (     0          0          1      )

 cart.    s( 5) = (  0.5000000  0.8660254  0.0000000 )
                  (  0.8660254 -0.5000000  0.0000000 )
                  (  0.0000000  0.0000000  1.0000000 )


      isym =  6     inv. 180 deg rotation - cryst. axis [1,1,0]  

 cryst.   s( 6) = (     0         -1          0      )
                  (    -1          0          0      )
                  (     0          0          1      )

 cart.    s( 6) = (  0.5000000 -0.8660254  0.0000000 )
                  ( -0.8660254 -0.5000000  0.0000000 )
                  (  0.0000000  0.0000000  1.0000000 )


     point group C_3v (3m)  
     there are  3 classes
     the character table:

       E     2C3   3s_v 
A_1    1.00  1.00  1.00
A_2    1.00  1.00 -1.00
E      2.00 -1.00  0.00

     the symmetry operations in each class and the name of the first element:

     E        1
          identity                                               
     2C3      2    3
          120 deg rotation - cryst. axis [0,0,1]                 
     3s_v     4    5    6
          inv. 180 deg rotation - cart. axis [1,0,0]             

   Cartesian axes

     site n.     atom                  positions (alat units)
         1           N   tau(   1) = (   0.0000000   0.0000000   0.0000000  )
         2           B   tau(   2) = (  -0.0000003   0.5773502   0.0000000  )
         3           N   tau(   3) = (   0.0000000   0.0000000   1.3600000  )
         4           B   tau(   4) = (   0.5000005   0.2886748   1.3600000  )

   Crystallographic axes

     site n.     atom                  positions (cryst. coord.)
         1           N   tau(   1) = (  0.0000000  0.0000000  0.0000000  )
         2           B   tau(   2) = (  0.3333330  0.6666666  0.0000000  )
         3           N   tau(   3) = (  0.0000000  0.0000000  0.1700000  )
         4           B   tau(   4) = (  0.6666670  0.3333330  0.1700000  )

     number of k points=    19  Marzari-Vanderbilt smearing, width (Ry)=  0.0050
                       cart. coord. in units 2pi/alat
        k(    1) = (   0.0000000   0.0000000   0.0000000), wk =   0.0138889
        k(    2) = (   0.0000000   0.0962250   0.0000000), wk =   0.0833333
        k(    3) = (   0.0000000   0.1924501   0.0000000), wk =   0.0833333
        k(    4) = (   0.0000000   0.2886751   0.0000000), wk =   0.0833333
        k(    5) = (   0.0000000   0.3849002   0.0000000), wk =   0.0833333
        k(    6) = (   0.0000000   0.4811252   0.0000000), wk =   0.0833333
        k(    7) = (   0.0000000  -0.5773503   0.0000000), wk =   0.0416667
        k(    8) = (   0.0833333   0.1443376   0.0000000), wk =   0.0833333
        k(    9) = (   0.0833333   0.2405626   0.0000000), wk =   0.1666667
        k(   10) = (   0.0833333   0.3367877   0.0000000), wk =   0.1666667
        k(   11) = (   0.0833333   0.4330127   0.0000000), wk =   0.1666667
        k(   12) = (   0.0833333   0.5292377   0.0000000), wk =   0.1666667
        k(   13) = (   0.1666667   0.2886751   0.0000000), wk =   0.0833333
        k(   14) = (   0.1666667   0.3849002   0.0000000), wk =   0.1666667
        k(   15) = (   0.1666667   0.4811252   0.0000000), wk =   0.1666667
        k(   16) = (   0.1666667   0.5773503   0.0000000), wk =   0.0833333
        k(   17) = (   0.2500000   0.4330127   0.0000000), wk =   0.0833333
        k(   18) = (   0.2500000   0.5292377   0.0000000), wk =   0.1666667
        k(   19) = (   0.3333333   0.5773503   0.0000000), wk =   0.0277778

                       cryst. coord.
        k(    1) = (   0.0000000   0.0000000   0.0000000), wk =   0.0138889
        k(    2) = (   0.0000000   0.0833333   0.0000000), wk =   0.0833333
        k(    3) = (   0.0000000   0.1666667   0.0000000), wk =   0.0833333
        k(    4) = (   0.0000000   0.2500000   0.0000000), wk =   0.0833333
        k(    5) = (   0.0000000   0.3333333   0.0000000), wk =   0.0833333
        k(    6) = (   0.0000000   0.4166667   0.0000000), wk =   0.0833333
        k(    7) = (   0.0000000  -0.5000000   0.0000000), wk =   0.0416667
        k(    8) = (   0.0833333   0.0833333   0.0000000), wk =   0.0833333
        k(    9) = (   0.0833333   0.1666667   0.0000000), wk =   0.1666667
        k(   10) = (   0.0833333   0.2500000   0.0000000), wk =   0.1666667
        k(   11) = (   0.0833333   0.3333333   0.0000000), wk =   0.1666667
        k(   12) = (   0.0833333   0.4166667   0.0000000), wk =   0.1666667
        k(   13) = (   0.1666667   0.1666667   0.0000000), wk =   0.0833333
        k(   14) = (   0.1666667   0.2500000   0.0000000), wk =   0.1666667
        k(   15) = (   0.1666667   0.3333333   0.0000000), wk =   0.1666667
        k(   16) = (   0.1666667   0.4166667   0.0000000), wk =   0.0833333
        k(   17) = (   0.2500000   0.2500000   0.0000000), wk =   0.0833333
        k(   18) = (   0.2500000   0.3333333   0.0000000), wk =   0.1666667
        k(   19) = (   0.3333333   0.3333333   0.0000000), wk =   0.0277778

     Dense  grid:   131209 G-vectors     FFT dimensions: (  36,  36, 270)

     Dynamical RAM for                 wfc:       0.37 MB

     Dynamical RAM for     wfc (w. buffer):       7.50 MB

     Dynamical RAM for           str. fact:       0.50 MB

     Dynamical RAM for           local pot:       0.00 MB

     Dynamical RAM for          nlocal pot:       1.00 MB

     Dynamical RAM for                qrad:       2.01 MB

     Dynamical RAM for          rho,v,vnew:       1.76 MB

     Dynamical RAM for               rhoin:       0.59 MB

     Dynamical RAM for            rho*nmix:       4.00 MB

     Dynamical RAM for           G-vectors:       1.06 MB

     Dynamical RAM for          h,s,v(r/c):       0.03 MB

     Dynamical RAM for          <psi|beta>:       0.01 MB

     Dynamical RAM for                 psi:       0.75 MB

     Dynamical RAM for                hpsi:       0.75 MB

     Dynamical RAM for      wfcinit/wfcrot:       1.01 MB

     Estimated static dynamical RAM per process >      16.84 MB

     Estimated max dynamical RAM per process >      22.38 MB

     Estimated total dynamical RAM >     179.03 MB

     Initial potential from superposition of free atoms

     starting charge      15.9995, renormalised to      16.0000

     negative rho (up, down):  3.917E-06 0.000E+00


     %%%%%%%%%%%%%%%%%%%%%%%%%%%%%%%%%%%%%%%%%%%%%%%%%%%%%%%%%%%%%%%%%%%%%%%%
     %                                                                      %
     % You are using vdW-DF, which was implemented by the Thonhauser group. %
     % Please cite the following two papers that made this development      %
     % possible and the two reviews that describe the various versions:     %
     %                                                                      %
     %   T. Thonhauser et al., PRL 115, 136402 (2015).                      %
     %   T. Thonhauser et al., PRB 76, 125112 (2007).                       %
     %   K. Berland et al., Rep. Prog. Phys. 78, 066501 (2015).             %
     %   D.C. Langreth et al., J. Phys.: Condens. Matter 21, 084203 (2009). %
     %                                                                      %
     % If you are calculating stress with vdW-DF, please also cite:         %
     %                                                                      %
     %   R. Sabatini et al., J. Phys.: Condens. Matter 24, 424209 (2012).   %
     %                                                                      %
     %%%%%%%%%%%%%%%%%%%%%%%%%%%%%%%%%%%%%%%%%%%%%%%%%%%%%%%%%%%%%%%%%%%%%%%%

     %%%%%%%%%%%%%%%%%%%%%%%%%%%%%%%%%%%%%%%%%%%%%%%%%%%%%%%%%%%%%%%%%%%%%%%%
     %                                                                      %
     %  vdW-DF NEWS:                                                        %
     %                                                                      %
     %  * vdW-DF3 is now available. DOI: 10.1021/acs.jctc.0c00471           %
     %    use with input_dft = 'vdW-DF3-opt1' or 'vdW-DF3-opt2'             %
     %                                                                      %
     %  * Unscreened and range-separated hybrid vdW-DF-cx functionals       %
     %    DOI: 10.1063/1.4986522 and 10.1088/1361-648X/ac2ad2               %
     %    use with input_dft = 'vdW-DF-cx0'    and 'vdW-DF-ahcx'            %
     %  * Unscreened and range-separated hybrid vdW-DF2-b86r functionals    %
     %    DOI: 10.1063/1.4986522 and DOI: 10.1103/PhysRevX.12.041003        %
     %    use with input_dft = 'vdW-DF2-br0' and 'vdW-DF2-ahbr'             %
     %                                                                      %
     %%%%%%%%%%%%%%%%%%%%%%%%%%%%%%%%%%%%%%%%%%%%%%%%%%%%%%%%%%%%%%%%%%%%%%%%


     Carrying out vdW-DF run using the following parameters:
     Nqs    =  20  Npoints =  1024  r_max =  100.000
     q_mesh =  0.00001000  0.04494208  0.09755937  0.15916263
               0.23128650  0.31572767  0.41458969  0.53033537
               0.66584808  0.82450364  1.01025438  1.22772762
               1.48234092  1.78043706  2.12944203  2.53805004
               3.01644009  3.57652955  4.23227104  5.00000000


     -----------------------------------------------
     Non-local corr. energy    =       0.17614137 Ry
     -----------------------------------------------

     Starting wfcs are   16 randomized atomic wfcs

     total cpu time spent up to now is       10.1 secs

     Self-consistent Calculation

     iteration #  1     ecut=   120.00 Ry     beta= 0.70
     Davidson diagonalization with overlap

---- Real-time Memory Report at c_bands before calling an iterative solver
             0 MiB given to the printing process from OS
             0 MiB allocation reported by mallinfo(arena+hblkhd)
             0 MiB available memory on the node where the printing process lives
------------------
     ethr =  1.00E-02,  avg # of iterations =  4.1


     -----------------------------------------------
     Non-local corr. energy    =       0.20635689 Ry
     -----------------------------------------------


     total cpu time spent up to now is       11.6 secs

     total energy              =     -53.44209600 Ry
     estimated scf accuracy    <       0.76923662 Ry

     iteration #  2     ecut=   120.00 Ry     beta= 0.70
     Davidson diagonalization with overlap

---- Real-time Memory Report at c_bands before calling an iterative solver
             0 MiB given to the printing process from OS
             0 MiB allocation reported by mallinfo(arena+hblkhd)
             0 MiB available memory on the node where the printing process lives
------------------
     ethr =  4.81E-03,  avg # of iterations =  3.5


     -----------------------------------------------
     Non-local corr. energy    =       0.20021080 Ry
     -----------------------------------------------


     total cpu time spent up to now is       12.9 secs

     total energy              =     -53.64266896 Ry
     estimated scf accuracy    <       0.33516388 Ry

     iteration #  3     ecut=   120.00 Ry     beta= 0.70
     Davidson diagonalization with overlap

---- Real-time Memory Report at c_bands before calling an iterative solver
             0 MiB given to the printing process from OS
             0 MiB allocation reported by mallinfo(arena+hblkhd)
             0 MiB available memory on the node where the printing process lives
------------------
     ethr =  2.09E-03,  avg # of iterations =  1.8


     -----------------------------------------------
     Non-local corr. energy    =       0.20220536 Ry
     -----------------------------------------------


     total cpu time spent up to now is       13.9 secs

     total energy              =     -53.69662866 Ry
     estimated scf accuracy    <       0.00564082 Ry

     iteration #  4     ecut=   120.00 Ry     beta= 0.70
     Davidson diagonalization with overlap

---- Real-time Memory Report at c_bands before calling an iterative solver
             0 MiB given to the printing process from OS
             0 MiB allocation reported by mallinfo(arena+hblkhd)
             0 MiB available memory on the node where the printing process lives
------------------
     ethr =  3.53E-05,  avg # of iterations =  9.4


     -----------------------------------------------
     Non-local corr. energy    =       0.20235189 Ry
     -----------------------------------------------


     total cpu time spent up to now is       16.1 secs

     total energy              =     -53.70156547 Ry
     estimated scf accuracy    <       0.00574903 Ry

     iteration #  5     ecut=   120.00 Ry     beta= 0.70
     Davidson diagonalization with overlap

---- Real-time Memory Report at c_bands before calling an iterative solver
             0 MiB given to the printing process from OS
             0 MiB allocation reported by mallinfo(arena+hblkhd)
             0 MiB available memory on the node where the printing process lives
------------------
     ethr =  3.53E-05,  avg # of iterations =  2.4


     -----------------------------------------------
     Non-local corr. energy    =       0.20232526 Ry
     -----------------------------------------------


     total cpu time spent up to now is       17.2 secs

     total energy              =     -53.70169249 Ry
     estimated scf accuracy    <       0.00108967 Ry

     iteration #  6     ecut=   120.00 Ry     beta= 0.70
     Davidson diagonalization with overlap

---- Real-time Memory Report at c_bands before calling an iterative solver
             0 MiB given to the printing process from OS
             0 MiB allocation reported by mallinfo(arena+hblkhd)
             0 MiB available memory on the node where the printing process lives
------------------
     ethr =  6.81E-06,  avg # of iterations =  3.8

     negative rho (up, down):  3.073E-07 0.000E+00


     -----------------------------------------------
     Non-local corr. energy    =       0.20235496 Ry
     -----------------------------------------------


     total cpu time spent up to now is       18.5 secs

     total energy              =     -53.70201545 Ry
     estimated scf accuracy    <       0.00001762 Ry

     iteration #  7     ecut=   120.00 Ry     beta= 0.70
     Davidson diagonalization with overlap

---- Real-time Memory Report at c_bands before calling an iterative solver
             0 MiB given to the printing process from OS
             0 MiB allocation reported by mallinfo(arena+hblkhd)
             0 MiB available memory on the node where the printing process lives
------------------
     c_bands:  1 eigenvalues not converged
     c_bands:  1 eigenvalues not converged
     ethr =  1.10E-07,  avg # of iterations =  7.9


     -----------------------------------------------
     Non-local corr. energy    =       0.20236862 Ry
     -----------------------------------------------


     total cpu time spent up to now is       20.3 secs

     total energy              =     -53.70201750 Ry
     estimated scf accuracy    <       0.00002589 Ry

     iteration #  8     ecut=   120.00 Ry     beta= 0.70
     Davidson diagonalization with overlap

---- Real-time Memory Report at c_bands before calling an iterative solver
             0 MiB given to the printing process from OS
             0 MiB allocation reported by mallinfo(arena+hblkhd)
             0 MiB available memory on the node where the printing process lives
------------------
     ethr =  1.10E-07,  avg # of iterations =  2.9


     -----------------------------------------------
     Non-local corr. energy    =       0.20237067 Ry
     -----------------------------------------------


     total cpu time spent up to now is       21.5 secs

     total energy              =     -53.70201969 Ry
     estimated scf accuracy    <       0.00000128 Ry

     iteration #  9     ecut=   120.00 Ry     beta= 0.70
     Davidson diagonalization with overlap

---- Real-time Memory Report at c_bands before calling an iterative solver
             0 MiB given to the printing process from OS
             0 MiB allocation reported by mallinfo(arena+hblkhd)
             0 MiB available memory on the node where the printing process lives
------------------
     ethr =  7.97E-09,  avg # of iterations =  3.7


     -----------------------------------------------
     Non-local corr. energy    =       0.20237876 Ry
     -----------------------------------------------


     total cpu time spent up to now is       22.8 secs

     End of self-consistent calculation

          k = 0.0000 0.0000 0.0000 ( 16399 PWs)   bands (ev):

   -20.1388 -20.0147  -8.1816  -7.2314  -3.8517  -3.8517  -3.8391  -3.8391
     2.0126   2.5658   3.7096   4.7306

     occupation numbers 
     1.0000   1.0000   1.0000   1.0000   1.0000   1.0000   1.0000   1.0000
     0.0000   0.0000   0.0000   0.0000

          k = 0.0000 0.0962 0.0000 ( 16391 PWs)   bands (ev):

   -20.0050 -19.8828  -7.9985  -7.0569  -4.4102  -4.3848  -4.1085  -4.0937
     2.2452   2.7798   3.9320   5.0070

     occupation numbers 
     1.0000   1.0000   1.0000   1.0000   1.0000   1.0000   1.0000   1.0000
     0.0000   0.0000   0.0000   0.0000

          k = 0.0000 0.1925 0.0000 ( 16390 PWs)   bands (ev):

   -19.6111 -19.4945  -7.4574  -6.5451  -5.8143  -5.7661  -4.7342  -4.7155
     2.9055   3.4033   4.5832   5.4193

     occupation numbers 
     1.0000   1.0000   1.0000   1.0000   1.0000   1.0000   1.0000   1.0000
     0.0000   0.0000   0.0000   0.0000

          k = 0.0000 0.2887 0.0000 ( 16370 PWs)   bands (ev):

   -18.9842 -18.8771  -7.6007  -7.5329  -6.5761  -5.7163  -5.4605  -5.4385
     3.9472   4.3654   5.3912   5.8296

     occupation numbers 
     1.0000   1.0000   1.0000   1.0000   1.0000   1.0000   1.0000   1.0000
     0.0000   0.0000   0.0000   0.0000

          k = 0.0000 0.3849 0.0000 ( 16376 PWs)   bands (ev):

   -18.1932 -18.0995  -9.3710  -9.2870  -6.0851  -6.0609  -5.4453  -4.6710
     4.2160   4.8289   5.3130   6.4294

     occupation numbers 
     1.0000   1.0000   1.0000   1.0000   1.0000   1.0000   1.0000   1.0000
     0.0000   0.0000   0.0000   0.0000

          k = 0.0000 0.4811 0.0000 ( 16402 PWs)   bands (ev):

   -17.4150 -17.3373 -10.7919 -10.6898  -6.4950  -6.4697  -4.2584  -3.6235
     2.5898   3.5647   6.6527   7.3843

     occupation numbers 
     1.0000   1.0000   1.0000   1.0000   1.0000   1.0000   1.0000   1.0000
     0.0000   0.0000   0.0000   0.0000

          k = 0.0000-0.5774 0.0000 ( 16394 PWs)   bands (ev):

   -17.0480 -16.9797 -11.3811 -11.2691  -6.6369  -6.6112  -3.6410  -3.1204
     1.7965   2.8849   7.0954   7.5335

     occupation numbers 
     1.0000   1.0000   1.0000   1.0000   1.0000   1.0000   1.0000   1.0000
     0.0000   0.0000   0.0000   0.0000

          k = 0.0833 0.1443 0.0000 ( 16405 PWs)   bands (ev):

   -19.7410 -19.6226  -7.6361  -6.7131  -5.3243  -5.2836  -4.6164  -4.5980
     2.6924   3.1992   4.3701   5.2775

     occupation numbers 
     1.0000   1.0000   1.0000   1.0000   1.0000   1.0000   1.0000   1.0000
     0.0000   0.0000   0.0000   0.0000

          k = 0.0833 0.2406 0.0000 ( 16381 PWs)   bands (ev):

   -19.2293 -19.1184  -6.9559  -6.7773  -6.7552  -6.0355  -5.4038  -5.3792
     3.5506   4.0032   5.2005   5.7160

     occupation numbers 
     1.0000   1.0000   1.0000   1.0000   1.0000   1.0000   1.0000   1.0000
     0.0000   0.0000   0.0000   0.0000

          k = 0.0833 0.3368 0.0000 ( 16367 PWs)   bands (ev):

   -18.5140 -18.4144  -8.5212  -8.4467  -6.1501  -6.1208  -5.9104  -5.0963
     4.7659   4.9215   4.9588   6.4468

     occupation numbers 
     1.0000   1.0000   1.0000   1.0000   1.0000   1.0000   1.0000   1.0000
     0.0000   0.0000   0.0000   0.0000

          k = 0.0833 0.4330 0.0000 ( 16378 PWs)   bands (ev):

   -17.7055 -17.6209 -10.1059 -10.0140  -6.7004  -6.6682  -4.7198  -4.0167
     3.3684   4.1831   6.2878   7.1452

     occupation numbers 
     1.0000   1.0000   1.0000   1.0000   1.0000   1.0000   1.0000   1.0000
     0.0000   0.0000   0.0000   0.0000

          k = 0.0833 0.5292 0.0000 ( 16379 PWs)   bands (ev):

   -17.0800 -17.0100 -11.1493 -11.0418  -6.9892  -6.9557  -3.7131  -3.1610
     2.0539   3.0565   7.4632   8.0134

     occupation numbers 
     1.0000   1.0000   1.0000   1.0000   1.0000   1.0000   1.0000   1.0000
     0.0000   0.0000   0.0000   0.0000

          k = 0.1667 0.2887 0.0000 ( 16366 PWs)   bands (ev):

   -18.6250 -18.5235  -8.0198  -7.9510  -6.4188  -6.3840  -6.0698  -5.2428
     4.6077   4.8583   5.2199   6.3975

     occupation numbers 
     1.0000   1.0000   1.0000   1.0000   1.0000   1.0000   1.0000   1.0000
     0.0000   0.0000   0.0000   0.0000

          k = 0.1667 0.3849 0.0000 ( 16360 PWs)   bands (ev):

   -17.8703 -17.7818  -9.3682  -9.2875  -7.2841  -7.2395  -4.9761  -4.2381
     4.0140   4.5951   6.0498   6.8671

     occupation numbers 
     1.0000   1.0000   1.0000   1.0000   1.0000   1.0000   1.0000   1.0000
     0.0000   0.0000   0.0000   0.0000

          k = 0.1667 0.4811 0.0000 ( 16379 PWs)   bands (ev):

   -17.1414 -17.0681 -10.5555 -10.4597  -7.8051  -7.7556  -3.8448  -3.2411
     2.6356   3.3853   7.7280   8.3823

     occupation numbers 
     1.0000   1.0000   1.0000   1.0000   1.0000   1.0000   1.0000   1.0000
     0.0000   0.0000   0.0000   0.0000

          k = 0.1667 0.5774 0.0000 ( 16386 PWs)   bands (ev):

   -16.8052 -16.7404 -11.0619 -10.9576  -7.9766  -7.9256  -3.2682  -2.7652
     1.9509   2.7990   8.7671   9.1788

     occupation numbers 
     1.0000   1.0000   1.0000   1.0000   1.0000   1.0000   1.0000   1.0000
     0.0000   0.0000   0.0000   0.0000

          k = 0.2500 0.4330 0.0000 ( 16348 PWs)   bands (ev):

   -17.1709 -17.0961 -10.0944 -10.0092  -8.3674  -8.3095  -3.9057  -3.2804
     2.9960   3.5154   7.6686   8.2311

     occupation numbers 
     1.0000   1.0000   1.0000   1.0000   1.0000   1.0000   1.0000   1.0000
     0.0000   0.0000   0.0000   0.0000

          k = 0.2500 0.5292 0.0000 ( 16377 PWs)   bands (ev):

   -16.6616 -16.5986 -10.6082 -10.5193  -8.9741  -8.9108  -3.0497  -2.5468
     2.1909   2.6684   9.3034   9.4210

     occupation numbers 
     1.0000   1.0000   1.0000   1.0000   1.0000   1.0000   1.0000   1.0000
     0.0000   0.0000   0.0000   0.0000

          k = 0.3333 0.5774 0.0000 ( 16404 PWs)   bands (ev):

   -16.4677 -16.4091 -10.3569 -10.3566  -9.6129  -9.6126  -2.7070  -2.2487
     2.1983   2.1987   9.5289   9.5290

     occupation numbers 
     1.0000   1.0000   1.0000   1.0000   1.0000   1.0000   1.0000   1.0000
     0.0000   0.0000   0.0000   0.0000

     the Fermi energy is    -1.4264 ev

!    total energy              =     -53.70202034 Ry
     estimated scf accuracy    <       0.00000036 Ry
     smearing contrib. (-TS)   =       0.00000000 Ry
     internal energy E=F+TS    =     -53.70202034 Ry

     The total energy is F=E-TS. E is the sum of the following terms:
     one-electron contribution =    -523.63663682 Ry
     hartree contribution      =     265.98950921 Ry
     xc contribution           =     -17.38841315 Ry
     ewald contribution        =     221.33352042 Ry

     convergence has been achieved in   9 iterations


     -----------------------------------------------
     Non-local corr. energy    =       0.20237876 Ry
     -----------------------------------------------


     Forces acting on atoms (cartesian axes, Ry/au):

     atom    1 type  2   force =     0.00000000    0.00000000   -0.00111788
     atom    2 type  1   force =    -0.00000000   -0.00000000   -0.00051784
     atom    3 type  2   force =     0.00000000    0.00000000    0.00112906
     atom    4 type  1   force =     0.00000000    0.00000000    0.00050666
     The non-local contrib.  to forces
     atom    1 type  2   force =     0.00000000    0.00000000   -0.00282711
     atom    2 type  1   force =     0.00000000   -0.00000000   -0.00133584
     atom    3 type  2   force =     0.00000000    0.00000000    0.00288292
     atom    4 type  1   force =     0.00000000    0.00000000    0.00132300
     The ionic contribution  to forces
     atom    1 type  2   force =    -0.00000463   -0.00000089  -17.05360460
     atom    2 type  1   force =     0.00000464    0.00000089  -10.22764144
     atom    3 type  2   force =     0.00000773   -0.00000446   17.05360460
     atom    4 type  1   force =    -0.00000773    0.00000446   10.22764144
     The local contribution  to forces
     atom    1 type  2   force =    -0.00000000   -0.00000000   17.05532163
     atom    2 type  1   force =    -0.00000252   -0.00000048   10.22847535
     atom    3 type  2   force =     0.00000000    0.00000000  -17.05513222
     atom    4 type  1   force =     0.00000419   -0.00000242  -10.22836130
     The core correction contribution to forces
     atom    1 type  2   force =    -0.00000000   -0.00000000    0.00008529
     atom    2 type  1   force =    -0.00000015   -0.00000003    0.00003138
     atom    3 type  2   force =     0.00000000   -0.00000000   -0.00008532
     atom    4 type  1   force =     0.00000025   -0.00000015   -0.00003023
     The Hubbard contrib.    to forces
     atom    1 type  2   force =     0.00000000    0.00000000    0.00000000
     atom    2 type  1   force =     0.00000000    0.00000000    0.00000000
     atom    3 type  2   force =     0.00000000    0.00000000    0.00000000
     atom    4 type  1   force =     0.00000000    0.00000000    0.00000000
     The SCF correction term to forces
     atom    1 type  2   force =     0.00000000    0.00000000   -0.00000000
     atom    2 type  1   force =     0.00000000    0.00000000   -0.00000000
     atom    3 type  2   force =    -0.00000000    0.00000000   -0.00013511
     atom    4 type  1   force =    -0.00000000    0.00000000   -0.00006042

     Total force =     0.001238     Total SCF correction =     0.000148
     SCF correction compared to forces is large: reduce conv_thr to get better values


     Computing stress (Cartesian axis) and pressure



     -----------------------------------------------
     Non-local corr. energy    =       0.20237876 Ry
     -----------------------------------------------

          total   stress  (Ry/bohr**3)                   (kbar)     P=        4.40
   0.00003712   0.00000000   0.00000000            5.46        0.00        0.00
   0.00000000   0.00003712   0.00000000            0.00        5.46        0.00
   0.00000000   0.00000000   0.00001541            0.00        0.00        2.27

     kinetic stress (kbar)   4828.69      0.00      0.00
                                0.00   4828.69     -0.00
                                0.00     -0.00   5255.86

     local   stress (kbar)-107298.69      0.00      0.00
                                0.00-107298.69     -0.00
                                0.00     -0.00 107981.29

     nonloc. stress (kbar)   -797.15      0.00      0.00
                                0.00   -797.15     -0.00
                                0.00     -0.00   -769.83

     hartree stress (kbar)  52195.66     -0.00      0.00
                               -0.00  52195.66      0.00
                                0.00      0.00 -51359.49

     exc-cor stress (kbar)   -485.17     -0.00      0.00
                               -0.00   -485.17     -0.00
                                0.00     -0.00   -532.93

     corecor stress (kbar)   -541.72      0.00     -0.00
                                0.00   -541.72      0.00
                               -0.00      0.00   -529.93

     ewald   stress (kbar)  52099.50     -0.01     -0.00
                               -0.01  52099.50      0.00
                               -0.00      0.00 -60070.50

     hubbard stress (kbar)      0.00      0.00      0.00
                                0.00      0.00      0.00
                                0.00      0.00      0.00

     DFT-D   stress (kbar)      0.00      0.00      0.00
                                0.00      0.00      0.00
                                0.00      0.00      0.00

     XDM     stress (kbar)      0.00      0.00      0.00
                                0.00      0.00      0.00
                                0.00      0.00      0.00

     dft-nl  stress (kbar)      4.35      0.00      0.00
                                0.00      4.35     -0.00
                                0.00     -0.00     27.79

     TS-vdW  stress (kbar)      0.00      0.00      0.00
                                0.00      0.00      0.00
                                0.00      0.00      0.00

     MDB     stress (kbar)      0.00      0.00      0.00
                                0.00      0.00      0.00
                                0.00      0.00      0.00

     3D-RISM stress (kbar)      0.00      0.00      0.00
                                0.00      0.00      0.00
                                0.00      0.00      0.00


     BFGS Geometry Optimization
     Energy error            =      0.0E+00 Ry
     Gradient error          =      1.1E-03 Ry/Bohr
     Cell gradient error     =      2.3E+00 kbar

     number of scf cycles    =   1
     number of bfgs steps    =   0

     enthalpy           new  =     -53.7020203408 Ry

     new trust radius        =       0.0020928847 bohr
     new conv_thr            =       0.0000010000 Ry

     new unit-cell volume =    738.11311 a.u.^3 (   109.37708 Ang^3 )
     density =      0.72906 g/cm^3

CELL_PARAMETERS (alat=  4.74000000)
   1.000000000   0.000000000   0.000000000
  -0.500000000   0.866025404   0.000000000
   0.000000000   0.000000000   8.003081963

ATOMIC_POSITIONS (crystal)
N             0.0000000000        0.0000000000        0.0000000000    0   0   0
B             0.3333330000        0.6666666000        0.0000000000    0   0   0
N             0.0000000000        0.0000000000        0.1700297749
B             0.6666670000        0.3333330000        0.1700133613



     Writing config-only to output data dir ./tmp/BN2L_A1B_PBE_vdW.save/
     NEW-OLD atomic charge density approx. for the potential

     negative rho (up, down):  4.531E-08 0.000E+00


     -----------------------------------------------
     Non-local corr. energy    =       0.20245137 Ry
     -----------------------------------------------

     extrapolated charge   16.00616, renormalised to   16.00000

     total cpu time spent up to now is       28.2 secs

     Self-consistent Calculation

     iteration #  1     ecut=   120.00 Ry     beta= 0.70
     Davidson diagonalization with overlap

---- Real-time Memory Report at c_bands before calling an iterative solver
             0 MiB given to the printing process from OS
             0 MiB allocation reported by mallinfo(arena+hblkhd)
             0 MiB available memory on the node where the printing process lives
------------------
     c_bands:  1 eigenvalues not converged
     ethr =  1.00E-06,  avg # of iterations =  5.2

     negative rho (up, down):  1.010E-08 0.000E+00


     -----------------------------------------------
     Non-local corr. energy    =       0.20229375 Ry
     -----------------------------------------------


     total cpu time spent up to now is       29.6 secs

     total energy              =     -53.70196860 Ry
     estimated scf accuracy    <       0.00004551 Ry

     iteration #  2     ecut=   120.00 Ry     beta= 0.70
     Davidson diagonalization with overlap

---- Real-time Memory Report at c_bands before calling an iterative solver
             0 MiB given to the printing process from OS
             0 MiB allocation reported by mallinfo(arena+hblkhd)
             0 MiB available memory on the node where the printing process lives
------------------
     c_bands:  1 eigenvalues not converged
     ethr =  2.84E-07,  avg # of iterations =  7.3


     -----------------------------------------------
     Non-local corr. energy    =       0.20233574 Ry
     -----------------------------------------------


     total cpu time spent up to now is       31.3 secs

     total energy              =     -53.70201556 Ry
     estimated scf accuracy    <       0.00016799 Ry

     iteration #  3     ecut=   120.00 Ry     beta= 0.70
     Davidson diagonalization with overlap

---- Real-time Memory Report at c_bands before calling an iterative solver
             0 MiB given to the printing process from OS
             0 MiB allocation reported by mallinfo(arena+hblkhd)
             0 MiB available memory on the node where the printing process lives
------------------
     ethr =  2.84E-07,  avg # of iterations =  2.1


     -----------------------------------------------
     Non-local corr. energy    =       0.20235510 Ry
     -----------------------------------------------


     total cpu time spent up to now is       32.4 secs

     total energy              =     -53.70202784 Ry
     estimated scf accuracy    <       0.00001857 Ry

     iteration #  4     ecut=   120.00 Ry     beta= 0.70
     Davidson diagonalization with overlap

---- Real-time Memory Report at c_bands before calling an iterative solver
             0 MiB given to the printing process from OS
             0 MiB allocation reported by mallinfo(arena+hblkhd)
             0 MiB available memory on the node where the printing process lives
------------------
     ethr =  1.16E-07,  avg # of iterations =  1.0


     -----------------------------------------------
     Non-local corr. energy    =       0.20236792 Ry
     -----------------------------------------------


     total cpu time spent up to now is       33.3 secs

     total energy              =     -53.70202630 Ry
     estimated scf accuracy    <       0.00000877 Ry

     iteration #  5     ecut=   120.00 Ry     beta= 0.70
     Davidson diagonalization with overlap

---- Real-time Memory Report at c_bands before calling an iterative solver
             0 MiB given to the printing process from OS
             0 MiB allocation reported by mallinfo(arena+hblkhd)
             0 MiB available memory on the node where the printing process lives
------------------
     ethr =  5.48E-08,  avg # of iterations =  1.0


     -----------------------------------------------
     Non-local corr. energy    =       0.20238122 Ry
     -----------------------------------------------


     total cpu time spent up to now is       34.3 secs

     total energy              =     -53.70202568 Ry
     estimated scf accuracy    <       0.00000316 Ry

     iteration #  6     ecut=   120.00 Ry     beta= 0.70
     Davidson diagonalization with overlap

---- Real-time Memory Report at c_bands before calling an iterative solver
             0 MiB given to the printing process from OS
             0 MiB allocation reported by mallinfo(arena+hblkhd)
             0 MiB available memory on the node where the printing process lives
------------------
     ethr =  1.97E-08,  avg # of iterations =  1.8


     -----------------------------------------------
     Non-local corr. energy    =       0.20239660 Ry
     -----------------------------------------------


     total cpu time spent up to now is       35.3 secs

     End of self-consistent calculation

          k = 0.0000 0.0000 0.0000 ( 16399 PWs)   bands (ev):

   -20.1443 -20.0206  -8.1863  -7.2379  -3.8576  -3.8575  -3.8449  -3.8449
     2.0099   2.5650   3.7254   4.7316

     occupation numbers 
     1.0000   1.0000   1.0000   1.0000   1.0000   1.0000   1.0000   1.0000
     0.0000   0.0000   0.0000   0.0000

          k = 0.0000 0.0962 0.0000 ( 16391 PWs)   bands (ev):

   -20.0106 -19.8888  -8.0032  -7.0634  -4.4160  -4.3907  -4.1143  -4.0996
     2.2426   2.7790   3.9476   4.9277

     occupation numbers 
     1.0000   1.0000   1.0000   1.0000   1.0000   1.0000   1.0000   1.0000
     0.0000   0.0000   0.0000   0.0000

          k = 0.0000 0.1925 0.0000 ( 16390 PWs)   bands (ev):

   -19.6167 -19.5005  -7.4621  -6.5515  -5.8201  -5.7721  -4.7401  -4.7214
     2.9028   3.4025   4.5977   5.4189

     occupation numbers 
     1.0000   1.0000   1.0000   1.0000   1.0000   1.0000   1.0000   1.0000
     0.0000   0.0000   0.0000   0.0000

          k = 0.0000 0.2887 0.0000 ( 16370 PWs)   bands (ev):

   -18.9898 -18.8831  -7.6065  -7.5389  -6.5807  -5.7227  -5.4664  -5.4445
     3.9445   4.3646   5.3862   5.8458

     occupation numbers 
     1.0000   1.0000   1.0000   1.0000   1.0000   1.0000   1.0000   1.0000
     0.0000   0.0000   0.0000   0.0000

          k = 0.0000 0.3849 0.0000 ( 16376 PWs)   bands (ev):

   -18.1988 -18.1054  -9.3768  -9.2932  -6.0910  -6.0669  -5.4500  -4.6772
     4.2102   4.8249   5.3093   6.4259

     occupation numbers 
     1.0000   1.0000   1.0000   1.0000   1.0000   1.0000   1.0000   1.0000
     0.0000   0.0000   0.0000   0.0000

          k = 0.0000 0.4811 0.0000 ( 16402 PWs)   bands (ev):

   -17.4205 -17.3431 -10.7978 -10.6960  -6.5010  -6.4757  -4.2630  -3.6296
     2.5843   3.5584   6.6477   7.3795

     occupation numbers 
     1.0000   1.0000   1.0000   1.0000   1.0000   1.0000   1.0000   1.0000
     0.0000   0.0000   0.0000   0.0000

          k = 0.0000-0.5774 0.0000 ( 16394 PWs)   bands (ev):

   -17.0535 -16.9855 -11.3870 -11.2754  -6.6429  -6.6172  -3.6455  -3.1264
     1.7910   2.8783   7.0895   7.5274

     occupation numbers 
     1.0000   1.0000   1.0000   1.0000   1.0000   1.0000   1.0000   1.0000
     0.0000   0.0000   0.0000   0.0000

          k = 0.0833 0.1443 0.0000 ( 16405 PWs)   bands (ev):

   -19.7466 -19.6285  -7.6408  -6.7196  -5.3301  -5.2895  -4.6223  -4.6039
     2.6898   3.1985   4.3852   5.2777

     occupation numbers 
     1.0000   1.0000   1.0000   1.0000   1.0000   1.0000   1.0000   1.0000
     0.0000   0.0000   0.0000   0.0000

          k = 0.0833 0.2406 0.0000 ( 16381 PWs)   bands (ev):

   -19.2349 -19.1244  -6.9607  -6.7830  -6.7611  -6.0420  -5.4097  -5.3852
     3.5480   4.0024   5.2100   5.7188

     occupation numbers 
     1.0000   1.0000   1.0000   1.0000   1.0000   1.0000   1.0000   1.0000
     0.0000   0.0000   0.0000   0.0000

          k = 0.0833 0.3368 0.0000 ( 16367 PWs)   bands (ev):

   -18.5195 -18.4204  -8.5270  -8.4528  -6.1560  -6.1268  -5.9150  -5.1027
     4.7643   4.9183   4.9522   6.4427

     occupation numbers 
     1.0000   1.0000   1.0000   1.0000   1.0000   1.0000   1.0000   1.0000
     0.0000   0.0000   0.0000   0.0000

          k = 0.0833 0.4330 0.0000 ( 16378 PWs)   bands (ev):

   -17.7110 -17.6267 -10.1117 -10.0202  -6.7064  -6.6742  -4.7244  -4.0229
     3.3628   4.1773   6.2838   7.1428

     occupation numbers 
     1.0000   1.0000   1.0000   1.0000   1.0000   1.0000   1.0000   1.0000
     0.0000   0.0000   0.0000   0.0000

          k = 0.0833 0.5292 0.0000 ( 16379 PWs)   bands (ev):

   -17.0855 -17.0157 -11.1552 -11.0481  -6.9952  -6.9617  -3.7176  -3.1670
     2.0483   3.0499   7.4575   8.0078

     occupation numbers 
     1.0000   1.0000   1.0000   1.0000   1.0000   1.0000   1.0000   1.0000
     0.0000   0.0000   0.0000   0.0000

          k = 0.1667 0.2887 0.0000 ( 16366 PWs)   bands (ev):

   -18.6306 -18.5294  -8.0256  -7.9571  -6.4248  -6.3900  -6.0745  -5.2492
     4.6054   4.8572   5.2121   6.4156

     occupation numbers 
     1.0000   1.0000   1.0000   1.0000   1.0000   1.0000   1.0000   1.0000
     0.0000   0.0000   0.0000   0.0000

          k = 0.1667 0.3849 0.0000 ( 16360 PWs)   bands (ev):

   -17.8758 -17.7877  -9.3740  -9.2936  -7.2901  -7.2456  -4.9807  -4.2443
     4.0082   4.5898   6.0466   6.8649

     occupation numbers 
     1.0000   1.0000   1.0000   1.0000   1.0000   1.0000   1.0000   1.0000
     0.0000   0.0000   0.0000   0.0000

          k = 0.1667 0.4811 0.0000 ( 16379 PWs)   bands (ev):

   -17.1469 -17.0739 -10.5614 -10.4659  -7.8110  -7.7617  -3.8494  -3.2472
     2.6300   3.3789   7.7240   8.3801

     occupation numbers 
     1.0000   1.0000   1.0000   1.0000   1.0000   1.0000   1.0000   1.0000
     0.0000   0.0000   0.0000   0.0000

          k = 0.1667 0.5774 0.0000 ( 16386 PWs)   bands (ev):

   -16.8107 -16.7462 -11.0678 -10.9638  -7.9825  -7.9318  -3.2727  -2.7711
     1.9452   2.7923   8.7610   9.1736

     occupation numbers 
     1.0000   1.0000   1.0000   1.0000   1.0000   1.0000   1.0000   1.0000
     0.0000   0.0000   0.0000   0.0000

          k = 0.2500 0.4330 0.0000 ( 16348 PWs)   bands (ev):

   -17.1764 -17.1019 -10.1002 -10.0154  -8.3734  -8.3157  -3.9102  -3.2864
     2.9902   3.5092   7.6651   8.2293

     occupation numbers 
     1.0000   1.0000   1.0000   1.0000   1.0000   1.0000   1.0000   1.0000
     0.0000   0.0000   0.0000   0.0000

          k = 0.2500 0.5292 0.0000 ( 16377 PWs)   bands (ev):

   -16.6671 -16.6044 -10.6141 -10.5255  -8.9801  -8.9170  -3.0542  -2.5527
     2.1850   2.6619   9.2984   9.4171

     occupation numbers 
     1.0000   1.0000   1.0000   1.0000   1.0000   1.0000   1.0000   1.0000
     0.0000   0.0000   0.0000   0.0000

          k = 0.3333 0.5774 0.0000 ( 16404 PWs)   bands (ev):

   -16.4732 -16.4148 -10.3634 -10.3622  -9.6195  -9.6183  -2.7113  -2.2545
     2.1916   2.1928   9.5238   9.5238

     occupation numbers 
     1.0000   1.0000   1.0000   1.0000   1.0000   1.0000   1.0000   1.0000
     0.0000   0.0000   0.0000   0.0000

     the Fermi energy is    -1.4316 ev

!    total energy              =     -53.70202541 Ry
     estimated scf accuracy    <       0.00000060 Ry
     smearing contrib. (-TS)   =       0.00000000 Ry
     internal energy E=F+TS    =     -53.70202541 Ry

     The total energy is F=E-TS. E is the sum of the following terms:
     one-electron contribution =    -523.82418089 Ry
     hartree contribution      =     266.08536367 Ry
     xc contribution           =     -17.38835428 Ry
     ewald contribution        =     221.42514609 Ry

     convergence has been achieved in   6 iterations


     -----------------------------------------------
     Non-local corr. energy    =       0.20239660 Ry
     -----------------------------------------------


     Forces acting on atoms (cartesian axes, Ry/au):

     atom    1 type  2   force =     0.00000000    0.00000000   -0.00086504
     atom    2 type  1   force =     0.00000000    0.00000000   -0.00049637
     atom    3 type  2   force =     0.00000000    0.00000000    0.00068945
     atom    4 type  1   force =     0.00000000   -0.00000000    0.00067196
     The non-local contrib.  to forces
     atom    1 type  2   force =     0.00000000    0.00000000   -0.00245891
     atom    2 type  1   force =     0.00000000    0.00000000   -0.00143786
     atom    3 type  2   force =     0.00000000    0.00000000    0.00151042
     atom    4 type  1   force =     0.00000000   -0.00000000    0.00142363
     The ionic contribution  to forces
     atom    1 type  2   force =    -0.00000463   -0.00000089  -17.05236336
     atom    2 type  1   force =     0.00000464    0.00000089  -10.22692163
     atom    3 type  2   force =     0.00000773   -0.00000446   17.05578933
     atom    4 type  1   force =    -0.00000773    0.00000446   10.22349566
     The local contribution  to forces
     atom    1 type  2   force =     0.00000000   -0.00000000   17.05578718
     atom    2 type  1   force =    -0.00000252   -0.00000048   10.22879337
     atom    3 type  2   force =     0.00000000    0.00000000  -17.05843995
     atom    4 type  1   force =     0.00000419   -0.00000242  -10.22517559
     The core correction contribution to forces
     atom    1 type  2   force =    -0.00000000   -0.00000000    0.00008160
     atom    2 type  1   force =    -0.00000015   -0.00000003    0.00004004
     atom    3 type  2   force =     0.00000000   -0.00000000   -0.00005563
     atom    4 type  1   force =     0.00000025   -0.00000015   -0.00003269
     The Hubbard contrib.    to forces
     atom    1 type  2   force =     0.00000000    0.00000000    0.00000000
     atom    2 type  1   force =     0.00000000    0.00000000    0.00000000
     atom    3 type  2   force =     0.00000000    0.00000000    0.00000000
     atom    4 type  1   force =     0.00000000    0.00000000    0.00000000
     The SCF correction term to forces
     atom    1 type  2   force =     0.00000000    0.00000000   -0.00000000
     atom    2 type  1   force =     0.00000000    0.00000000   -0.00000000
     atom    3 type  2   force =    -0.00000000    0.00000000    0.00189089
     atom    4 type  1   force =    -0.00000000    0.00000000    0.00096655

     Total force =     0.000963     Total SCF correction =     0.002124
     SCF correction compared to forces is large: reduce conv_thr to get better values


     Computing stress (Cartesian axis) and pressure



     -----------------------------------------------
     Non-local corr. energy    =       0.20239660 Ry
     -----------------------------------------------

          total   stress  (Ry/bohr**3)                   (kbar)     P=        4.39
   0.00003681   0.00000000   0.00000000            5.42        0.00        0.00
   0.00000000   0.00003681   0.00000000            0.00        5.42        0.00
   0.00000000   0.00000000   0.00001584            0.00        0.00        2.33

     kinetic stress (kbar)   4826.81      0.00      0.00
                                0.00   4826.81      0.00
                                0.00      0.00   5253.85

     local   stress (kbar)-107294.82      0.00      0.00
                                0.00-107294.82     -0.00
                                0.00     -0.00 107977.22

     nonloc. stress (kbar)   -796.85      0.00      0.00
                                0.00   -796.85     -0.00
                                0.00     -0.00   -769.52

     hartree stress (kbar)  52194.71     -0.00     -0.00
                               -0.00  52194.71      0.00
                               -0.00      0.00 -51358.92

     exc-cor stress (kbar)   -484.98     -0.00      0.00
                               -0.00   -484.98     -0.00
                                0.00     -0.00   -532.73

     corecor stress (kbar)   -541.52      0.00     -0.00
                                0.00   -541.52      0.00
                               -0.00      0.00   -529.73

     ewald   stress (kbar)  52097.71     -0.01     -0.00
                               -0.01  52097.70      0.00
                               -0.00      0.00 -60065.64

     hubbard stress (kbar)      0.00      0.00      0.00
                                0.00      0.00      0.00
                                0.00      0.00      0.00

     DFT-D   stress (kbar)      0.00      0.00      0.00
                                0.00      0.00      0.00
                                0.00      0.00      0.00

     XDM     stress (kbar)      0.00      0.00      0.00
                                0.00      0.00      0.00
                                0.00      0.00      0.00

     dft-nl  stress (kbar)      4.35      0.00      0.00
                                0.00      4.35     -0.00
                                0.00     -0.00     27.78

     TS-vdW  stress (kbar)      0.00      0.00      0.00
                                0.00      0.00      0.00
                                0.00      0.00      0.00

     MDB     stress (kbar)      0.00      0.00      0.00
                                0.00      0.00      0.00
                                0.00      0.00      0.00

     3D-RISM stress (kbar)      0.00      0.00      0.00
                                0.00      0.00      0.00
                                0.00      0.00      0.00

     Energy error            =      5.1E-06 Ry
     Gradient error          =      6.9E-04 Ry/Bohr
     Cell gradient error     =      2.3E+00 kbar

     number of scf cycles    =   2
     number of bfgs steps    =   1

     enthalpy           old  =     -53.7020203408 Ry
     enthalpy           new  =     -53.7020254084 Ry

     CASE: enthalpy          _new < enthalpy          _old


     WARNING: bfgs curvature condition failed, Theta= 0.841
     new trust radius        =       0.0031387226 bohr
     new conv_thr            =       0.0000000100 Ry

     new unit-cell volume =    738.53948 a.u.^3 (   109.44026 Ang^3 )
     density =      0.72864 g/cm^3

CELL_PARAMETERS (alat=  4.74000000)
   1.000000000   0.000000000   0.000000000
  -0.500000000   0.866025404   0.000000000
   0.000000000   0.000000000   8.007704909

ATOMIC_POSITIONS (crystal)
N             0.0000000000        0.0000000000        0.0000000000    0   0   0
B             0.3333330000        0.6666666000        0.0000000000    0   0   0
N             0.0000000000        0.0000000000        0.1700664321
B             0.6666670000        0.3333330000        0.1700359768



     Writing config-only to output data dir ./tmp/BN2L_A1B_PBE_vdW.save/
     NEW-OLD atomic charge density approx. for the potential

     negative rho (up, down):  6.689E-08 0.000E+00


     -----------------------------------------------
     Non-local corr. energy    =       0.20250499 Ry
     -----------------------------------------------

     extrapolated charge   16.00924, renormalised to   16.00000

     total cpu time spent up to now is       40.6 secs

     Self-consistent Calculation

     iteration #  1     ecut=   120.00 Ry     beta= 0.70
     Davidson diagonalization with overlap

---- Real-time Memory Report at c_bands before calling an iterative solver
             0 MiB given to the printing process from OS
             0 MiB allocation reported by mallinfo(arena+hblkhd)
             0 MiB available memory on the node where the printing process lives
------------------
     ethr =  1.00E-06,  avg # of iterations =  6.9

     negative rho (up, down):  1.377E-08 0.000E+00


     -----------------------------------------------
     Non-local corr. energy    =       0.20227961 Ry
     -----------------------------------------------


     total cpu time spent up to now is       42.2 secs

     total energy              =     -53.70188381 Ry
     estimated scf accuracy    <       0.00012698 Ry

     iteration #  2     ecut=   120.00 Ry     beta= 0.70
     Davidson diagonalization with overlap

---- Real-time Memory Report at c_bands before calling an iterative solver
             0 MiB given to the printing process from OS
             0 MiB allocation reported by mallinfo(arena+hblkhd)
             0 MiB available memory on the node where the printing process lives
------------------
     ethr =  7.94E-07,  avg # of iterations =  7.5


     -----------------------------------------------
     Non-local corr. energy    =       0.20234055 Ry
     -----------------------------------------------


     total cpu time spent up to now is       44.0 secs

     total energy              =     -53.70200186 Ry
     estimated scf accuracy    <       0.00044311 Ry

     iteration #  3     ecut=   120.00 Ry     beta= 0.70
     Davidson diagonalization with overlap

---- Real-time Memory Report at c_bands before calling an iterative solver
             0 MiB given to the printing process from OS
             0 MiB allocation reported by mallinfo(arena+hblkhd)
             0 MiB available memory on the node where the printing process lives
------------------
     ethr =  7.94E-07,  avg # of iterations =  2.7


     -----------------------------------------------
     Non-local corr. energy    =       0.20236293 Ry
     -----------------------------------------------


     total cpu time spent up to now is       45.1 secs

     total energy              =     -53.70203930 Ry
     estimated scf accuracy    <       0.00004301 Ry

     iteration #  4     ecut=   120.00 Ry     beta= 0.70
     Davidson diagonalization with overlap

---- Real-time Memory Report at c_bands before calling an iterative solver
             0 MiB given to the printing process from OS
             0 MiB allocation reported by mallinfo(arena+hblkhd)
             0 MiB available memory on the node where the printing process lives
------------------
     ethr =  2.69E-07,  avg # of iterations =  1.0


     -----------------------------------------------
     Non-local corr. energy    =       0.20238617 Ry
     -----------------------------------------------


     total cpu time spent up to now is       46.0 secs

     total energy              =     -53.70203418 Ry
     estimated scf accuracy    <       0.00002378 Ry

     iteration #  5     ecut=   120.00 Ry     beta= 0.70
     Davidson diagonalization with overlap

---- Real-time Memory Report at c_bands before calling an iterative solver
             0 MiB given to the printing process from OS
             0 MiB allocation reported by mallinfo(arena+hblkhd)
             0 MiB available memory on the node where the printing process lives
------------------
     ethr =  1.49E-07,  avg # of iterations =  1.0


     -----------------------------------------------
     Non-local corr. energy    =       0.20241035 Ry
     -----------------------------------------------


     total cpu time spent up to now is       47.0 secs

     total energy              =     -53.70203229 Ry
     estimated scf accuracy    <       0.00000737 Ry

     iteration #  6     ecut=   120.00 Ry     beta= 0.70
     Davidson diagonalization with overlap

---- Real-time Memory Report at c_bands before calling an iterative solver
             0 MiB given to the printing process from OS
             0 MiB allocation reported by mallinfo(arena+hblkhd)
             0 MiB available memory on the node where the printing process lives
------------------
     ethr =  4.60E-08,  avg # of iterations =  2.0


     -----------------------------------------------
     Non-local corr. energy    =       0.20241674 Ry
     -----------------------------------------------


     total cpu time spent up to now is       48.0 secs

     total energy              =     -53.70203316 Ry
     estimated scf accuracy    <       0.00000042 Ry

     iteration #  7     ecut=   120.00 Ry     beta= 0.70
     Davidson diagonalization with overlap

---- Real-time Memory Report at c_bands before calling an iterative solver
             0 MiB given to the printing process from OS
             0 MiB allocation reported by mallinfo(arena+hblkhd)
             0 MiB available memory on the node where the printing process lives
------------------
     ethr =  2.62E-09,  avg # of iterations =  3.9


     -----------------------------------------------
     Non-local corr. energy    =       0.20241680 Ry
     -----------------------------------------------


     total cpu time spent up to now is       49.3 secs

     total energy              =     -53.70203336 Ry
     estimated scf accuracy    <       0.00000002 Ry

     iteration #  8     ecut=   120.00 Ry     beta= 0.70
     Davidson diagonalization with overlap

---- Real-time Memory Report at c_bands before calling an iterative solver
             0 MiB given to the printing process from OS
             0 MiB allocation reported by mallinfo(arena+hblkhd)
             0 MiB available memory on the node where the printing process lives
------------------
     ethr =  1.13E-10,  avg # of iterations =  2.8


     -----------------------------------------------
     Non-local corr. energy    =       0.20241821 Ry
     -----------------------------------------------


     total cpu time spent up to now is       50.4 secs

     total energy              =     -53.70203336 Ry
     estimated scf accuracy    <       0.00000004 Ry

     iteration #  9     ecut=   120.00 Ry     beta= 0.70
     Davidson diagonalization with overlap

---- Real-time Memory Report at c_bands before calling an iterative solver
             0 MiB given to the printing process from OS
             0 MiB allocation reported by mallinfo(arena+hblkhd)
             0 MiB available memory on the node where the printing process lives
------------------
     ethr =  1.13E-10,  avg # of iterations =  1.0


     -----------------------------------------------
     Non-local corr. energy    =       0.20241801 Ry
     -----------------------------------------------


     total cpu time spent up to now is       51.3 secs

     total energy              =     -53.70203335 Ry
     estimated scf accuracy    <       0.00000003 Ry

     iteration # 10     ecut=   120.00 Ry     beta= 0.70
     Davidson diagonalization with overlap

---- Real-time Memory Report at c_bands before calling an iterative solver
             0 MiB given to the printing process from OS
             0 MiB allocation reported by mallinfo(arena+hblkhd)
             0 MiB available memory on the node where the printing process lives
------------------
     ethr =  1.13E-10,  avg # of iterations =  1.8


     -----------------------------------------------
     Non-local corr. energy    =       0.20241734 Ry
     -----------------------------------------------


     total cpu time spent up to now is       52.4 secs

     End of self-consistent calculation

          k = 0.0000 0.0000 0.0000 ( 16399 PWs)   bands (ev):

   -20.1419 -20.0189  -8.1830  -7.2381  -3.8553  -3.8553  -3.8426  -3.8426
     2.0082   2.5629   3.7234   4.7277

     occupation numbers 
     1.0000   1.0000   1.0000   1.0000   1.0000   1.0000   1.0000   1.0000
     0.0000   0.0000   0.0000   0.0000

          k = 0.0000 0.0962 0.0000 ( 16391 PWs)   bands (ev):

   -20.0081 -19.8870  -7.9999  -7.0636  -4.4137  -4.3884  -4.1121  -4.0973
     2.2409   2.7770   3.9456   4.9232

     occupation numbers 
     1.0000   1.0000   1.0000   1.0000   1.0000   1.0000   1.0000   1.0000
     0.0000   0.0000   0.0000   0.0000

          k = 0.0000 0.1925 0.0000 ( 16390 PWs)   bands (ev):

   -19.6142 -19.4987  -7.4588  -6.5517  -5.8178  -5.7700  -4.7378  -4.7192
     2.9011   3.4006   4.5957   5.4154

     occupation numbers 
     1.0000   1.0000   1.0000   1.0000   1.0000   1.0000   1.0000   1.0000
     0.0000   0.0000   0.0000   0.0000

          k = 0.0000 0.2887 0.0000 ( 16370 PWs)   bands (ev):

   -18.9874 -18.8813  -7.6041  -7.5370  -6.5775  -5.7227  -5.4641  -5.4423
     3.9429   4.3629   5.3851   5.8447

     occupation numbers 
     1.0000   1.0000   1.0000   1.0000   1.0000   1.0000   1.0000   1.0000
     0.0000   0.0000   0.0000   0.0000

          k = 0.0000 0.3849 0.0000 ( 16376 PWs)   bands (ev):

   -18.1964 -18.1035  -9.3745  -9.2913  -6.0887  -6.0648  -5.4467  -4.6770
     4.2124   4.8251   5.3080   6.4241

     occupation numbers 
     1.0000   1.0000   1.0000   1.0000   1.0000   1.0000   1.0000   1.0000
     0.0000   0.0000   0.0000   0.0000

          k = 0.0000 0.4811 0.0000 ( 16402 PWs)   bands (ev):

   -17.4181 -17.3412 -10.7954 -10.6942  -6.4987  -6.4736  -4.2598  -3.6291
     2.5871   3.5584   6.6481   7.3796

     occupation numbers 
     1.0000   1.0000   1.0000   1.0000   1.0000   1.0000   1.0000   1.0000
     0.0000   0.0000   0.0000   0.0000

          k = 0.0000-0.5774 0.0000 ( 16394 PWs)   bands (ev):

   -17.0511 -16.9835 -11.3846 -11.2737  -6.6406  -6.6151  -3.6424  -3.1257
     1.7939   2.8780   7.0916   7.5282

     occupation numbers 
     1.0000   1.0000   1.0000   1.0000   1.0000   1.0000   1.0000   1.0000
     0.0000   0.0000   0.0000   0.0000

          k = 0.0833 0.1443 0.0000 ( 16405 PWs)   bands (ev):

   -19.7441 -19.6268  -7.6375  -6.7197  -5.3278  -5.2874  -4.6200  -4.6017
     2.6881   3.1965   4.3832   5.2740

     occupation numbers 
     1.0000   1.0000   1.0000   1.0000   1.0000   1.0000   1.0000   1.0000
     0.0000   0.0000   0.0000   0.0000

          k = 0.0833 0.2406 0.0000 ( 16381 PWs)   bands (ev):

   -19.2324 -19.1226  -6.9572  -6.7809  -6.7591  -6.0420  -5.4074  -5.3830
     3.5464   4.0006   5.2080   5.7169

     occupation numbers 
     1.0000   1.0000   1.0000   1.0000   1.0000   1.0000   1.0000   1.0000
     0.0000   0.0000   0.0000   0.0000

          k = 0.0833 0.3368 0.0000 ( 16367 PWs)   bands (ev):

   -18.5171 -18.4185  -8.5246  -8.4509  -6.1538  -6.1247  -5.9118  -5.1026
     4.7632   4.9182   4.9525   6.4417

     occupation numbers 
     1.0000   1.0000   1.0000   1.0000   1.0000   1.0000   1.0000   1.0000
     0.0000   0.0000   0.0000   0.0000

          k = 0.0833 0.4330 0.0000 ( 16378 PWs)   bands (ev):

   -17.7086 -17.6248 -10.1094 -10.0184  -6.7041  -6.6721  -4.7212  -4.0226
     3.3654   4.1776   6.2828   7.1410

     occupation numbers 
     1.0000   1.0000   1.0000   1.0000   1.0000   1.0000   1.0000   1.0000
     0.0000   0.0000   0.0000   0.0000

          k = 0.0833 0.5292 0.0000 ( 16379 PWs)   bands (ev):

   -17.0831 -17.0138 -11.1528 -11.0464  -6.9929  -6.9597  -3.7145  -3.1663
     2.0512   3.0498   7.4589   8.0084

     occupation numbers 
     1.0000   1.0000   1.0000   1.0000   1.0000   1.0000   1.0000   1.0000
     0.0000   0.0000   0.0000   0.0000

          k = 0.1667 0.2887 0.0000 ( 16366 PWs)   bands (ev):

   -18.6281 -18.5276  -8.0233  -7.9551  -6.4225  -6.3879  -6.0713  -5.2491
     4.6038   4.8561   5.2128   6.4140

     occupation numbers 
     1.0000   1.0000   1.0000   1.0000   1.0000   1.0000   1.0000   1.0000
     0.0000   0.0000   0.0000   0.0000

          k = 0.1667 0.3849 0.0000 ( 16360 PWs)   bands (ev):

   -17.8734 -17.7858  -9.3717  -9.2917  -7.2878  -7.2436  -4.9775  -4.2440
     4.0104   4.5906   6.0450   6.8628

     occupation numbers 
     1.0000   1.0000   1.0000   1.0000   1.0000   1.0000   1.0000   1.0000
     0.0000   0.0000   0.0000   0.0000

          k = 0.1667 0.4811 0.0000 ( 16379 PWs)   bands (ev):

   -17.1445 -17.0720 -10.5590 -10.4641  -7.8087  -7.7597  -3.8462  -3.2466
     2.6326   3.3794   7.7231   8.3789

     occupation numbers 
     1.0000   1.0000   1.0000   1.0000   1.0000   1.0000   1.0000   1.0000
     0.0000   0.0000   0.0000   0.0000

          k = 0.1667 0.5774 0.0000 ( 16386 PWs)   bands (ev):

   -16.8083 -16.7442 -11.0655 -10.9621  -7.9802  -7.9298  -3.2696  -2.7703
     1.9479   2.7925   8.7629   9.1741

     occupation numbers 
     1.0000   1.0000   1.0000   1.0000   1.0000   1.0000   1.0000   1.0000
     0.0000   0.0000   0.0000   0.0000

          k = 0.2500 0.4330 0.0000 ( 16348 PWs)   bands (ev):

   -17.1740 -17.1000 -10.0979 -10.0135  -8.3711  -8.3137  -3.9070  -3.2859
     2.9926   3.5101   7.6638   8.2279

     occupation numbers 
     1.0000   1.0000   1.0000   1.0000   1.0000   1.0000   1.0000   1.0000
     0.0000   0.0000   0.0000   0.0000

          k = 0.2500 0.5292 0.0000 ( 16377 PWs)   bands (ev):

   -16.6647 -16.6024 -10.6118 -10.5237  -8.9778  -8.9151  -3.0510  -2.5519
     2.1873   2.6629   9.2991   9.4173

     occupation numbers 
     1.0000   1.0000   1.0000   1.0000   1.0000   1.0000   1.0000   1.0000
     0.0000   0.0000   0.0000   0.0000

          k = 0.3333 0.5774 0.0000 ( 16404 PWs)   bands (ev):

   -16.4707 -16.4128 -10.3618 -10.3596  -9.6180  -9.6158  -2.7081  -2.2536
     2.1929   2.1949   9.5249   9.5249

     occupation numbers 
     1.0000   1.0000   1.0000   1.0000   1.0000   1.0000   1.0000   1.0000
     0.0000   0.0000   0.0000   0.0000

     the Fermi energy is    -1.4301 ev

!    total energy              =     -53.70203335 Ry
     estimated scf accuracy    <          4.5E-09 Ry
     smearing contrib. (-TS)   =       0.00000000 Ry
     internal energy E=F+TS    =     -53.70203335 Ry

     The total energy is F=E-TS. E is the sum of the following terms:
     one-electron contribution =    -524.09668763 Ry
     hartree contribution      =     266.21571915 Ry
     xc contribution           =     -17.38779836 Ry
     ewald contribution        =     221.56673349 Ry

     convergence has been achieved in  10 iterations


     -----------------------------------------------
     Non-local corr. energy    =       0.20241734 Ry
     -----------------------------------------------


     Forces acting on atoms (cartesian axes, Ry/au):

     atom    1 type  2   force =     0.00000000    0.00000000   -0.00106579
     atom    2 type  1   force =    -0.00000000   -0.00000000   -0.00047803
     atom    3 type  2   force =     0.00000000    0.00000000    0.00072820
     atom    4 type  1   force =     0.00000000   -0.00000000    0.00081562
     The non-local contrib.  to forces
     atom    1 type  2   force =    -0.00000000   -0.00000000   -0.00276700
     atom    2 type  1   force =     0.00000000    0.00000000   -0.00130437
     atom    3 type  2   force =    -0.00000000   -0.00000000    0.00101946
     atom    4 type  1   force =     0.00000000   -0.00000000    0.00125199
     The ionic contribution  to forces
     atom    1 type  2   force =    -0.00000463   -0.00000089  -17.05071289
     atom    2 type  1   force =     0.00000464    0.00000089  -10.22596643
     atom    3 type  2   force =     0.00000773   -0.00000446   17.05707406
     atom    4 type  1   force =    -0.00000773    0.00000446   10.21960526
     The local contribution  to forces
     atom    1 type  2   force =     0.00000000   -0.00000000   17.05235625
     atom    2 type  1   force =    -0.00000252   -0.00000048   10.22677674
     atom    3 type  2   force =     0.00000000    0.00000000  -17.05736052
     atom    4 type  1   force =     0.00000419   -0.00000242  -10.22004358
     The core correction contribution to forces
     atom    1 type  2   force =    -0.00000000   -0.00000000    0.00008217
     atom    2 type  1   force =    -0.00000015   -0.00000003    0.00002983
     atom    3 type  2   force =     0.00000000   -0.00000000   -0.00003722
     atom    4 type  1   force =     0.00000025   -0.00000015   -0.00001507
     The Hubbard contrib.    to forces
     atom    1 type  2   force =     0.00000000    0.00000000    0.00000000
     atom    2 type  1   force =     0.00000000    0.00000000    0.00000000
     atom    3 type  2   force =     0.00000000    0.00000000    0.00000000
     atom    4 type  1   force =     0.00000000    0.00000000    0.00000000
     The SCF correction term to forces
     atom    1 type  2   force =    -0.00000000   -0.00000000   -0.00000000
     atom    2 type  1   force =    -0.00000000   -0.00000000   -0.00000000
     atom    3 type  2   force =    -0.00000000    0.00000000    0.00003247
     atom    4 type  1   force =     0.00000000   -0.00000000    0.00001706

     Total force =     0.001093     Total SCF correction =     0.000037


     Computing stress (Cartesian axis) and pressure



     -----------------------------------------------
     Non-local corr. energy    =       0.20241734 Ry
     -----------------------------------------------

          total   stress  (Ry/bohr**3)                   (kbar)     P=        4.17
   0.00003592   0.00000000   0.00000000            5.28        0.00        0.00
   0.00000000   0.00003592  -0.00000000            0.00        5.28       -0.00
   0.00000000  -0.00000000   0.00001317            0.00       -0.00        1.94

     kinetic stress (kbar)   4823.73      0.00      0.00
                                0.00   4823.73     -0.00
                                0.00     -0.00   5250.33

     local   stress (kbar)-107287.26      0.00      0.00
                                0.00-107287.26     -0.00
                                0.00     -0.00 107969.35

     nonloc. stress (kbar)   -796.25      0.00      0.00
                                0.00   -796.25      0.00
                                0.00      0.00   -768.90

     hartree stress (kbar)  52190.74     -0.00      0.00
                               -0.00  52190.74      0.00
                                0.00      0.00 -51355.64

     exc-cor stress (kbar)   -484.67     -0.00      0.00
                               -0.00   -484.67     -0.00
                                0.00     -0.00   -532.40

     corecor stress (kbar)   -541.20      0.00     -0.00
                                0.00   -541.20      0.00
                               -0.00      0.00   -529.41

     ewald   stress (kbar)  52095.84     -0.01     -0.00
                               -0.01  52095.83      0.00
                               -0.00      0.00 -60059.17

     hubbard stress (kbar)      0.00      0.00      0.00
                                0.00      0.00      0.00
                                0.00      0.00      0.00

     DFT-D   stress (kbar)      0.00      0.00      0.00
                                0.00      0.00      0.00
                                0.00      0.00      0.00

     XDM     stress (kbar)      0.00      0.00      0.00
                                0.00      0.00      0.00
                                0.00      0.00      0.00

     dft-nl  stress (kbar)      4.34      0.00      0.00
                                0.00      4.34     -0.00
                                0.00     -0.00     27.78

     TS-vdW  stress (kbar)      0.00      0.00      0.00
                                0.00      0.00      0.00
                                0.00      0.00      0.00

     MDB     stress (kbar)      0.00      0.00      0.00
                                0.00      0.00      0.00
                                0.00      0.00      0.00

     3D-RISM stress (kbar)      0.00      0.00      0.00
                                0.00      0.00      0.00
                                0.00      0.00      0.00

     Energy error            =      7.9E-06 Ry
     Gradient error          =      8.2E-04 Ry/Bohr
     Cell gradient error     =      1.9E+00 kbar

     number of scf cycles    =   3
     number of bfgs steps    =   2

     enthalpy           old  =     -53.7020254084 Ry
     enthalpy           new  =     -53.7020333466 Ry

     CASE: enthalpy          _new < enthalpy          _old

     new trust radius        =       0.0047067247 bohr
     new conv_thr            =       0.0000000100 Ry

     new unit-cell volume =    739.17903 a.u.^3 (   109.53503 Ang^3 )
     density =      0.72801 g/cm^3

CELL_PARAMETERS (alat=  4.74000000)
   1.000000000   0.000000000   0.000000000
  -0.500000000   0.866025404   0.000000000
   0.000000000   0.000000000   8.014639326

ATOMIC_POSITIONS (crystal)
N             0.0000000000        0.0000000000        0.0000000000    0   0   0
B             0.3333330000        0.6666666000        0.0000000000    0   0   0
N             0.0000000000        0.0000000000        0.1701281002
B             0.6666670000        0.3333330000        0.1700808540



     Writing config-only to output data dir ./tmp/BN2L_A1B_PBE_vdW.save/
     NEW-OLD atomic charge density approx. for the potential

     negative rho (up, down):  1.260E-07 0.000E+00


     -----------------------------------------------
     Non-local corr. energy    =       0.20258256 Ry
     -----------------------------------------------

     extrapolated charge   16.01384, renormalised to   16.00000

     total cpu time spent up to now is       57.8 secs

     Self-consistent Calculation

     iteration #  1     ecut=   120.00 Ry     beta= 0.70
     Davidson diagonalization with overlap

---- Real-time Memory Report at c_bands before calling an iterative solver
             0 MiB given to the printing process from OS
             0 MiB allocation reported by mallinfo(arena+hblkhd)
             0 MiB available memory on the node where the printing process lives
------------------
     c_bands:  1 eigenvalues not converged
     ethr =  1.00E-06,  avg # of iterations =  8.6

     negative rho (up, down):  2.324E-08 0.000E+00


     -----------------------------------------------
     Non-local corr. energy    =       0.20226254 Ry
     -----------------------------------------------


     total cpu time spent up to now is       59.6 secs

     total energy              =     -53.70176134 Ry
     estimated scf accuracy    <       0.00021642 Ry

     iteration #  2     ecut=   120.00 Ry     beta= 0.70
     Davidson diagonalization with overlap

---- Real-time Memory Report at c_bands before calling an iterative solver
             0 MiB given to the printing process from OS
             0 MiB allocation reported by mallinfo(arena+hblkhd)
             0 MiB available memory on the node where the printing process lives
------------------
     c_bands:  1 eigenvalues not converged
     c_bands:  1 eigenvalues not converged
     ethr =  1.35E-06,  avg # of iterations =  9.1

     negative rho (up, down):  1.577E-08 0.000E+00


     -----------------------------------------------
     Non-local corr. energy    =       0.20234668 Ry
     -----------------------------------------------


     total cpu time spent up to now is       61.5 secs

     total energy              =     -53.70199559 Ry
     estimated scf accuracy    <       0.00086048 Ry

     iteration #  3     ecut=   120.00 Ry     beta= 0.70
     Davidson diagonalization with overlap

---- Real-time Memory Report at c_bands before calling an iterative solver
             0 MiB given to the printing process from OS
             0 MiB allocation reported by mallinfo(arena+hblkhd)
             0 MiB available memory on the node where the printing process lives
------------------
     ethr =  1.35E-06,  avg # of iterations =  3.8

     negative rho (up, down):  1.290E-08 0.000E+00


     -----------------------------------------------
     Non-local corr. energy    =       0.20237859 Ry
     -----------------------------------------------


     total cpu time spent up to now is       62.8 secs

     total energy              =     -53.70205936 Ry
     estimated scf accuracy    <       0.00009988 Ry

     iteration #  4     ecut=   120.00 Ry     beta= 0.70
     Davidson diagonalization with overlap

---- Real-time Memory Report at c_bands before calling an iterative solver
             0 MiB given to the printing process from OS
             0 MiB allocation reported by mallinfo(arena+hblkhd)
[...]

     iteration #  5     ecut=   120.00 Ry     beta= 0.70
     Davidson diagonalization with overlap

---- Real-time Memory Report at c_bands before calling an iterative solver
             0 MiB given to the printing process from OS
             0 MiB allocation reported by mallinfo(arena+hblkhd)
             0 MiB available memory on the node where the printing process lives
------------------
     ethr =  2.73E-05,  avg # of iterations =  2.6


     -----------------------------------------------
     Non-local corr. energy    =       0.20327655 Ry
     -----------------------------------------------


     total cpu time spent up to now is      204.6 secs

     total energy              =     -53.70189616 Ry
     estimated scf accuracy    <       0.00083640 Ry

     iteration #  6     ecut=   120.00 Ry     beta= 0.70
     Davidson diagonalization with overlap

---- Real-time Memory Report at c_bands before calling an iterative solver
             0 MiB given to the printing process from OS
             0 MiB allocation reported by mallinfo(arena+hblkhd)
             0 MiB available memory on the node where the printing process lives
------------------
     ethr =  5.23E-06,  avg # of iterations =  4.7


     -----------------------------------------------
     Non-local corr. energy    =       0.20332710 Ry
     -----------------------------------------------


     total cpu time spent up to now is      206.1 secs

     total energy              =     -53.70217702 Ry
     estimated scf accuracy    <       0.00005054 Ry

     iteration #  7     ecut=   120.00 Ry     beta= 0.70
     Davidson diagonalization with overlap

---- Real-time Memory Report at c_bands before calling an iterative solver
             0 MiB given to the printing process from OS
             0 MiB allocation reported by mallinfo(arena+hblkhd)
             0 MiB available memory on the node where the printing process lives
------------------
     ethr =  3.16E-07,  avg # of iterations =  3.1


     -----------------------------------------------
     Non-local corr. energy    =       0.20333601 Ry
     -----------------------------------------------


     total cpu time spent up to now is      207.4 secs

     total energy              =     -53.70217559 Ry
     estimated scf accuracy    <       0.00001569 Ry

     iteration #  8     ecut=   120.00 Ry     beta= 0.70
     Davidson diagonalization with overlap

---- Real-time Memory Report at c_bands before calling an iterative solver
             0 MiB given to the printing process from OS
             0 MiB allocation reported by mallinfo(arena+hblkhd)
             0 MiB available memory on the node where the printing process lives
------------------
     ethr =  9.80E-08,  avg # of iterations =  2.0


     -----------------------------------------------
     Non-local corr. energy    =       0.20333848 Ry
     -----------------------------------------------


     total cpu time spent up to now is      208.6 secs

     total energy              =     -53.70217755 Ry
     estimated scf accuracy    <       0.00000062 Ry

     iteration #  9     ecut=   120.00 Ry     beta= 0.70
     Davidson diagonalization with overlap

---- Real-time Memory Report at c_bands before calling an iterative solver
             0 MiB given to the printing process from OS
             0 MiB allocation reported by mallinfo(arena+hblkhd)
             0 MiB available memory on the node where the printing process lives
------------------
     ethr =  3.90E-09,  avg # of iterations =  3.3


     -----------------------------------------------
     Non-local corr. energy    =       0.20333973 Ry
     -----------------------------------------------


     total cpu time spent up to now is      210.0 secs

     total energy              =     -53.70217788 Ry
     estimated scf accuracy    <       0.00000001 Ry

     iteration # 10     ecut=   120.00 Ry     beta= 0.70
     Davidson diagonalization with overlap

---- Real-time Memory Report at c_bands before calling an iterative solver
             0 MiB given to the printing process from OS
             0 MiB allocation reported by mallinfo(arena+hblkhd)
             0 MiB available memory on the node where the printing process lives
------------------
     ethr =  8.90E-11,  avg # of iterations =  3.9


     -----------------------------------------------
     Non-local corr. energy    =       0.20334015 Ry
     -----------------------------------------------


     total cpu time spent up to now is      211.6 secs

     End of self-consistent calculation

          k = 0.0000 0.0000 0.0000 ( 16701 PWs)   bands (ev):

   -20.1893 -20.0879  -8.1914  -7.3506  -3.9142  -3.9142  -3.9035  -3.9034
     1.9210   2.4901   3.6330   4.5380

     occupation numbers 
     1.0000   1.0000   1.0000   1.0000   1.0000   1.0000   1.0000   1.0000
     0.0000   0.0000   0.0000   0.0000

          k = 0.0000 0.0962 0.0000 ( 16715 PWs)   bands (ev):

   -20.0557 -19.9558  -8.0084  -7.1756  -4.4716  -4.4503  -4.1707  -4.1584
     2.1540   2.7046   3.8543   4.7328

     occupation numbers 
     1.0000   1.0000   1.0000   1.0000   1.0000   1.0000   1.0000   1.0000
     0.0000   0.0000   0.0000   0.0000

          k = 0.0000 0.1925 0.0000 ( 16700 PWs)   bands (ev):

   -19.6623 -19.5672  -7.4679  -6.6616  -5.8739  -5.8341  -4.7958  -4.7806
     2.8146   3.3294   4.5000   5.2353

     occupation numbers 
     1.0000   1.0000   1.0000   1.0000   1.0000   1.0000   1.0000   1.0000
     0.0000   0.0000   0.0000   0.0000

          k = 0.0000 0.2887 0.0000 ( 16678 PWs)   bands (ev):

   -19.0363 -18.9492  -7.6566  -7.6011  -6.5898  -5.8314  -5.5217  -5.5040
     3.8567   4.2943   5.2609   5.7691

     occupation numbers 
     1.0000   1.0000   1.0000   1.0000   1.0000   1.0000   1.0000   1.0000
     0.0000   0.0000   0.0000   0.0000

          k = 0.0000 0.3849 0.0000 ( 16668 PWs)   bands (ev):

   -18.2466 -18.1707  -9.4257  -9.3569  -6.1460  -6.1266  -5.4611  -4.7814
     4.1737   4.7454   5.2204   6.3329

     occupation numbers 
     1.0000   1.0000   1.0000   1.0000   1.0000   1.0000   1.0000   1.0000
     0.0000   0.0000   0.0000   0.0000

          k = 0.0000 0.4811 0.0000 ( 16686 PWs)   bands (ev):

   -17.4699 -17.4074 -10.8447 -10.7610  -6.5558  -6.5355  -4.2792  -3.7268
     2.5704   3.4562   6.5784   7.3027

     occupation numbers 
     1.0000   1.0000   1.0000   1.0000   1.0000   1.0000   1.0000   1.0000
     0.0000   0.0000   0.0000   0.0000

          k = 0.0000-0.5774 0.0000 ( 16730 PWs)   bands (ev):

   -17.1038 -17.0492 -11.4329 -11.3410  -6.6976  -6.6770  -3.6661  -3.2181
     1.7837   2.7694   7.0489   7.4489

     occupation numbers 
     1.0000   1.0000   1.0000   1.0000   1.0000   1.0000   1.0000   1.0000
     0.0000   0.0000   0.0000   0.0000

          k = 0.0833 0.1443 0.0000 ( 16719 PWs)   bands (ev):

   -19.7921 -19.6954  -7.6465  -6.8306  -5.3845  -5.3505  -4.6780  -4.6630
     2.6015   3.1250   4.2895   5.0870

     occupation numbers 
     1.0000   1.0000   1.0000   1.0000   1.0000   1.0000   1.0000   1.0000
     0.0000   0.0000   0.0000   0.0000

          k = 0.0833 0.2406 0.0000 ( 16689 PWs)   bands (ev):

   -19.2811 -19.1907  -6.9708  -6.8330  -6.8217  -6.1520  -5.4646  -5.4449
     3.4601   3.9310   5.0964   5.5826

     occupation numbers 
     1.0000   1.0000   1.0000   1.0000   1.0000   1.0000   1.0000   1.0000
     0.0000   0.0000   0.0000   0.0000

          k = 0.0833 0.3368 0.0000 ( 16681 PWs)   bands (ev):

   -18.5668 -18.4860  -8.5768  -8.5157  -6.2102  -6.1866  -5.9253  -5.2089
     4.6879   4.8487   4.8764   6.3499

     occupation numbers 
     1.0000   1.0000   1.0000   1.0000   1.0000   1.0000   1.0000   1.0000
     0.0000   0.0000   0.0000   0.0000

          k = 0.0833 0.4330 0.0000 ( 16686 PWs)   bands (ev):

   -17.7597 -17.6915 -10.1597 -10.0845  -6.7604  -6.7345  -4.7380  -4.1236
     3.3396   4.0854   6.1972   7.0619

     occupation numbers 
     1.0000   1.0000   1.0000   1.0000   1.0000   1.0000   1.0000   1.0000
     0.0000   0.0000   0.0000   0.0000

          k = 0.0833 0.5292 0.0000 ( 16701 PWs)   bands (ev):

   -17.1356 -17.0795 -11.2015 -11.1134  -7.0490  -7.0221  -3.7370  -3.2604
     2.0379   2.9461   7.4029   7.9329

     occupation numbers 
     1.0000   1.0000   1.0000   1.0000   1.0000   1.0000   1.0000   1.0000
     0.0000   0.0000   0.0000   0.0000

          k = 0.1667 0.2887 0.0000 ( 16694 PWs)   bands (ev):

   -18.6776 -18.5952  -8.0760  -8.0195  -6.4783  -6.4502  -6.0845  -5.3562
     4.5202   4.7901   5.1244   6.4731

     occupation numbers 
     1.0000   1.0000   1.0000   1.0000   1.0000   1.0000   1.0000   1.0000
     0.0000   0.0000   0.0000   0.0000

          k = 0.1667 0.3849 0.0000 ( 16664 PWs)   bands (ev):

   -17.9242 -17.8527  -9.4232  -9.3571  -7.3426  -7.3068  -4.9932  -4.3467
     3.9722   4.5119   5.9557   6.7858

     occupation numbers 
     1.0000   1.0000   1.0000   1.0000   1.0000   1.0000   1.0000   1.0000
     0.0000   0.0000   0.0000   0.0000

          k = 0.1667 0.4811 0.0000 ( 16687 PWs)   bands (ev):

   -17.1967 -17.1379 -10.6089 -10.5305  -7.8631  -7.8232  -3.8668  -3.3432
     2.6099   3.2902   7.6371   8.3146

     occupation numbers 
     1.0000   1.0000   1.0000   1.0000   1.0000   1.0000   1.0000   1.0000
     0.0000   0.0000   0.0000   0.0000

          k = 0.1667 0.5774 0.0000 ( 16706 PWs)   bands (ev):

   -16.8614 -16.8097 -11.1144 -11.0290  -8.0345  -7.9934  -3.2942  -2.8625
     1.9312   2.6985   8.7144   9.0979

     occupation numbers 
     1.0000   1.0000   1.0000   1.0000   1.0000   1.0000   1.0000   1.0000
     0.0000   0.0000   0.0000   0.0000

          k = 0.2500 0.4330 0.0000 ( 16664 PWs)   bands (ev):

   -17.2261 -17.1660 -10.1488 -10.0792  -8.4245  -8.3778  -3.9268  -3.3836
     2.9606   3.4338   7.5740   8.1668

     occupation numbers 
     1.0000   1.0000   1.0000   1.0000   1.0000   1.0000   1.0000   1.0000
     0.0000   0.0000   0.0000   0.0000

          k = 0.2500 0.5292 0.0000 ( 16685 PWs)   bands (ev):

   -16.7180 -16.6677 -10.6621 -10.5894  -9.0307  -8.9793  -3.0757  -2.6445
     2.1579   2.5899   9.2348   9.3570

     occupation numbers 
     1.0000   1.0000   1.0000   1.0000   1.0000   1.0000   1.0000   1.0000
     0.0000   0.0000   0.0000   0.0000

          k = 0.3333 0.5774 0.0000 ( 16692 PWs)   bands (ev):

   -16.5245 -16.4779 -10.4204 -10.4157  -9.6783  -9.6736  -2.7348  -2.3447
     2.1432   2.1476   9.4668   9.4670

     occupation numbers 
     1.0000   1.0000   1.0000   1.0000   1.0000   1.0000   1.0000   1.0000
     0.0000   0.0000   0.0000   0.0000

     the Fermi energy is    -1.4840 ev

!    total energy              =     -53.70217788 Ry
     estimated scf accuracy    <          6.7E-09 Ry
     smearing contrib. (-TS)   =       0.00000000 Ry
     internal energy E=F+TS    =     -53.70217788 Ry

     The total energy is F=E-TS. E is the sum of the following terms:
     one-electron contribution =    -532.50675501 Ry
     hartree contribution      =     270.38472775 Ry
     xc contribution           =     -17.38561402 Ry
     ewald contribution        =     225.80546340 Ry

     convergence has been achieved in  10 iterations


     -----------------------------------------------
     Non-local corr. energy    =       0.20334015 Ry
     -----------------------------------------------


     Forces acting on atoms (cartesian axes, Ry/au):

     atom    1 type  2   force =     0.00000000   -0.00000000   -0.00050428
     atom    2 type  1   force =    -0.00000000   -0.00000000    0.00013292
     atom    3 type  2   force =     0.00000000    0.00000000   -0.00024018
     atom    4 type  1   force =     0.00000000    0.00000000    0.00061153
     The non-local contrib.  to forces
     atom    1 type  2   force =     0.00000000    0.00000000   -0.00182920
     atom    2 type  1   force =     0.00000000   -0.00000000   -0.00078272
     atom    3 type  2   force =    -0.00000000   -0.00000000   -0.00202193
     atom    4 type  1   force =     0.00000000   -0.00000000    0.00066349
     The ionic contribution  to forces
     atom    1 type  2   force =    -0.00000463   -0.00000089  -16.99164036
     atom    2 type  1   force =     0.00000464    0.00000089  -10.19149358
     atom    3 type  2   force =     0.00000773   -0.00000446   17.00571355
     atom    4 type  1   force =    -0.00000773    0.00000446   10.17742039
     The local contribution  to forces
     atom    1 type  2   force =     0.00000000   -0.00000000   16.99286354
     atom    2 type  1   force =    -0.00000252   -0.00000048   10.19237406
     atom    3 type  2   force =     0.00000000    0.00000000  -17.00391378
     atom    4 type  1   force =     0.00000419   -0.00000242  -10.17746324
     The core correction contribution to forces
     atom    1 type  2   force =    -0.00000000   -0.00000000    0.00003359
     atom    2 type  1   force =    -0.00000015   -0.00000003    0.00000572
     atom    3 type  2   force =     0.00000000   -0.00000000    0.00006478
     atom    4 type  1   force =     0.00000025   -0.00000015    0.00002707
     The Hubbard contrib.    to forces
     atom    1 type  2   force =     0.00000000    0.00000000    0.00000000
     atom    2 type  1   force =     0.00000000    0.00000000    0.00000000
     atom    3 type  2   force =     0.00000000    0.00000000    0.00000000
     atom    4 type  1   force =     0.00000000    0.00000000    0.00000000
     The SCF correction term to forces
     atom    1 type  2   force =    -0.00000000    0.00000000    0.00000000
     atom    2 type  1   force =     0.00000000    0.00000000    0.00000000
     atom    3 type  2   force =    -0.00000000    0.00000000   -0.00008315
     atom    4 type  1   force =    -0.00000000    0.00000000   -0.00003653

     Total force =     0.000657     Total SCF correction =     0.000091
     SCF correction compared to forces is large: reduce conv_thr to get better values


     Computing stress (Cartesian axis) and pressure



     -----------------------------------------------
     Non-local corr. energy    =       0.20334015 Ry
     -----------------------------------------------

          total   stress  (Ry/bohr**3)                   (kbar)     P=        3.78
   0.00003700   0.00000000   0.00000000            5.44        0.00        0.00
   0.00000000   0.00003700   0.00000000            0.00        5.44        0.00
   0.00000000  -0.00000000   0.00000314            0.00       -0.00        0.46

     kinetic stress (kbar)   4738.64      0.00      0.00
                                0.00   4738.64     -0.00
                               -0.00      0.00   5155.63

     local   stress (kbar)-107036.17      0.00      0.00
                                0.00-107036.17     -0.00
                                0.00     -0.00 107706.86

     nonloc. stress (kbar)   -782.26      0.00      0.00
                                0.00   -782.26     -0.00
                                0.00      0.00   -755.06

     hartree stress (kbar)  52084.19      0.00      0.00
                                0.00  52084.19      0.00
                                0.00      0.00 -51264.20

     exc-cor stress (kbar)   -475.98     -0.00      0.00
                               -0.00   -475.98     -0.00
                                0.00     -0.00   -523.12

     corecor stress (kbar)   -531.64      0.00     -0.00
                                0.00   -531.64      0.00
                               -0.00      0.00   -520.03

     ewald   stress (kbar)  52004.42     -0.01     -0.00
                               -0.01  52004.41     -0.00
                               -0.00     -0.00 -59827.13

     hubbard stress (kbar)      0.00      0.00      0.00
                                0.00      0.00      0.00
                                0.00      0.00      0.00

     DFT-D   stress (kbar)      0.00      0.00      0.00
                                0.00      0.00      0.00
                                0.00      0.00      0.00

     XDM     stress (kbar)      0.00      0.00      0.00
                                0.00      0.00      0.00
                                0.00      0.00      0.00

     dft-nl  stress (kbar)      4.24      0.00      0.00
                                0.00      4.24     -0.00
                                0.00     -0.00     27.51

     TS-vdW  stress (kbar)      0.00      0.00      0.00
                                0.00      0.00      0.00
                                0.00      0.00      0.00

     MDB     stress (kbar)      0.00      0.00      0.00
                                0.00      0.00      0.00
                                0.00      0.00      0.00

     3D-RISM stress (kbar)      0.00      0.00      0.00
                                0.00      0.00      0.00
                                0.00      0.00      0.00


     Writing all to output data dir ./tmp/BN2L_A1B_PBE_vdW.save/

     init_run     :     12.18s CPU     12.28s WALL (       2 calls)
     electrons    :    152.44s CPU    149.87s WALL (      10 calls)
     update_pot   :     12.86s CPU     13.10s WALL (       8 calls)
     forces       :     10.45s CPU     10.77s WALL (      10 calls)
     stress       :     27.35s CPU     29.51s WALL (      10 calls)

     Called by init_run:
     wfcinit      :      0.90s CPU      0.91s WALL (       2 calls)
     wfcinit:atom :      0.02s CPU      0.02s WALL (      38 calls)
     wfcinit:wfcr :      0.80s CPU      0.80s WALL (      38 calls)
     potinit      :      9.15s CPU      9.21s WALL (       2 calls)
     hinit0       :      1.66s CPU      1.67s WALL (       2 calls)

     Called by electrons:
     c_bands      :    120.77s CPU    115.45s WALL (     102 calls)
     sum_band     :     13.99s CPU     14.31s WALL (     102 calls)
     v_of_rho     :     26.47s CPU     28.70s WALL (     112 calls)
     v_h          :      0.22s CPU      0.23s WALL (     112 calls)
     v_xc         :     29.57s CPU     32.20s WALL (     132 calls)
     mix_rho      :      0.71s CPU      1.03s WALL (     102 calls)
     vdW_kernel   :      8.05s CPU      8.07s WALL (       1 calls)

     Called by c_bands:
     init_us_2    :      2.78s CPU      2.81s WALL (    4294 calls)
     init_us_2:cp :      2.77s CPU      2.80s WALL (    4294 calls)
     cegterg      :    116.64s CPU    111.18s WALL (    1938 calls)

     Called by sum_band:
     sum_band:wei :      0.00s CPU      0.00s WALL (     102 calls)
     sum_band:loo :     13.58s CPU     13.87s WALL (     102 calls)
     sum_band:buf :      0.54s CPU      0.54s WALL (    1938 calls)
     sum_band:ini :      1.31s CPU      1.33s WALL (    1938 calls)

     Called by *egterg:
     cdiaghg      :      1.94s CPU      1.98s WALL (   10031 calls)
     cegterg:over :      6.66s CPU      6.85s WALL (    8245 calls)
     cegterg:upda :      5.54s CPU      4.52s WALL (    8245 calls)
     cegterg:last :      7.37s CPU      4.85s WALL (    4839 calls)
     h_psi        :     92.09s CPU     89.55s WALL (   10221 calls)
     g_psi        :      0.63s CPU      0.76s WALL (    8245 calls)

     Called by h_psi:
     h_psi:calbec :      8.30s CPU      7.50s WALL (   10221 calls)
     vloc_psi     :     72.96s CPU     74.64s WALL (   10221 calls)
     add_vuspsi   :      9.91s CPU      6.42s WALL (   10221 calls)

     General routines
     calbec       :      9.32s CPU      8.52s WALL (   11171 calls)
     fft          :      8.74s CPU      8.96s WALL (    8408 calls)
     ffts         :      0.10s CPU      0.11s WALL (     102 calls)
     fftw         :     70.99s CPU     72.44s WALL (  165100 calls)

     Parallel routines

     PWSCF        :   3m35.47s CPU   3m35.79s WALL


   This run was terminated on:  17:36:58  12Apr2024            

=------------------------------------------------------------------------------=
   JOB DONE.
=------------------------------------------------------------------------------=
