
     Program PWSCF v.7.2 starts on 17Apr2024 at 19:43:21 

     This program is part of the open-source Quantum ESPRESSO suite
     for quantum simulation of materials; please cite
         "P. Giannozzi et al., J. Phys.:Condens. Matter 21 395502 (2009);
         "P. Giannozzi et al., J. Phys.:Condens. Matter 29 465901 (2017);
         "P. Giannozzi et al., J. Chem. Phys. 152 154105 (2020);
          URL http://www.quantum-espresso.org", 
     in publications or presentations arising from this work. More details at
     http://www.quantum-espresso.org/quote

     Parallel version (MPI & OpenMP), running on       8 processor cores
     Number of MPI processes:                 8
     Threads/MPI process:                     1

     MPI processes distributed on     1 nodes
     0 MiB available memory on the printing compute node when the environment starts

     Waiting for input...
     Reading input from standard input
Warning: card &CELL ignored
Warning: card CELL_DOFREE = 'Z' ignored
Warning: card / ignored

     Current dimensions of program PWSCF are:
     Max number of different atomic species (ntypx) = 10
     Max number of k-points (npk) =  40000
     Max angular momentum in pseudopotentials (lmaxx) =  4

     IMPORTANT: XC functional enforced from input :
     Exchange-correlation= VDW-DF2-B86R
                           (   1   4  26   0   2   0   0)
     Any further DFT definition will be discarded
     Please, verify this is what you really want


     R & G space division:  proc/nbgrp/npool/nimage =       8
     Subspace diagonalization in iterative solution of the eigenvalue problem:
     a serial algorithm will be used


     Parallelization info
     --------------------
     sticks:   dense  smooth     PW     G-vecs:    dense   smooth      PW
     Min          93      93     26                16471    16471    2576
     Max          94      94     27                16510    16510    2601
     Sum         745     745    211               131845   131845   20681

     Using Slab Decomposition



     bravais-lattice index     =            4
     lattice parameter (alat)  =       4.7475  a.u.
     unit-cell volume          =     741.3368 (a.u.)^3
     number of atoms/cell      =            4
     number of atomic types    =            2
     number of electrons       =        16.00
     number of Kohn-Sham states=           12
     kinetic-energy cutoff     =     120.0000  Ry
     charge density cutoff     =     480.0000  Ry
     scf convergence threshold =      1.0E-06
     mixing beta               =       0.7000
     number of iterations used =            8  plain     mixing
     energy convergence thresh.=      1.0E-04
     force convergence thresh. =      1.0E-03
     Exchange-correlation= VDW-DF2-B86R
                           (   1   4  26   0   2   0   0)
     nstep                     =           50


     celldm(1)=   4.747500  celldm(2)=   0.000000  celldm(3)=   8.000000
     celldm(4)=   0.000000  celldm(5)=   0.000000  celldm(6)=   0.000000

     crystal axes: (cart. coord. in units of alat)
               a(1) = (   1.000000   0.000000   0.000000 )  
               a(2) = (  -0.500000   0.866025   0.000000 )  
               a(3) = (   0.000000   0.000000   8.000000 )  

     reciprocal axes: (cart. coord. in units 2 pi/alat)
               b(1) = (  1.000000  0.577350 -0.000000 )  
               b(2) = (  0.000000  1.154701  0.000000 )  
               b(3) = (  0.000000 -0.000000  0.125000 )  


     PseudoPot. # 1 for B  read from file:
     ../../../../Pseudo/PBE/B.upf
     MD5 check sum: 72f82fc31bc892420d0cab7e25c88ab8
     Pseudo is Norm-conserving + core correction, Zval =  3.0
     Generated using ONCVPSP code by D. R. Hamann
     Using radial grid of 1534 points,  4 beta functions with: 
                l(1) =   0
                l(2) =   0
                l(3) =   1
                l(4) =   1

     PseudoPot. # 2 for N  read from file:
     ../../../../Pseudo/PBE/N.upf
     MD5 check sum: d34365f73bb0e2ee98afc20ec3e87676
     Pseudo is Norm-conserving + core correction, Zval =  5.0
     Generated using ONCVPSP code by D. R. Hamann
     Using radial grid of 1058 points,  4 beta functions with: 
                l(1) =   0
                l(2) =   0
                l(3) =   1
                l(4) =   1

     atomic species   valence    mass     pseudopotential
        B              3.00    10.00000     B ( 1.00)
        N              5.00    14.01100     N ( 1.00)

      6 Sym. Ops. (no inversion) found


                                    s                        frac. trans.

      isym =  1     identity                                     

 cryst.   s( 1) = (     1          0          0      )
                  (     0          1          0      )
                  (     0          0          1      )

 cart.    s( 1) = (  1.0000000  0.0000000  0.0000000 )
                  (  0.0000000  1.0000000  0.0000000 )
                  (  0.0000000  0.0000000  1.0000000 )


      isym =  2     120 deg rotation - cryst. axis [0,0,1]       

 cryst.   s( 2) = (     0          1          0      )
                  (    -1         -1          0      )
                  (     0          0          1      )

 cart.    s( 2) = ( -0.5000000 -0.8660254  0.0000000 )
                  (  0.8660254 -0.5000000  0.0000000 )
                  (  0.0000000  0.0000000  1.0000000 )


      isym =  3     120 deg rotation - cryst. axis [0,0,-1]      

 cryst.   s( 3) = (    -1         -1          0      )
                  (     1          0          0      )
                  (     0          0          1      )

 cart.    s( 3) = ( -0.5000000  0.8660254  0.0000000 )
                  ( -0.8660254 -0.5000000  0.0000000 )
                  (  0.0000000  0.0000000  1.0000000 )


      isym =  4     inv. 180 deg rotation - cart. axis [1,0,0]   

 cryst.   s( 4) = (    -1          0          0      )
                  (     1          1          0      )
                  (     0          0          1      )

 cart.    s( 4) = ( -1.0000000  0.0000000  0.0000000 )
                  (  0.0000000  1.0000000  0.0000000 )
                  (  0.0000000  0.0000000  1.0000000 )


      isym =  5     inv. 180 deg rotation - cryst. axis [0,1,0]  

 cryst.   s( 5) = (     1          1          0      )
                  (     0         -1          0      )
                  (     0          0          1      )

 cart.    s( 5) = (  0.5000000  0.8660254  0.0000000 )
                  (  0.8660254 -0.5000000  0.0000000 )
                  (  0.0000000  0.0000000  1.0000000 )


      isym =  6     inv. 180 deg rotation - cryst. axis [1,1,0]  

 cryst.   s( 6) = (     0         -1          0      )
                  (    -1          0          0      )
                  (     0          0          1      )

 cart.    s( 6) = (  0.5000000 -0.8660254  0.0000000 )
                  ( -0.8660254 -0.5000000  0.0000000 )
                  (  0.0000000  0.0000000  1.0000000 )


     point group C_3v (3m)  
     there are  3 classes
     the character table:

       E     2C3   3s_v 
A_1    1.00  1.00  1.00
A_2    1.00  1.00 -1.00
E      2.00 -1.00  0.00

     the symmetry operations in each class and the name of the first element:

     E        1
          identity                                               
     2C3      2    3
          120 deg rotation - cryst. axis [0,0,1]                 
     3s_v     4    5    6
          inv. 180 deg rotation - cart. axis [1,0,0]             

   Cartesian axes

     site n.     atom                  positions (alat units)
         1           N   tau(   1) = (   0.0000000   0.0000000   0.0000000  )
         2           B   tau(   2) = (  -0.0000003   0.5773502   0.0000000  )
         3           N   tau(   3) = (   0.0000000   0.0000000   1.3955585  )
         4           B   tau(   4) = (   0.5000005   0.2886748   1.3955585  )

   Crystallographic axes

     site n.     atom                  positions (cryst. coord.)
         1           N   tau(   1) = (  0.0000000  0.0000000  0.0000000  )
         2           B   tau(   2) = (  0.3333330  0.6666666  0.0000000  )
         3           N   tau(   3) = (  0.0000000  0.0000000  0.1744448  )
         4           B   tau(   4) = (  0.6666670  0.3333330  0.1744448  )

     number of k points=    19  Marzari-Vanderbilt smearing, width (Ry)=  0.0050
                       cart. coord. in units 2pi/alat
        k(    1) = (   0.0000000   0.0000000   0.0000000), wk =   0.0138889
        k(    2) = (   0.0000000   0.0962250   0.0000000), wk =   0.0833333
        k(    3) = (   0.0000000   0.1924501   0.0000000), wk =   0.0833333
        k(    4) = (   0.0000000   0.2886751   0.0000000), wk =   0.0833333
        k(    5) = (   0.0000000   0.3849002   0.0000000), wk =   0.0833333
        k(    6) = (   0.0000000   0.4811252   0.0000000), wk =   0.0833333
        k(    7) = (   0.0000000  -0.5773503   0.0000000), wk =   0.0416667
        k(    8) = (   0.0833333   0.1443376   0.0000000), wk =   0.0833333
        k(    9) = (   0.0833333   0.2405626   0.0000000), wk =   0.1666667
        k(   10) = (   0.0833333   0.3367877   0.0000000), wk =   0.1666667
        k(   11) = (   0.0833333   0.4330127   0.0000000), wk =   0.1666667
        k(   12) = (   0.0833333   0.5292377   0.0000000), wk =   0.1666667
        k(   13) = (   0.1666667   0.2886751   0.0000000), wk =   0.0833333
        k(   14) = (   0.1666667   0.3849002   0.0000000), wk =   0.1666667
        k(   15) = (   0.1666667   0.4811252   0.0000000), wk =   0.1666667
        k(   16) = (   0.1666667   0.5773503   0.0000000), wk =   0.0833333
        k(   17) = (   0.2500000   0.4330127   0.0000000), wk =   0.0833333
        k(   18) = (   0.2500000   0.5292377   0.0000000), wk =   0.1666667
        k(   19) = (   0.3333333   0.5773503   0.0000000), wk =   0.0277778

                       cryst. coord.
        k(    1) = (   0.0000000   0.0000000   0.0000000), wk =   0.0138889
        k(    2) = (   0.0000000   0.0833333   0.0000000), wk =   0.0833333
        k(    3) = (   0.0000000   0.1666667   0.0000000), wk =   0.0833333
        k(    4) = (   0.0000000   0.2500000   0.0000000), wk =   0.0833333
        k(    5) = (   0.0000000   0.3333333   0.0000000), wk =   0.0833333
        k(    6) = (   0.0000000   0.4166667   0.0000000), wk =   0.0833333
        k(    7) = (   0.0000000  -0.5000000   0.0000000), wk =   0.0416667
        k(    8) = (   0.0833333   0.0833333   0.0000000), wk =   0.0833333
        k(    9) = (   0.0833333   0.1666667   0.0000000), wk =   0.1666667
        k(   10) = (   0.0833333   0.2500000   0.0000000), wk =   0.1666667
        k(   11) = (   0.0833333   0.3333333   0.0000000), wk =   0.1666667
        k(   12) = (   0.0833333   0.4166667   0.0000000), wk =   0.1666667
        k(   13) = (   0.1666667   0.1666667   0.0000000), wk =   0.0833333
        k(   14) = (   0.1666667   0.2500000   0.0000000), wk =   0.1666667
        k(   15) = (   0.1666667   0.3333333   0.0000000), wk =   0.1666667
        k(   16) = (   0.1666667   0.4166667   0.0000000), wk =   0.0833333
        k(   17) = (   0.2500000   0.2500000   0.0000000), wk =   0.0833333
        k(   18) = (   0.2500000   0.3333333   0.0000000), wk =   0.1666667
        k(   19) = (   0.3333333   0.3333333   0.0000000), wk =   0.0277778

     Dense  grid:   131845 G-vectors     FFT dimensions: (  36,  36, 270)

     Dynamical RAM for                 wfc:       0.38 MB

     Dynamical RAM for     wfc (w. buffer):       7.53 MB

     Dynamical RAM for           str. fact:       0.50 MB

     Dynamical RAM for           local pot:       0.00 MB

     Dynamical RAM for          nlocal pot:       1.00 MB

     Dynamical RAM for                qrad:       1.00 MB

     Dynamical RAM for          rho,v,vnew:       1.76 MB

     Dynamical RAM for               rhoin:       0.59 MB

     Dynamical RAM for            rho*nmix:       4.02 MB

     Dynamical RAM for           G-vectors:       1.07 MB

     Dynamical RAM for          h,s,v(r/c):       0.03 MB

     Dynamical RAM for          <psi|beta>:       0.01 MB

     Dynamical RAM for                 psi:       0.75 MB

     Dynamical RAM for                hpsi:       0.75 MB

     Dynamical RAM for      wfcinit/wfcrot:       1.01 MB

     Estimated static dynamical RAM per process >      15.90 MB

     Estimated max dynamical RAM per process >      21.46 MB

     Estimated total dynamical RAM >     171.67 MB

     Initial potential from superposition of free atoms

     starting charge      15.9995, renormalised to      16.0000

     negative rho (up, down):  3.986E-06 0.000E+00


     %%%%%%%%%%%%%%%%%%%%%%%%%%%%%%%%%%%%%%%%%%%%%%%%%%%%%%%%%%%%%%%%%%%%%%%%
     %                                                                      %
     % You are using vdW-DF, which was implemented by the Thonhauser group. %
     % Please cite the following two papers that made this development      %
     % possible and the two reviews that describe the various versions:     %
     %                                                                      %
     %   T. Thonhauser et al., PRL 115, 136402 (2015).                      %
     %   T. Thonhauser et al., PRB 76, 125112 (2007).                       %
     %   K. Berland et al., Rep. Prog. Phys. 78, 066501 (2015).             %
     %   D.C. Langreth et al., J. Phys.: Condens. Matter 21, 084203 (2009). %
     %                                                                      %
     % If you are calculating stress with vdW-DF, please also cite:         %
     %                                                                      %
     %   R. Sabatini et al., J. Phys.: Condens. Matter 24, 424209 (2012).   %
     %                                                                      %
     %%%%%%%%%%%%%%%%%%%%%%%%%%%%%%%%%%%%%%%%%%%%%%%%%%%%%%%%%%%%%%%%%%%%%%%%

     %%%%%%%%%%%%%%%%%%%%%%%%%%%%%%%%%%%%%%%%%%%%%%%%%%%%%%%%%%%%%%%%%%%%%%%%
     %                                                                      %
     %  vdW-DF NEWS:                                                        %
     %                                                                      %
     %  * vdW-DF3 is now available. DOI: 10.1021/acs.jctc.0c00471           %
     %    use with input_dft = 'vdW-DF3-opt1' or 'vdW-DF3-opt2'             %
     %                                                                      %
     %  * Unscreened and range-separated hybrid vdW-DF-cx functionals       %
     %    DOI: 10.1063/1.4986522 and 10.1088/1361-648X/ac2ad2               %
     %    use with input_dft = 'vdW-DF-cx0'    and 'vdW-DF-ahcx'            %
     %  * Unscreened and range-separated hybrid vdW-DF2-b86r functionals    %
     %    DOI: 10.1063/1.4986522 and DOI: 10.1103/PhysRevX.12.041003        %
     %    use with input_dft = 'vdW-DF2-br0' and 'vdW-DF2-ahbr'             %
     %                                                                      %
     %%%%%%%%%%%%%%%%%%%%%%%%%%%%%%%%%%%%%%%%%%%%%%%%%%%%%%%%%%%%%%%%%%%%%%%%


     Carrying out vdW-DF run using the following parameters:
     Nqs    =  20  Npoints =  1024  r_max =  100.000
     q_mesh =  0.00001000  0.04494208  0.09755937  0.15916263
               0.23128650  0.31572767  0.41458969  0.53033537
               0.66584808  0.82450364  1.01025438  1.22772762
               1.48234092  1.78043706  2.12944203  2.53805004
               3.01644009  3.57652955  4.23227104  5.00000000


     -----------------------------------------------
     Non-local corr. energy    =       0.17760139 Ry
     -----------------------------------------------

     Starting wfcs are   16 randomized atomic wfcs

     total cpu time spent up to now is        9.3 secs

     Self-consistent Calculation

     iteration #  1     ecut=   120.00 Ry     beta= 0.70
     Davidson diagonalization with overlap

---- Real-time Memory Report at c_bands before calling an iterative solver
             0 MiB given to the printing process from OS
             0 MiB allocation reported by mallinfo(arena+hblkhd)
             0 MiB available memory on the node where the printing process lives
------------------
     ethr =  1.00E-02,  avg # of iterations =  4.3


     -----------------------------------------------
     Non-local corr. energy    =       0.20754089 Ry
     -----------------------------------------------


     total cpu time spent up to now is       10.8 secs

     total energy              =     -53.44172562 Ry
     estimated scf accuracy    <       0.76758798 Ry

     iteration #  2     ecut=   120.00 Ry     beta= 0.70
     Davidson diagonalization with overlap

---- Real-time Memory Report at c_bands before calling an iterative solver
             0 MiB given to the printing process from OS
             0 MiB allocation reported by mallinfo(arena+hblkhd)
             0 MiB available memory on the node where the printing process lives
------------------
     ethr =  4.80E-03,  avg # of iterations =  3.5


     -----------------------------------------------
     Non-local corr. energy    =       0.20137134 Ry
     -----------------------------------------------


     total cpu time spent up to now is       12.1 secs

     total energy              =     -53.64246391 Ry
     estimated scf accuracy    <       0.33831369 Ry

     iteration #  3     ecut=   120.00 Ry     beta= 0.70
     Davidson diagonalization with overlap

---- Real-time Memory Report at c_bands before calling an iterative solver
             0 MiB given to the printing process from OS
             0 MiB allocation reported by mallinfo(arena+hblkhd)
             0 MiB available memory on the node where the printing process lives
------------------
     ethr =  2.11E-03,  avg # of iterations =  1.9


     -----------------------------------------------
     Non-local corr. energy    =       0.20337774 Ry
     -----------------------------------------------


     total cpu time spent up to now is       13.2 secs

     total energy              =     -53.69690514 Ry
     estimated scf accuracy    <       0.00555794 Ry

     iteration #  4     ecut=   120.00 Ry     beta= 0.70
     Davidson diagonalization with overlap

---- Real-time Memory Report at c_bands before calling an iterative solver
             0 MiB given to the printing process from OS
             0 MiB allocation reported by mallinfo(arena+hblkhd)
             0 MiB available memory on the node where the printing process lives
------------------
     ethr =  3.47E-05,  avg # of iterations =  8.9


     -----------------------------------------------
     Non-local corr. energy    =       0.20349300 Ry
     -----------------------------------------------


     total cpu time spent up to now is       16.1 secs

     total energy              =     -53.70177602 Ry
     estimated scf accuracy    <       0.00535374 Ry

     iteration #  5     ecut=   120.00 Ry     beta= 0.70
     Davidson diagonalization with overlap

---- Real-time Memory Report at c_bands before calling an iterative solver
             0 MiB given to the printing process from OS
             0 MiB allocation reported by mallinfo(arena+hblkhd)
             0 MiB available memory on the node where the printing process lives
------------------
     ethr =  3.35E-05,  avg # of iterations =  2.8


     -----------------------------------------------
     Non-local corr. energy    =       0.20346322 Ry
     -----------------------------------------------


     total cpu time spent up to now is       17.5 secs

     total energy              =     -53.70193819 Ry
     estimated scf accuracy    <       0.00093982 Ry

     iteration #  6     ecut=   120.00 Ry     beta= 0.70
     Davidson diagonalization with overlap

---- Real-time Memory Report at c_bands before calling an iterative solver
             0 MiB given to the printing process from OS
             0 MiB allocation reported by mallinfo(arena+hblkhd)
             0 MiB available memory on the node where the printing process lives
------------------
     ethr =  5.87E-06,  avg # of iterations =  3.6

     negative rho (up, down):  3.530E-07 0.000E+00


     -----------------------------------------------
     Non-local corr. energy    =       0.20349357 Ry
     -----------------------------------------------


     total cpu time spent up to now is       18.9 secs

     total energy              =     -53.70222396 Ry
     estimated scf accuracy    <       0.00001582 Ry

     iteration #  7     ecut=   120.00 Ry     beta= 0.70
     Davidson diagonalization with overlap

---- Real-time Memory Report at c_bands before calling an iterative solver
             0 MiB given to the printing process from OS
             0 MiB allocation reported by mallinfo(arena+hblkhd)
             0 MiB available memory on the node where the printing process lives
------------------
     ethr =  9.89E-08,  avg # of iterations =  7.6


     -----------------------------------------------
     Non-local corr. energy    =       0.20350732 Ry
     -----------------------------------------------


     total cpu time spent up to now is       21.2 secs

     total energy              =     -53.70222564 Ry
     estimated scf accuracy    <       0.00002779 Ry

     iteration #  8     ecut=   120.00 Ry     beta= 0.70
     Davidson diagonalization with overlap

---- Real-time Memory Report at c_bands before calling an iterative solver
             0 MiB given to the printing process from OS
             0 MiB allocation reported by mallinfo(arena+hblkhd)
             0 MiB available memory on the node where the printing process lives
------------------
     ethr =  9.89E-08,  avg # of iterations =  2.0


     -----------------------------------------------
     Non-local corr. energy    =       0.20349620 Ry
     -----------------------------------------------


     total cpu time spent up to now is       22.4 secs

     End of self-consistent calculation

          k = 0.0000 0.0000 0.0000 ( 16459 PWs)   bands (ev):

   -20.1118 -20.0116  -8.1156  -7.2807  -3.8697  -3.8696  -3.8601  -3.8601
     1.9686   2.5391   3.6517   4.6019

     occupation numbers 
     1.0000   1.0000   1.0000   1.0000   1.0000   1.0000   1.0000   1.0000
     0.0000   0.0000   0.0000   0.0000

          k = 0.0000 0.0962 0.0000 ( 16505 PWs)   bands (ev):

   -19.9786 -19.8801  -7.9334  -7.1064  -4.4263  -4.4057  -4.1249  -4.1137
     2.2012   2.7529   3.8725   4.7949

     occupation numbers 
     1.0000   1.0000   1.0000   1.0000   1.0000   1.0000   1.0000   1.0000
     0.0000   0.0000   0.0000   0.0000

          k = 0.0000 0.1925 0.0000 ( 16475 PWs)   bands (ev):

   -19.5867 -19.4928  -7.3950  -6.5944  -5.8255  -5.7862  -4.7473  -4.7330
     2.8602   3.3755   4.5170   5.2868

     occupation numbers 
     1.0000   1.0000   1.0000   1.0000   1.0000   1.0000   1.0000   1.0000
     0.0000   0.0000   0.0000   0.0000

          k = 0.0000 0.2887 0.0000 ( 16460 PWs)   bands (ev):

   -18.9632 -18.8772  -7.6032  -7.5483  -6.5204  -5.7676  -5.4699  -5.4530
     3.8987   4.3352   5.2884   5.7854

     occupation numbers 
     1.0000   1.0000   1.0000   1.0000   1.0000   1.0000   1.0000   1.0000
     0.0000   0.0000   0.0000   0.0000

          k = 0.0000 0.3849 0.0000 ( 16432 PWs)   bands (ev):

   -18.1769 -18.1020  -9.3665  -9.2983  -6.0915  -6.0729  -5.3966  -4.7220
     4.2040   4.7709   5.2556   6.3652

     occupation numbers 
     1.0000   1.0000   1.0000   1.0000   1.0000   1.0000   1.0000   1.0000
     0.0000   0.0000   0.0000   0.0000

          k = 0.0000 0.4811 0.0000 ( 16454 PWs)   bands (ev):

   -17.4042 -17.3426 -10.7797 -10.6968  -6.4997  -6.4801  -4.2204  -3.6723
     2.6085   3.4858   6.5957   7.3112

     occupation numbers 
     1.0000   1.0000   1.0000   1.0000   1.0000   1.0000   1.0000   1.0000
     0.0000   0.0000   0.0000   0.0000

          k = 0.0000-0.5774 0.0000 ( 16482 PWs)   bands (ev):

   -17.0405 -16.9867 -11.3650 -11.2739  -6.6409  -6.6211  -3.6108  -3.1661
     1.8262   2.8028   7.0521   7.4479

     occupation numbers 
     1.0000   1.0000   1.0000   1.0000   1.0000   1.0000   1.0000   1.0000
     0.0000   0.0000   0.0000   0.0000

          k = 0.0833 0.1443 0.0000 ( 16509 PWs)   bands (ev):

   -19.7160 -19.6206  -7.5728  -6.7627  -5.3374  -5.3040  -4.6301  -4.6160
     2.6477   3.1719   4.3068   5.1424

     occupation numbers 
     1.0000   1.0000   1.0000   1.0000   1.0000   1.0000   1.0000   1.0000
     0.0000   0.0000   0.0000   0.0000

          k = 0.0833 0.2406 0.0000 ( 16455 PWs)   bands (ev):

   -19.2069 -19.1178  -6.9057  -6.7775  -6.7700  -6.0871  -5.4135  -5.3945
     3.5038   3.9744   5.1153   5.6174

     occupation numbers 
     1.0000   1.0000   1.0000   1.0000   1.0000   1.0000   1.0000   1.0000
     0.0000   0.0000   0.0000   0.0000

          k = 0.0833 0.3368 0.0000 ( 16443 PWs)   bands (ev):

   -18.4956 -18.4159  -8.5205  -8.4600  -6.1562  -6.1333  -5.8588  -5.1478
     4.7263   4.8791   4.9076   6.3775

     occupation numbers 
     1.0000   1.0000   1.0000   1.0000   1.0000   1.0000   1.0000   1.0000
     0.0000   0.0000   0.0000   0.0000

          k = 0.0833 0.4330 0.0000 ( 16446 PWs)   bands (ev):

   -17.6924 -17.6251 -10.0974 -10.0229  -6.7044  -6.6792  -4.6769  -4.0671
     3.3732   4.1115   6.2274   7.0918

     occupation numbers 
     1.0000   1.0000   1.0000   1.0000   1.0000   1.0000   1.0000   1.0000
     0.0000   0.0000   0.0000   0.0000

          k = 0.0833 0.5292 0.0000 ( 16464 PWs)   bands (ev):

   -17.0721 -17.0168 -11.1343 -11.0470  -6.9920  -6.9657  -3.6811  -3.2081
     2.0786   2.9781   7.4117   7.9349

     occupation numbers 
     1.0000   1.0000   1.0000   1.0000   1.0000   1.0000   1.0000   1.0000
     0.0000   0.0000   0.0000   0.0000

          k = 0.1667 0.2887 0.0000 ( 16470 PWs)   bands (ev):

   -18.6059 -18.5246  -8.0214  -7.9654  -6.4238  -6.3963  -6.0172  -5.2944
     4.5605   4.8258   5.1522   6.5006

     occupation numbers 
     1.0000   1.0000   1.0000   1.0000   1.0000   1.0000   1.0000   1.0000
     0.0000   0.0000   0.0000   0.0000

          k = 0.1667 0.3849 0.0000 ( 16422 PWs)   bands (ev):

   -17.8559 -17.7855  -9.3633  -9.2978  -7.2858  -7.2505  -4.9308  -4.2893
     4.0017   4.5355   5.9912   6.8212

     occupation numbers 
     1.0000   1.0000   1.0000   1.0000   1.0000   1.0000   1.0000   1.0000
     0.0000   0.0000   0.0000   0.0000

          k = 0.1667 0.4811 0.0000 ( 16461 PWs)   bands (ev):

   -17.1326 -17.0747 -10.5432 -10.4655  -7.8051  -7.7657  -3.8100  -3.2904
     2.6461   3.3195   7.6629   8.3407

     occupation numbers 
     1.0000   1.0000   1.0000   1.0000   1.0000   1.0000   1.0000   1.0000
     0.0000   0.0000   0.0000   0.0000

          k = 0.1667 0.5774 0.0000 ( 16464 PWs)   bands (ev):

   -16.7996 -16.7487 -11.0459 -10.9612  -7.9760  -7.9355  -3.2406  -2.8121
     1.9714   2.7310   8.7228   9.1042

     occupation numbers 
     1.0000   1.0000   1.0000   1.0000   1.0000   1.0000   1.0000   1.0000
     0.0000   0.0000   0.0000   0.0000

          k = 0.2500 0.4330 0.0000 ( 16426 PWs)   bands (ev):

   -17.1617 -17.1026 -10.0841 -10.0150  -8.3658  -8.3195  -3.8695  -3.3305
     2.9939   3.4621   7.6039   8.1978

     occupation numbers 
     1.0000   1.0000   1.0000   1.0000   1.0000   1.0000   1.0000   1.0000
     0.0000   0.0000   0.0000   0.0000

          k = 0.2500 0.5292 0.0000 ( 16459 PWs)   bands (ev):

   -16.6571 -16.6077 -10.5927 -10.5204  -8.9719  -8.9209  -3.0230  -2.5951
     2.1950   2.6225   9.2571   9.3809

     occupation numbers 
     1.0000   1.0000   1.0000   1.0000   1.0000   1.0000   1.0000   1.0000
     0.0000   0.0000   0.0000   0.0000

          k = 0.3333 0.5774 0.0000 ( 16482 PWs)   bands (ev):

   -16.4651 -16.4193 -10.3426 -10.3425  -9.6216  -9.6214  -2.6840  -2.2968
     2.1811   2.1813   9.4946   9.4946

     occupation numbers 
     1.0000   1.0000   1.0000   1.0000   1.0000   1.0000   1.0000   1.0000
     0.0000   0.0000   0.0000   0.0000

     the Fermi energy is    -1.4377 ev

!    total energy              =     -53.70222871 Ry
     estimated scf accuracy    <       0.00000077 Ry
     smearing contrib. (-TS)   =       0.00000000 Ry
     internal energy E=F+TS    =     -53.70222871 Ry

     The total energy is F=E-TS. E is the sum of the following terms:
     one-electron contribution =    -513.82173357 Ry
     hartree contribution      =     261.06778150 Ry
     xc contribution           =     -17.37216715 Ry
     ewald contribution        =     216.42389051 Ry

     convergence has been achieved in   8 iterations


     -----------------------------------------------
     Non-local corr. energy    =       0.20349620 Ry
     -----------------------------------------------


     Forces acting on atoms (cartesian axes, Ry/au):

     atom    1 type  2   force =     0.00000000    0.00000000   -0.00047832
     atom    2 type  1   force =    -0.00000000   -0.00000000    0.00016606
     atom    3 type  2   force =     0.00000000   -0.00000000    0.00047804
     atom    4 type  1   force =     0.00000000   -0.00000000   -0.00016578
     The non-local contrib.  to forces
     atom    1 type  2   force =    -0.00000000   -0.00000000   -0.00182768
     atom    2 type  1   force =     0.00000000    0.00000000   -0.00077206
     atom    3 type  2   force =    -0.00000000   -0.00000000    0.00182293
     atom    4 type  1   force =     0.00000000   -0.00000000    0.00076120
     The ionic contribution  to forces
     atom    1 type  2   force =    -0.00000462   -0.00000089  -16.77004158
     atom    2 type  1   force =     0.00000463    0.00000089  -10.05854281
     atom    3 type  2   force =     0.00000770   -0.00000445   16.77004173
     atom    4 type  1   force =    -0.00000771    0.00000445   10.05854266
     The local contribution  to forces
     atom    1 type  2   force =     0.00000000   -0.00000000   16.77161602
     atom    2 type  1   force =    -0.00000251   -0.00000048   10.05957768
     atom    3 type  2   force =     0.00000000    0.00000000  -16.77165703
     atom    4 type  1   force =     0.00000418   -0.00000241  -10.05959279
     The core correction contribution to forces
     atom    1 type  2   force =    -0.00000000   -0.00000000    0.00003756
     atom    2 type  1   force =    -0.00000015   -0.00000003    0.00000552
     atom    3 type  2   force =     0.00000000   -0.00000000   -0.00003806
     atom    4 type  1   force =     0.00000025   -0.00000015   -0.00000526
     The Hubbard contrib.    to forces
     atom    1 type  2   force =     0.00000000    0.00000000    0.00000000
     atom    2 type  1   force =     0.00000000    0.00000000    0.00000000
     atom    3 type  2   force =     0.00000000    0.00000000    0.00000000
     atom    4 type  1   force =     0.00000000    0.00000000    0.00000000
     The SCF correction term to forces
     atom    1 type  2   force =     0.00000000    0.00000000   -0.00026537
     atom    2 type  1   force =    -0.00000000   -0.00000000   -0.00010501
     atom    3 type  2   force =    -0.00000000    0.00000000    0.00030572
     atom    4 type  1   force =     0.00000000   -0.00000000    0.00012566

     Total force =     0.000716     Total SCF correction =     0.000437
     SCF correction compared to forces is large: reduce conv_thr to get better values

     BFGS Geometry Optimization
     Energy error            =      0.0E+00 Ry
     Gradient error          =      4.8E-04 Ry/Bohr

     bfgs converged in   1 scf cycles and   0 bfgs steps
     (criteria: energy <  1.0E-04 Ry, force <  1.0E-03 Ry/Bohr)

     End of BFGS Geometry Optimization

     Final energy             =     -53.7022287076 Ry
Begin final coordinates

ATOMIC_POSITIONS (crystal)
N             0.0000000000        0.0000000000        0.0000000000
B             0.3333330000        0.6666666000        0.0000000000
N             0.0000000000        0.0000000000        0.1744448077
B             0.6666670000        0.3333330000        0.1744448070
End final coordinates



     Writing all to output data dir ./tmp/BN2L_A1B_PBE_vdW.save/

     init_run     :      9.21s CPU      9.27s WALL (       1 calls)
     electrons    :     13.33s CPU     13.08s WALL (       1 calls)
     forces       :      0.49s CPU      0.52s WALL (       1 calls)

     Called by init_run:
     wfcinit      :      0.41s CPU      0.41s WALL (       1 calls)
     wfcinit:atom :      0.01s CPU      0.01s WALL (      19 calls)
     wfcinit:wfcr :      0.36s CPU      0.36s WALL (      19 calls)
     potinit      :      8.17s CPU      8.20s WALL (       1 calls)
     hinit0       :      0.41s CPU      0.44s WALL (       1 calls)

     Called by electrons:
     c_bands      :     10.58s CPU     10.07s WALL (       8 calls)
     sum_band     :      1.28s CPU      1.33s WALL (       8 calls)
     v_of_rho     :      9.49s CPU      9.69s WALL (       9 calls)
     v_h          :      0.02s CPU      0.02s WALL (       9 calls)
     v_xc         :      9.64s CPU      9.86s WALL (      10 calls)
     mix_rho      :      0.05s CPU      0.08s WALL (       8 calls)
     vdW_kernel   :      7.96s CPU      7.97s WALL (       1 calls)

     Called by c_bands:
     init_us_2    :      0.23s CPU      0.24s WALL (     342 calls)
     init_us_2:cp :      0.23s CPU      0.24s WALL (     342 calls)
     cegterg      :     10.26s CPU      9.74s WALL (     152 calls)

     Called by sum_band:
     sum_band:wei :      0.00s CPU      0.00s WALL (       8 calls)
     sum_band:loo :      1.24s CPU      1.29s WALL (       8 calls)
     sum_band:buf :      0.04s CPU      0.04s WALL (     152 calls)
     sum_band:ini :      0.11s CPU      0.11s WALL (     152 calls)

     Called by *egterg:
     cdiaghg      :      0.15s CPU      0.16s WALL (     811 calls)
     cegterg:over :      0.58s CPU      0.59s WALL (     659 calls)
     cegterg:upda :      0.47s CPU      0.36s WALL (     659 calls)
     cegterg:last :      0.71s CPU      0.48s WALL (     431 calls)
     h_psi        :      8.36s CPU      8.12s WALL (     830 calls)
     g_psi        :      0.06s CPU      0.07s WALL (     659 calls)

     Called by h_psi:
     h_psi:calbec :      0.74s CPU      0.68s WALL (     830 calls)
     vloc_psi     :      6.63s CPU      6.79s WALL (     830 calls)
     add_vuspsi   :      0.91s CPU      0.57s WALL (     830 calls)

     General routines
     calbec       :      0.81s CPU      0.74s WALL (     906 calls)
     fft          :      0.92s CPU      0.94s WALL (     600 calls)
     ffts         :      0.01s CPU      0.01s WALL (       8 calls)
     fftw         :      6.44s CPU      6.60s WALL (   14144 calls)

     Parallel routines

     PWSCF        :     23.16s CPU     23.06s WALL


   This run was terminated on:  19:43:44  17Apr2024            

=------------------------------------------------------------------------------=
   JOB DONE.
=------------------------------------------------------------------------------=
