
     Program PWSCF v.7.2 starts on 17Apr2024 at 18:27:59 

     This program is part of the open-source Quantum ESPRESSO suite
     for quantum simulation of materials; please cite
         "P. Giannozzi et al., J. Phys.:Condens. Matter 21 395502 (2009);
         "P. Giannozzi et al., J. Phys.:Condens. Matter 29 465901 (2017);
         "P. Giannozzi et al., J. Chem. Phys. 152 154105 (2020);
          URL http://www.quantum-espresso.org", 
     in publications or presentations arising from this work. More details at
     http://www.quantum-espresso.org/quote

     Parallel version (MPI & OpenMP), running on       8 processor cores
     Number of MPI processes:                 8
     Threads/MPI process:                     1

     MPI processes distributed on     1 nodes
     0 MiB available memory on the printing compute node when the environment starts

     Waiting for input...
     Reading input from standard input

     Current dimensions of program PWSCF are:
     Max number of different atomic species (ntypx) = 10
     Max number of k-points (npk) =  40000
     Max angular momentum in pseudopotentials (lmaxx) =  4

     IMPORTANT: XC functional enforced from input :
     Exchange-correlation= VDW-DF2-B86R
                           (   1   4  26   0   2   0   0)
     Any further DFT definition will be discarded
     Please, verify this is what you really want


     R & G space division:  proc/nbgrp/npool/nimage =       8
     Subspace diagonalization in iterative solution of the eigenvalue problem:
     a serial algorithm will be used


     Parallelization info
     --------------------
     sticks:   dense  smooth     PW     G-vecs:    dense   smooth      PW
     Min          93      93     26                16469    16469    2576
     Max          94      94     27                16508    16508    2601
     Sum         745     745    211               131821   131821   20681

     Using Slab Decomposition



     bravais-lattice index     =            4
     lattice parameter (alat)  =       4.7470  a.u.
     unit-cell volume          =     741.1026 (a.u.)^3
     number of atoms/cell      =            4
     number of atomic types    =            2
     number of electrons       =        16.00
     number of Kohn-Sham states=           12
     kinetic-energy cutoff     =     120.0000  Ry
     charge density cutoff     =     480.0000  Ry
     scf convergence threshold =      1.0E-06
     mixing beta               =       0.7000
     number of iterations used =            8  plain     mixing
     energy convergence thresh.=      1.0E-04
     force convergence thresh. =      1.0E-03
     press convergence thresh. =      5.0E-01
     Exchange-correlation= VDW-DF2-B86R
                           (   1   4  26   0   2   0   0)
     nstep                     =           50


     celldm(1)=   4.747000  celldm(2)=   0.000000  celldm(3)=   8.000000
     celldm(4)=   0.000000  celldm(5)=   0.000000  celldm(6)=   0.000000

     crystal axes: (cart. coord. in units of alat)
               a(1) = (   1.000000   0.000000   0.000000 )  
               a(2) = (  -0.500000   0.866025   0.000000 )  
               a(3) = (   0.000000   0.000000   8.000000 )  

     reciprocal axes: (cart. coord. in units 2 pi/alat)
               b(1) = (  1.000000  0.577350 -0.000000 )  
               b(2) = (  0.000000  1.154701  0.000000 )  
               b(3) = (  0.000000 -0.000000  0.125000 )  


     PseudoPot. # 1 for B  read from file:
     ../../../../Pseudo/PBE/B.upf
     MD5 check sum: 72f82fc31bc892420d0cab7e25c88ab8
     Pseudo is Norm-conserving + core correction, Zval =  3.0
     Generated using ONCVPSP code by D. R. Hamann
     Using radial grid of 1534 points,  4 beta functions with: 
                l(1) =   0
                l(2) =   0
                l(3) =   1
                l(4) =   1

     PseudoPot. # 2 for N  read from file:
     ../../../../Pseudo/PBE/N.upf
     MD5 check sum: d34365f73bb0e2ee98afc20ec3e87676
     Pseudo is Norm-conserving + core correction, Zval =  5.0
     Generated using ONCVPSP code by D. R. Hamann
     Using radial grid of 1058 points,  4 beta functions with: 
                l(1) =   0
                l(2) =   0
                l(3) =   1
                l(4) =   1

     atomic species   valence    mass     pseudopotential
        B              3.00    10.00000     B ( 1.00)
        N              5.00    14.01100     N ( 1.00)

      6 Sym. Ops. (no inversion) found


                                    s                        frac. trans.

      isym =  1     identity                                     

 cryst.   s( 1) = (     1          0          0      )
                  (     0          1          0      )
                  (     0          0          1      )

 cart.    s( 1) = (  1.0000000  0.0000000  0.0000000 )
                  (  0.0000000  1.0000000  0.0000000 )
                  (  0.0000000  0.0000000  1.0000000 )


      isym =  2     120 deg rotation - cryst. axis [0,0,1]       

 cryst.   s( 2) = (     0          1          0      )
                  (    -1         -1          0      )
                  (     0          0          1      )

 cart.    s( 2) = ( -0.5000000 -0.8660254  0.0000000 )
                  (  0.8660254 -0.5000000  0.0000000 )
                  (  0.0000000  0.0000000  1.0000000 )


      isym =  3     120 deg rotation - cryst. axis [0,0,-1]      

 cryst.   s( 3) = (    -1         -1          0      )
                  (     1          0          0      )
                  (     0          0          1      )

 cart.    s( 3) = ( -0.5000000  0.8660254  0.0000000 )
                  ( -0.8660254 -0.5000000  0.0000000 )
                  (  0.0000000  0.0000000  1.0000000 )


      isym =  4     inv. 180 deg rotation - cart. axis [1,0,0]   

 cryst.   s( 4) = (    -1          0          0      )
                  (     1          1          0      )
                  (     0          0          1      )

 cart.    s( 4) = ( -1.0000000  0.0000000  0.0000000 )
                  (  0.0000000  1.0000000  0.0000000 )
                  (  0.0000000  0.0000000  1.0000000 )


      isym =  5     inv. 180 deg rotation - cryst. axis [0,1,0]  

 cryst.   s( 5) = (     1          1          0      )
                  (     0         -1          0      )
                  (     0          0          1      )

 cart.    s( 5) = (  0.5000000  0.8660254  0.0000000 )
                  (  0.8660254 -0.5000000  0.0000000 )
                  (  0.0000000  0.0000000  1.0000000 )


      isym =  6     inv. 180 deg rotation - cryst. axis [1,1,0]  

 cryst.   s( 6) = (     0         -1          0      )
                  (    -1          0          0      )
                  (     0          0          1      )

 cart.    s( 6) = (  0.5000000 -0.8660254  0.0000000 )
                  ( -0.8660254 -0.5000000  0.0000000 )
                  (  0.0000000  0.0000000  1.0000000 )


     point group C_3v (3m)  
     there are  3 classes
     the character table:

       E     2C3   3s_v 
A_1    1.00  1.00  1.00
A_2    1.00  1.00 -1.00
E      2.00 -1.00  0.00

     the symmetry operations in each class and the name of the first element:

     E        1
          identity                                               
     2C3      2    3
          120 deg rotation - cryst. axis [0,0,1]                 
     3s_v     4    5    6
          inv. 180 deg rotation - cart. axis [1,0,0]             

   Cartesian axes

     site n.     atom                  positions (alat units)
         1           N   tau(   1) = (   0.0000000   0.0000000   0.0000000  )
         2           B   tau(   2) = (  -0.0000003   0.5773502   0.0000000  )
         3           N   tau(   3) = (   0.0000000   0.0000000   1.3956560  )
         4           B   tau(   4) = (   0.5000005   0.2886748   1.3951200  )

   Crystallographic axes

     site n.     atom                  positions (cryst. coord.)
         1           N   tau(   1) = (  0.0000000  0.0000000  0.0000000  )
         2           B   tau(   2) = (  0.3333330  0.6666666  0.0000000  )
         3           N   tau(   3) = (  0.0000000  0.0000000  0.1744570  )
         4           B   tau(   4) = (  0.6666670  0.3333330  0.1743900  )

     number of k points=    19  Marzari-Vanderbilt smearing, width (Ry)=  0.0050
                       cart. coord. in units 2pi/alat
        k(    1) = (   0.0000000   0.0000000   0.0000000), wk =   0.0138889
        k(    2) = (   0.0000000   0.0962250   0.0000000), wk =   0.0833333
        k(    3) = (   0.0000000   0.1924501   0.0000000), wk =   0.0833333
        k(    4) = (   0.0000000   0.2886751   0.0000000), wk =   0.0833333
        k(    5) = (   0.0000000   0.3849002   0.0000000), wk =   0.0833333
        k(    6) = (   0.0000000   0.4811252   0.0000000), wk =   0.0833333
        k(    7) = (   0.0000000  -0.5773503   0.0000000), wk =   0.0416667
        k(    8) = (   0.0833333   0.1443376   0.0000000), wk =   0.0833333
        k(    9) = (   0.0833333   0.2405626   0.0000000), wk =   0.1666667
        k(   10) = (   0.0833333   0.3367877   0.0000000), wk =   0.1666667
        k(   11) = (   0.0833333   0.4330127   0.0000000), wk =   0.1666667
        k(   12) = (   0.0833333   0.5292377   0.0000000), wk =   0.1666667
        k(   13) = (   0.1666667   0.2886751   0.0000000), wk =   0.0833333
        k(   14) = (   0.1666667   0.3849002   0.0000000), wk =   0.1666667
        k(   15) = (   0.1666667   0.4811252   0.0000000), wk =   0.1666667
        k(   16) = (   0.1666667   0.5773503   0.0000000), wk =   0.0833333
        k(   17) = (   0.2500000   0.4330127   0.0000000), wk =   0.0833333
        k(   18) = (   0.2500000   0.5292377   0.0000000), wk =   0.1666667
        k(   19) = (   0.3333333   0.5773503   0.0000000), wk =   0.0277778

                       cryst. coord.
        k(    1) = (   0.0000000   0.0000000   0.0000000), wk =   0.0138889
        k(    2) = (   0.0000000   0.0833333   0.0000000), wk =   0.0833333
        k(    3) = (   0.0000000   0.1666667   0.0000000), wk =   0.0833333
        k(    4) = (   0.0000000   0.2500000   0.0000000), wk =   0.0833333
        k(    5) = (   0.0000000   0.3333333   0.0000000), wk =   0.0833333
        k(    6) = (   0.0000000   0.4166667   0.0000000), wk =   0.0833333
        k(    7) = (   0.0000000  -0.5000000   0.0000000), wk =   0.0416667
        k(    8) = (   0.0833333   0.0833333   0.0000000), wk =   0.0833333
        k(    9) = (   0.0833333   0.1666667   0.0000000), wk =   0.1666667
        k(   10) = (   0.0833333   0.2500000   0.0000000), wk =   0.1666667
        k(   11) = (   0.0833333   0.3333333   0.0000000), wk =   0.1666667
        k(   12) = (   0.0833333   0.4166667   0.0000000), wk =   0.1666667
        k(   13) = (   0.1666667   0.1666667   0.0000000), wk =   0.0833333
        k(   14) = (   0.1666667   0.2500000   0.0000000), wk =   0.1666667
        k(   15) = (   0.1666667   0.3333333   0.0000000), wk =   0.1666667
        k(   16) = (   0.1666667   0.4166667   0.0000000), wk =   0.0833333
        k(   17) = (   0.2500000   0.2500000   0.0000000), wk =   0.0833333
        k(   18) = (   0.2500000   0.3333333   0.0000000), wk =   0.1666667
        k(   19) = (   0.3333333   0.3333333   0.0000000), wk =   0.0277778

     Dense  grid:   131821 G-vectors     FFT dimensions: (  36,  36, 270)

     Dynamical RAM for                 wfc:       0.38 MB

     Dynamical RAM for     wfc (w. buffer):       7.53 MB

     Dynamical RAM for           str. fact:       0.50 MB

     Dynamical RAM for           local pot:       0.00 MB

     Dynamical RAM for          nlocal pot:       1.00 MB

     Dynamical RAM for                qrad:       2.01 MB

     Dynamical RAM for          rho,v,vnew:       1.76 MB

     Dynamical RAM for               rhoin:       0.59 MB

     Dynamical RAM for            rho*nmix:       4.02 MB

     Dynamical RAM for           G-vectors:       1.07 MB

     Dynamical RAM for          h,s,v(r/c):       0.03 MB

     Dynamical RAM for          <psi|beta>:       0.01 MB

     Dynamical RAM for                 psi:       0.75 MB

     Dynamical RAM for                hpsi:       0.75 MB

     Dynamical RAM for      wfcinit/wfcrot:       1.01 MB

     Estimated static dynamical RAM per process >      16.90 MB

     Estimated max dynamical RAM per process >      22.46 MB

     Estimated total dynamical RAM >     179.68 MB

     Initial potential from superposition of free atoms

     starting charge      15.9995, renormalised to      16.0000

     negative rho (up, down):  3.977E-06 0.000E+00


     %%%%%%%%%%%%%%%%%%%%%%%%%%%%%%%%%%%%%%%%%%%%%%%%%%%%%%%%%%%%%%%%%%%%%%%%
     %                                                                      %
     % You are using vdW-DF, which was implemented by the Thonhauser group. %
     % Please cite the following two papers that made this development      %
     % possible and the two reviews that describe the various versions:     %
     %                                                                      %
     %   T. Thonhauser et al., PRL 115, 136402 (2015).                      %
     %   T. Thonhauser et al., PRB 76, 125112 (2007).                       %
     %   K. Berland et al., Rep. Prog. Phys. 78, 066501 (2015).             %
     %   D.C. Langreth et al., J. Phys.: Condens. Matter 21, 084203 (2009). %
     %                                                                      %
     % If you are calculating stress with vdW-DF, please also cite:         %
     %                                                                      %
     %   R. Sabatini et al., J. Phys.: Condens. Matter 24, 424209 (2012).   %
     %                                                                      %
     %%%%%%%%%%%%%%%%%%%%%%%%%%%%%%%%%%%%%%%%%%%%%%%%%%%%%%%%%%%%%%%%%%%%%%%%

     %%%%%%%%%%%%%%%%%%%%%%%%%%%%%%%%%%%%%%%%%%%%%%%%%%%%%%%%%%%%%%%%%%%%%%%%
     %                                                                      %
     %  vdW-DF NEWS:                                                        %
     %                                                                      %
     %  * vdW-DF3 is now available. DOI: 10.1021/acs.jctc.0c00471           %
     %    use with input_dft = 'vdW-DF3-opt1' or 'vdW-DF3-opt2'             %
     %                                                                      %
     %  * Unscreened and range-separated hybrid vdW-DF-cx functionals       %
     %    DOI: 10.1063/1.4986522 and 10.1088/1361-648X/ac2ad2               %
     %    use with input_dft = 'vdW-DF-cx0'    and 'vdW-DF-ahcx'            %
     %  * Unscreened and range-separated hybrid vdW-DF2-b86r functionals    %
     %    DOI: 10.1063/1.4986522 and DOI: 10.1103/PhysRevX.12.041003        %
     %    use with input_dft = 'vdW-DF2-br0' and 'vdW-DF2-ahbr'             %
     %                                                                      %
     %%%%%%%%%%%%%%%%%%%%%%%%%%%%%%%%%%%%%%%%%%%%%%%%%%%%%%%%%%%%%%%%%%%%%%%%


     Carrying out vdW-DF run using the following parameters:
     Nqs    =  20  Npoints =  1024  r_max =  100.000
     q_mesh =  0.00001000  0.04494208  0.09755937  0.15916263
               0.23128650  0.31572767  0.41458969  0.53033537
               0.66584808  0.82450364  1.01025438  1.22772762
               1.48234092  1.78043706  2.12944203  2.53805004
               3.01644009  3.57652955  4.23227104  5.00000000


     -----------------------------------------------
     Non-local corr. energy    =       0.17757488 Ry
     -----------------------------------------------

     Starting wfcs are   16 randomized atomic wfcs

     total cpu time spent up to now is       10.9 secs

     Self-consistent Calculation

     iteration #  1     ecut=   120.00 Ry     beta= 0.70
     Davidson diagonalization with overlap

---- Real-time Memory Report at c_bands before calling an iterative solver
             0 MiB given to the printing process from OS
             0 MiB allocation reported by mallinfo(arena+hblkhd)
             0 MiB available memory on the node where the printing process lives
------------------
     ethr =  1.00E-02,  avg # of iterations =  4.2


     -----------------------------------------------
     Non-local corr. energy    =       0.20752923 Ry
     -----------------------------------------------


     total cpu time spent up to now is       12.4 secs

     total energy              =     -53.44149551 Ry
     estimated scf accuracy    <       0.76808652 Ry

     iteration #  2     ecut=   120.00 Ry     beta= 0.70
     Davidson diagonalization with overlap

---- Real-time Memory Report at c_bands before calling an iterative solver
             0 MiB given to the printing process from OS
             0 MiB allocation reported by mallinfo(arena+hblkhd)
             0 MiB available memory on the node where the printing process lives
------------------
     ethr =  4.80E-03,  avg # of iterations =  3.5


     -----------------------------------------------
     Non-local corr. energy    =       0.20135559 Ry
     -----------------------------------------------


     total cpu time spent up to now is       13.9 secs

     total energy              =     -53.64249809 Ry
     estimated scf accuracy    <       0.33840346 Ry

     iteration #  3     ecut=   120.00 Ry     beta= 0.70
     Davidson diagonalization with overlap

---- Real-time Memory Report at c_bands before calling an iterative solver
             0 MiB given to the printing process from OS
             0 MiB allocation reported by mallinfo(arena+hblkhd)
             0 MiB available memory on the node where the printing process lives
------------------
     ethr =  2.12E-03,  avg # of iterations =  1.8


     -----------------------------------------------
     Non-local corr. energy    =       0.20337126 Ry
     -----------------------------------------------


     total cpu time spent up to now is       14.9 secs

     total energy              =     -53.69690307 Ry
     estimated scf accuracy    <       0.00552416 Ry

     iteration #  4     ecut=   120.00 Ry     beta= 0.70
     Davidson diagonalization with overlap

---- Real-time Memory Report at c_bands before calling an iterative solver
             0 MiB given to the printing process from OS
             0 MiB allocation reported by mallinfo(arena+hblkhd)
             0 MiB available memory on the node where the printing process lives
------------------
     ethr =  3.45E-05,  avg # of iterations =  9.2


     -----------------------------------------------
     Non-local corr. energy    =       0.20347672 Ry
     -----------------------------------------------


     total cpu time spent up to now is       17.0 secs

     total energy              =     -53.70175947 Ry
     estimated scf accuracy    <       0.00526046 Ry

     iteration #  5     ecut=   120.00 Ry     beta= 0.70
     Davidson diagonalization with overlap

---- Real-time Memory Report at c_bands before calling an iterative solver
             0 MiB given to the printing process from OS
             0 MiB allocation reported by mallinfo(arena+hblkhd)
             0 MiB available memory on the node where the printing process lives
------------------
     ethr =  3.29E-05,  avg # of iterations =  2.1


     -----------------------------------------------
     Non-local corr. energy    =       0.20344605 Ry
     -----------------------------------------------


     total cpu time spent up to now is       18.1 secs

     total energy              =     -53.70194695 Ry
     estimated scf accuracy    <       0.00087463 Ry

     iteration #  6     ecut=   120.00 Ry     beta= 0.70
     Davidson diagonalization with overlap

---- Real-time Memory Report at c_bands before calling an iterative solver
             0 MiB given to the printing process from OS
             0 MiB allocation reported by mallinfo(arena+hblkhd)
             0 MiB available memory on the node where the printing process lives
------------------
     ethr =  5.47E-06,  avg # of iterations =  4.6

     negative rho (up, down):  3.822E-07 0.000E+00


     -----------------------------------------------
     Non-local corr. energy    =       0.20347485 Ry
     -----------------------------------------------


     total cpu time spent up to now is       19.6 secs

     total energy              =     -53.70222331 Ry
     estimated scf accuracy    <       0.00001659 Ry

     iteration #  7     ecut=   120.00 Ry     beta= 0.70
     Davidson diagonalization with overlap

---- Real-time Memory Report at c_bands before calling an iterative solver
             0 MiB given to the printing process from OS
             0 MiB allocation reported by mallinfo(arena+hblkhd)
             0 MiB available memory on the node where the printing process lives
------------------
     c_bands:  1 eigenvalues not converged
     ethr =  1.04E-07,  avg # of iterations =  7.1


     -----------------------------------------------
     Non-local corr. energy    =       0.20348885 Ry
     -----------------------------------------------


     total cpu time spent up to now is       21.4 secs

     total energy              =     -53.70222575 Ry
     estimated scf accuracy    <       0.00002827 Ry

     iteration #  8     ecut=   120.00 Ry     beta= 0.70
     Davidson diagonalization with overlap

---- Real-time Memory Report at c_bands before calling an iterative solver
             0 MiB given to the printing process from OS
             0 MiB allocation reported by mallinfo(arena+hblkhd)
             0 MiB available memory on the node where the printing process lives
------------------
     ethr =  1.04E-07,  avg # of iterations =  2.4


     -----------------------------------------------
     Non-local corr. energy    =       0.20349179 Ry
     -----------------------------------------------


     total cpu time spent up to now is       22.6 secs

     total energy              =     -53.70222773 Ry
     estimated scf accuracy    <       0.00000183 Ry

     iteration #  9     ecut=   120.00 Ry     beta= 0.70
     Davidson diagonalization with overlap

---- Real-time Memory Report at c_bands before calling an iterative solver
             0 MiB given to the printing process from OS
             0 MiB allocation reported by mallinfo(arena+hblkhd)
             0 MiB available memory on the node where the printing process lives
------------------
     ethr =  1.14E-08,  avg # of iterations =  3.4


     -----------------------------------------------
     Non-local corr. energy    =       0.20349670 Ry
     -----------------------------------------------


     total cpu time spent up to now is       24.2 secs

     End of self-consistent calculation

          k = 0.0000 0.0000 0.0000 ( 16459 PWs)   bands (ev):

   -20.1145 -20.0141  -8.1182  -7.2822  -3.8711  -3.8711  -3.8602  -3.8602
     1.9704   2.5425   3.6640   4.6059

     occupation numbers 
     1.0000   1.0000   1.0000   1.0000   1.0000   1.0000   1.0000   1.0000
     0.0000   0.0000   0.0000   0.0000

          k = 0.0000 0.0962 0.0000 ( 16505 PWs)   bands (ev):

   -19.9814 -19.8825  -7.9360  -7.1079  -4.4274  -4.4061  -4.1263  -4.1139
     2.2030   2.7564   3.8848   4.7983

     occupation numbers 
     1.0000   1.0000   1.0000   1.0000   1.0000   1.0000   1.0000   1.0000
     0.0000   0.0000   0.0000   0.0000

          k = 0.0000 0.1925 0.0000 ( 16455 PWs)   bands (ev):

   -19.5894 -19.4952  -7.3975  -6.5958  -5.8265  -5.7868  -4.7486  -4.7334
     2.8621   3.3791   4.5284   5.2904

     occupation numbers 
     1.0000   1.0000   1.0000   1.0000   1.0000   1.0000   1.0000   1.0000
     0.0000   0.0000   0.0000   0.0000

          k = 0.0000 0.2887 0.0000 ( 16460 PWs)   bands (ev):

   -18.9657 -18.8795  -7.6043  -7.5491  -6.5228  -5.7689  -5.4713  -5.4536
     3.9008   4.3394   5.2877   5.7990

     occupation numbers 
     1.0000   1.0000   1.0000   1.0000   1.0000   1.0000   1.0000   1.0000
     0.0000   0.0000   0.0000   0.0000

          k = 0.0000 0.3849 0.0000 ( 16426 PWs)   bands (ev):

   -18.1793 -18.1041  -9.3678  -9.2993  -6.0930  -6.0737  -5.3987  -4.7233
     4.2036   4.7752   5.2577   6.3676

     occupation numbers 
     1.0000   1.0000   1.0000   1.0000   1.0000   1.0000   1.0000   1.0000
     0.0000   0.0000   0.0000   0.0000

          k = 0.0000 0.4811 0.0000 ( 16454 PWs)   bands (ev):

   -17.4065 -17.3446 -10.7812 -10.6980  -6.5012  -6.4809  -4.2222  -3.6736
     2.6084   3.4890   6.5983   7.3150

     occupation numbers 
     1.0000   1.0000   1.0000   1.0000   1.0000   1.0000   1.0000   1.0000
     0.0000   0.0000   0.0000   0.0000

          k = 0.0000-0.5774 0.0000 ( 16482 PWs)   bands (ev):

   -17.0427 -16.9886 -11.3666 -11.2753  -6.6425  -6.6219  -3.6125  -3.1676
     1.8262   2.8058   7.0547   7.4521

     occupation numbers 
     1.0000   1.0000   1.0000   1.0000   1.0000   1.0000   1.0000   1.0000
     0.0000   0.0000   0.0000   0.0000

          k = 0.0833 0.1443 0.0000 ( 16501 PWs)   bands (ev):

   -19.7187 -19.6230  -7.5753  -6.7642  -5.3384  -5.3045  -4.6314  -4.6163
     2.6496   3.1755   4.3187   5.1463

     occupation numbers 
     1.0000   1.0000   1.0000   1.0000   1.0000   1.0000   1.0000   1.0000
     0.0000   0.0000   0.0000   0.0000

          k = 0.0833 0.2406 0.0000 ( 16445 PWs)   bands (ev):

   -19.2095 -19.1201  -6.9073  -6.7794  -6.7708  -6.0883  -5.4148  -5.3951
     3.5058   3.9783   5.1228   5.6232

     occupation numbers 
     1.0000   1.0000   1.0000   1.0000   1.0000   1.0000   1.0000   1.0000
     0.0000   0.0000   0.0000   0.0000

          k = 0.0833 0.3368 0.0000 ( 16443 PWs)   bands (ev):

   -18.4981 -18.4181  -8.5217  -8.4609  -6.1576  -6.1340  -5.8610  -5.1490
     4.7294   4.8803   4.9089   6.3801

     occupation numbers 
     1.0000   1.0000   1.0000   1.0000   1.0000   1.0000   1.0000   1.0000
     0.0000   0.0000   0.0000   0.0000

          k = 0.0833 0.4330 0.0000 ( 16438 PWs)   bands (ev):

   -17.6947 -17.6271 -10.0988 -10.0240  -6.7058  -6.6800  -4.6788  -4.0684
     3.3732   4.1149   6.2297   7.0949

     occupation numbers 
     1.0000   1.0000   1.0000   1.0000   1.0000   1.0000   1.0000   1.0000
     0.0000   0.0000   0.0000   0.0000

          k = 0.0833 0.5292 0.0000 ( 16457 PWs)   bands (ev):

   -17.0743 -17.0187 -11.1359 -11.0483  -6.9935  -6.9666  -3.6829  -3.2095
     2.0787   2.9812   7.4141   7.9389

     occupation numbers 
     1.0000   1.0000   1.0000   1.0000   1.0000   1.0000   1.0000   1.0000
     0.0000   0.0000   0.0000   0.0000

          k = 0.1667 0.2887 0.0000 ( 16450 PWs)   bands (ev):

   -18.6084 -18.5268  -8.0226  -7.9663  -6.4251  -6.3970  -6.0195  -5.2956
     4.5630   4.8307   5.1498   6.3624

     occupation numbers 
     1.0000   1.0000   1.0000   1.0000   1.0000   1.0000   1.0000   1.0000
     0.0000   0.0000   0.0000   0.0000

          k = 0.1667 0.3849 0.0000 ( 16414 PWs)   bands (ev):

   -17.8583 -17.7875  -9.3647  -9.2989  -7.2871  -7.2514  -4.9328  -4.2905
     4.0017   4.5392   5.9934   6.8238

     occupation numbers 
     1.0000   1.0000   1.0000   1.0000   1.0000   1.0000   1.0000   1.0000
     0.0000   0.0000   0.0000   0.0000

          k = 0.1667 0.4811 0.0000 ( 16443 PWs)   bands (ev):

   -17.1349 -17.0766 -10.5448 -10.4668  -7.8064  -7.7666  -3.8117  -3.2917
     2.6465   3.3224   7.6651   8.3439

     occupation numbers 
     1.0000   1.0000   1.0000   1.0000   1.0000   1.0000   1.0000   1.0000
     0.0000   0.0000   0.0000   0.0000

          k = 0.1667 0.5774 0.0000 ( 16460 PWs)   bands (ev):

   -16.8018 -16.7505 -11.0475 -10.9626  -7.9773  -7.9364  -3.2423  -2.8136
     1.9718   2.7340   8.7241   9.1082

     occupation numbers 
     1.0000   1.0000   1.0000   1.0000   1.0000   1.0000   1.0000   1.0000
     0.0000   0.0000   0.0000   0.0000

          k = 0.2500 0.4330 0.0000 ( 16406 PWs)   bands (ev):

   -17.1640 -17.1045 -10.0857 -10.0163  -8.3670  -8.3204  -3.8713  -3.3318
     2.9945   3.4648   7.6062   8.2008

     occupation numbers 
     1.0000   1.0000   1.0000   1.0000   1.0000   1.0000   1.0000   1.0000
     0.0000   0.0000   0.0000   0.0000

          k = 0.2500 0.5292 0.0000 ( 16455 PWs)   bands (ev):

   -16.6592 -16.6095 -10.5945 -10.5219  -8.9730  -8.9217  -3.0248  -2.5966
     2.1961   2.6250   9.2582   9.3834

     occupation numbers 
     1.0000   1.0000   1.0000   1.0000   1.0000   1.0000   1.0000   1.0000
     0.0000   0.0000   0.0000   0.0000

          k = 0.3333 0.5774 0.0000 ( 16464 PWs)   bands (ev):

   -16.4672 -16.4210 -10.3473 -10.3421  -9.6247  -9.6195  -2.6858  -2.2985
     2.1807   2.1856   9.4960   9.4964

     occupation numbers 
     1.0000   1.0000   1.0000   1.0000   1.0000   1.0000   1.0000   1.0000
     0.0000   0.0000   0.0000   0.0000

     the Fermi energy is    -1.4376 ev

!    total energy              =     -53.70222857 Ry
     estimated scf accuracy    <       0.00000017 Ry
     smearing contrib. (-TS)   =       0.00000000 Ry
     internal energy E=F+TS    =     -53.70222857 Ry

     The total energy is F=E-TS. E is the sum of the following terms:
     one-electron contribution =    -513.89493403 Ry
     hartree contribution      =     261.10693688 Ry
     xc contribution           =     -17.37407367 Ry
     ewald contribution        =     216.45984225 Ry

     convergence has been achieved in   9 iterations


     -----------------------------------------------
     Non-local corr. energy    =       0.20349670 Ry
     -----------------------------------------------


     Forces acting on atoms (cartesian axes, Ry/au):

     atom    1 type  2   force =     0.00000000    0.00000000   -0.00049477
     atom    2 type  1   force =     0.00000000    0.00000000    0.00016625
     atom    3 type  2   force =     0.00000000    0.00000000   -0.00026472
     atom    4 type  1   force =     0.00000000    0.00000000    0.00059324
     The non-local contrib.  to forces
     atom    1 type  2   force =     0.00000000    0.00000000   -0.00182522
     atom    2 type  1   force =     0.00000000   -0.00000000   -0.00076263
     atom    3 type  2   force =     0.00000000    0.00000000   -0.00208066
     atom    4 type  1   force =     0.00000000    0.00000000    0.00066557
     The ionic contribution  to forces
     atom    1 type  2   force =    -0.00000462   -0.00000089  -16.77423431
     atom    2 type  1   force =     0.00000463    0.00000089  -10.06106018
     atom    3 type  2   force =     0.00000770   -0.00000445   16.78817015
     atom    4 type  1   force =    -0.00000771    0.00000445   10.04712434
     The local contribution  to forces
     atom    1 type  2   force =    -0.00000000   -0.00000000   16.77546761
     atom    2 type  1   force =    -0.00000251   -0.00000048   10.06194863
     atom    3 type  2   force =    -0.00000000    0.00000000  -16.78664396
     atom    4 type  1   force =     0.00000418   -0.00000241  -10.04732992
     The core correction contribution to forces
     atom    1 type  2   force =    -0.00000000   -0.00000000    0.00003299
     atom    2 type  1   force =    -0.00000015   -0.00000003    0.00000465
     atom    3 type  2   force =     0.00000000   -0.00000000    0.00006575
     atom    4 type  1   force =     0.00000025   -0.00000015    0.00002604
     The Hubbard contrib.    to forces
     atom    1 type  2   force =     0.00000000    0.00000000    0.00000000
     atom    2 type  1   force =     0.00000000    0.00000000    0.00000000
     atom    3 type  2   force =     0.00000000    0.00000000    0.00000000
     atom    4 type  1   force =     0.00000000    0.00000000    0.00000000
     The SCF correction term to forces
     atom    1 type  2   force =     0.00000000    0.00000000    0.00005455
     atom    2 type  1   force =     0.00000000    0.00000000    0.00002616
     atom    3 type  2   force =    -0.00000000    0.00000000    0.00021439
     atom    4 type  1   force =    -0.00000000    0.00000000    0.00009759

     Total force =     0.000833     Total SCF correction =     0.000243
     SCF correction compared to forces is large: reduce conv_thr to get better values


     Computing stress (Cartesian axis) and pressure



     -----------------------------------------------
     Non-local corr. energy    =       0.20349670 Ry
     -----------------------------------------------

          total   stress  (Ry/bohr**3)                   (kbar)     P=        0.45
   0.00000279   0.00000000   0.00000000            0.41        0.00        0.00
   0.00000000   0.00000279  -0.00000000            0.00        0.41       -0.00
   0.00000000  -0.00000000   0.00000354            0.00       -0.00        0.52

     kinetic stress (kbar)   4800.39      0.00      0.00
                                0.00   4800.39     -0.00
                                0.00     -0.00   5226.57

     local   stress (kbar)-104876.02      0.00      0.00
                                0.00-104876.01     -0.00
                                0.00     -0.00 105543.56

     nonloc. stress (kbar)   -791.64      0.00      0.00
                                0.00   -791.64     -0.00
                                0.00     -0.00   -765.04

     hartree stress (kbar)  50994.35     -0.00      0.00
                               -0.00  50994.35      0.00
                                0.00      0.00 -50160.30

     exc-cor stress (kbar)   -482.25     -0.00      0.00
                               -0.00   -482.25     -0.00
                                0.00     -0.00   -530.00

     corecor stress (kbar)   -539.16      0.00     -0.00
                                0.00   -539.16      0.00
                               -0.00      0.00   -527.49

     ewald   stress (kbar)  50890.43     -0.01     -0.00
                               -0.01  50890.43     -0.00
                               -0.00     -0.00 -58814.68

     hubbard stress (kbar)      0.00      0.00      0.00
                                0.00      0.00      0.00
                                0.00      0.00      0.00

     DFT-D   stress (kbar)      0.00      0.00      0.00
                                0.00      0.00      0.00
                                0.00      0.00      0.00

     XDM     stress (kbar)      0.00      0.00      0.00
                                0.00      0.00      0.00
                                0.00      0.00      0.00

     dft-nl  stress (kbar)      4.31      0.00      0.00
                                0.00      4.31     -0.00
                                0.00     -0.00     27.89

     TS-vdW  stress (kbar)      0.00      0.00      0.00
                                0.00      0.00      0.00
                                0.00      0.00      0.00

     MDB     stress (kbar)      0.00      0.00      0.00
                                0.00      0.00      0.00
                                0.00      0.00      0.00

     3D-RISM stress (kbar)      0.00      0.00      0.00
                                0.00      0.00      0.00
                                0.00      0.00      0.00


     BFGS Geometry Optimization
     Energy error            =      0.0E+00 Ry
     Gradient error          =      5.9E-04 Ry/Bohr
     Cell gradient error     =      5.2E-01 kbar

     number of scf cycles    =   1
     number of bfgs steps    =   0

     enthalpy           new  =     -53.7022285698 Ry

     new trust radius        =       0.0005932391 bohr
     new conv_thr            =       0.0000010000 Ry

     new unit-cell volume =    741.27134 a.u.^3 (   109.84508 Ang^3 )
     density =      0.72595 g/cm^3

CELL_PARAMETERS (alat=  4.74700000)
   1.000069671   0.000000000   0.000000000
  -0.500034835   0.866085740  -0.000000000
   0.000000000  -0.000000000   8.000707046

ATOMIC_POSITIONS (crystal)
N             0.0000000000        0.0000000000       -0.0000130284
B             0.3333330000        0.6666666000        0.0000043778
N             0.0000000000        0.0000000000        0.1744500292
B             0.6666670000        0.3333330000        0.1744056214



     Writing config-only to output data dir ./tmp/BN2L_A1B_PBE_vdW.save/
     NEW-OLD atomic charge density approx. for the potential

     negative rho (up, down):  1.748E-08 0.000E+00


     -----------------------------------------------
     Non-local corr. energy    =       0.20353948 Ry
     -----------------------------------------------

     extrapolated charge   16.00364, renormalised to   16.00000

     total cpu time spent up to now is       30.2 secs

     Self-consistent Calculation

     iteration #  1     ecut=   120.00 Ry     beta= 0.70
     Davidson diagonalization with overlap

---- Real-time Memory Report at c_bands before calling an iterative solver
             0 MiB given to the printing process from OS
             0 MiB allocation reported by mallinfo(arena+hblkhd)
             0 MiB available memory on the node where the printing process lives
------------------
     ethr =  1.00E-06,  avg # of iterations =  2.9

     Threshold (ethr) on eigenvalues was too large:
     Diagonalizing with lowered threshold

     Davidson diagonalization with overlap

---- Real-time Memory Report at c_bands before calling an iterative solver
             0 MiB given to the printing process from OS
             0 MiB allocation reported by mallinfo(arena+hblkhd)
             0 MiB available memory on the node where the printing process lives
------------------
     ethr =  9.34E-08,  avg # of iterations =  1.0


     -----------------------------------------------
     Non-local corr. energy    =       0.20344223 Ry
     -----------------------------------------------


     total cpu time spent up to now is       32.5 secs

     total energy              =     -53.70220955 Ry
     estimated scf accuracy    <       0.00001601 Ry

     iteration #  2     ecut=   120.00 Ry     beta= 0.70
     Davidson diagonalization with overlap

---- Real-time Memory Report at c_bands before calling an iterative solver
             0 MiB given to the printing process from OS
             0 MiB allocation reported by mallinfo(arena+hblkhd)
             0 MiB available memory on the node where the printing process lives
------------------
     ethr =  1.00E-07,  avg # of iterations =  3.7


     -----------------------------------------------
     Non-local corr. energy    =       0.20346825 Ry
     -----------------------------------------------


     total cpu time spent up to now is       34.1 secs

     total energy              =     -53.70222600 Ry
     estimated scf accuracy    <       0.00005819 Ry

     iteration #  3     ecut=   120.00 Ry     beta= 0.70
     Davidson diagonalization with overlap

---- Real-time Memory Report at c_bands before calling an iterative solver
             0 MiB given to the printing process from OS
             0 MiB allocation reported by mallinfo(arena+hblkhd)
             0 MiB available memory on the node where the printing process lives
------------------
     ethr =  1.00E-07,  avg # of iterations =  2.0


     -----------------------------------------------
     Non-local corr. energy    =       0.20348111 Ry
     -----------------------------------------------


     total cpu time spent up to now is       35.4 secs

     total energy              =     -53.70223011 Ry
     estimated scf accuracy    <       0.00000658 Ry

     iteration #  4     ecut=   120.00 Ry     beta= 0.70
     Davidson diagonalization with overlap

---- Real-time Memory Report at c_bands before calling an iterative solver
             0 MiB given to the printing process from OS
             0 MiB allocation reported by mallinfo(arena+hblkhd)
             0 MiB available memory on the node where the printing process lives
------------------
     ethr =  4.12E-08,  avg # of iterations =  1.0


     -----------------------------------------------
     Non-local corr. energy    =       0.20348846 Ry
     -----------------------------------------------


     total cpu time spent up to now is       36.4 secs

     total energy              =     -53.70222962 Ry
     estimated scf accuracy    <       0.00000293 Ry

     iteration #  5     ecut=   120.00 Ry     beta= 0.70
     Davidson diagonalization with overlap

---- Real-time Memory Report at c_bands before calling an iterative solver
             0 MiB given to the printing process from OS
             0 MiB allocation reported by mallinfo(arena+hblkhd)
             0 MiB available memory on the node where the printing process lives
------------------
     ethr =  1.83E-08,  avg # of iterations =  1.0


     -----------------------------------------------
     Non-local corr. energy    =       0.20349316 Ry
     -----------------------------------------------


     total cpu time spent up to now is       37.5 secs

     total energy              =     -53.70222954 Ry
     estimated scf accuracy    <       0.00000107 Ry

     iteration #  6     ecut=   120.00 Ry     beta= 0.70
     Davidson diagonalization with overlap

---- Real-time Memory Report at c_bands before calling an iterative solver
             0 MiB given to the printing process from OS
             0 MiB allocation reported by mallinfo(arena+hblkhd)
             0 MiB available memory on the node where the printing process lives
------------------
     ethr =  6.68E-09,  avg # of iterations =  1.4


     -----------------------------------------------
     Non-local corr. energy    =       0.20350748 Ry
     -----------------------------------------------


     total cpu time spent up to now is       38.6 secs

     End of self-consistent calculation

          k = 0.0000 0.0000 0.0000 ( 16459 PWs)   bands (ev):

   -20.1178 -20.0175  -8.1212  -7.2855  -3.8754  -3.8754  -3.8657  -3.8656
     1.9689   2.5425   3.6897   4.6156

     occupation numbers 
     1.0000   1.0000   1.0000   1.0000   1.0000   1.0000   1.0000   1.0000
     0.0000   0.0000   0.0000   0.0000

          k = 0.0000 0.0962 0.0000 ( 16505 PWs)   bands (ev):

   -19.9846 -19.8860  -7.9390  -7.1112  -4.4319  -4.4112  -4.1307  -4.1192
     2.2015   2.7564   3.9103   4.8078

     occupation numbers 
     1.0000   1.0000   1.0000   1.0000   1.0000   1.0000   1.0000   1.0000
     0.0000   0.0000   0.0000   0.0000

          k = 0.0000 0.1924 0.0000 ( 16455 PWs)   bands (ev):

   -19.5927 -19.4987  -7.4006  -6.5993  -5.8311  -5.7917  -4.7530  -4.7385
     2.8606   3.3789   4.5516   5.3003

     occupation numbers 
     1.0000   1.0000   1.0000   1.0000   1.0000   1.0000   1.0000   1.0000
     0.0000   0.0000   0.0000   0.0000

          k = 0.0000 0.2887 0.0000 ( 16460 PWs)   bands (ev):

   -18.9691 -18.8831  -7.6087  -7.5537  -6.5261  -5.7725  -5.4756  -5.4586
     3.8990   4.3386   5.2864   5.8270

     occupation numbers 
     1.0000   1.0000   1.0000   1.0000   1.0000   1.0000   1.0000   1.0000
     0.0000   0.0000   0.0000   0.0000

          k = 0.0000 0.3849 0.0000 ( 16426 PWs)   bands (ev):

   -18.1828 -18.1078  -9.3720  -9.3037  -6.0972  -6.0785  -5.4022  -4.7270
     4.1984   4.7710   5.2549   6.3653

     occupation numbers 
     1.0000   1.0000   1.0000   1.0000   1.0000   1.0000   1.0000   1.0000
     0.0000   0.0000   0.0000   0.0000

          k = 0.0000 0.4811 0.0000 ( 16454 PWs)   bands (ev):

   -17.4102 -17.3485 -10.7852 -10.7022  -6.5054  -6.4857  -4.2259  -3.6775
     2.6034   3.4838   6.5930   7.3094

     occupation numbers 
     1.0000   1.0000   1.0000   1.0000   1.0000   1.0000   1.0000   1.0000
     0.0000   0.0000   0.0000   0.0000

          k = 0.0000-0.5773-0.0000 ( 16482 PWs)   bands (ev):

   -17.0464 -16.9926 -11.3704 -11.2793  -6.6466  -6.6267  -3.6163  -3.1716
     1.8213   2.8007   7.0481   7.4454

     occupation numbers 
     1.0000   1.0000   1.0000   1.0000   1.0000   1.0000   1.0000   1.0000
     0.0000   0.0000   0.0000   0.0000

          k = 0.0833 0.1443 0.0000 ( 16501 PWs)   bands (ev):

   -19.7220 -19.6264  -7.5785  -6.7676  -5.3430  -5.3095  -4.6358  -4.6215
     2.6482   3.1753   4.3431   5.1555

     occupation numbers 
     1.0000   1.0000   1.0000   1.0000   1.0000   1.0000   1.0000   1.0000
     0.0000   0.0000   0.0000   0.0000

          k = 0.0833 0.2405 0.0000 ( 16445 PWs)   bands (ev):

   -19.2129 -19.1236  -6.9111  -6.7832  -6.7756  -6.0919  -5.4191  -5.4001
     3.5042   3.9779   5.1376   5.6381

     occupation numbers 
     1.0000   1.0000   1.0000   1.0000   1.0000   1.0000   1.0000   1.0000
     0.0000   0.0000   0.0000   0.0000

          k = 0.0833 0.3368 0.0000 ( 16443 PWs)   bands (ev):

   -18.5015 -18.4218  -8.5260  -8.4654  -6.1619  -6.1388  -5.8644  -5.1527
     4.7277   4.8759   4.9053   6.3774

     occupation numbers 
     1.0000   1.0000   1.0000   1.0000   1.0000   1.0000   1.0000   1.0000
     0.0000   0.0000   0.0000   0.0000

          k = 0.0833 0.4330 0.0000 ( 16438 PWs)   bands (ev):

   -17.6983 -17.6310 -10.1029 -10.0283  -6.7100  -6.6847  -4.6824  -4.0722
     3.3681   4.1097   6.2263   7.0928

     occupation numbers 
     1.0000   1.0000   1.0000   1.0000   1.0000   1.0000   1.0000   1.0000
     0.0000   0.0000   0.0000   0.0000

          k = 0.0833 0.5292 0.0000 ( 16457 PWs)   bands (ev):

   -17.0780 -17.0227 -11.1398 -11.0524  -6.9976  -6.9713  -3.6866  -3.2135
     2.0738   2.9759   7.4080   7.9326

     occupation numbers 
     1.0000   1.0000   1.0000   1.0000   1.0000   1.0000   1.0000   1.0000
     0.0000   0.0000   0.0000   0.0000

          k = 0.1667 0.2887 0.0000 ( 16450 PWs)   bands (ev):

   -18.6119 -18.5305  -8.0270  -7.9709  -6.4294  -6.4018  -6.0228  -5.2993
     4.5613   4.8291   5.1444   6.3918

     occupation numbers 
     1.0000   1.0000   1.0000   1.0000   1.0000   1.0000   1.0000   1.0000
     0.0000   0.0000   0.0000   0.0000

          k = 0.1667 0.3849 0.0000 ( 16414 PWs)   bands (ev):

   -17.8619 -17.7914  -9.3688  -9.3032  -7.2913  -7.2560  -4.9363  -4.2943
     3.9964   4.5341   5.9909   6.8226

     occupation numbers 
     1.0000   1.0000   1.0000   1.0000   1.0000   1.0000   1.0000   1.0000
     0.0000   0.0000   0.0000   0.0000

          k = 0.1667 0.4811 0.0000 ( 16443 PWs)   bands (ev):

   -17.1386 -17.0806 -10.5488 -10.4710  -7.8106  -7.7712  -3.8155  -3.2957
     2.6414   3.3170   7.6614   8.3416

     occupation numbers 
     1.0000   1.0000   1.0000   1.0000   1.0000   1.0000   1.0000   1.0000
     0.0000   0.0000   0.0000   0.0000

          k = 0.1667 0.5773 0.0000 ( 16460 PWs)   bands (ev):

   -16.8056 -16.7546 -11.0514 -10.9666  -7.9816  -7.9409  -3.2461  -2.8176
     1.9668   2.7286   8.7178   9.1023

     occupation numbers 
     1.0000   1.0000   1.0000   1.0000   1.0000   1.0000   1.0000   1.0000
     0.0000   0.0000   0.0000   0.0000

          k = 0.2500 0.4330 0.0000 ( 16406 PWs)   bands (ev):

   -17.1677 -17.1085 -10.0897 -10.0205  -8.3713  -8.3249  -3.8750  -3.3358
     2.9893   3.4594   7.6031   8.1992

     occupation numbers 
     1.0000   1.0000   1.0000   1.0000   1.0000   1.0000   1.0000   1.0000
     0.0000   0.0000   0.0000   0.0000

          k = 0.2500 0.5292 0.0000 ( 16455 PWs)   bands (ev):

   -16.6631 -16.6136 -10.5983 -10.5259  -8.9773  -8.9262  -3.0286  -2.6007
     2.1909   2.6196   9.2531   9.3793

     occupation numbers 
     1.0000   1.0000   1.0000   1.0000   1.0000   1.0000   1.0000   1.0000
     0.0000   0.0000   0.0000   0.0000

          k = 0.3333 0.5773 0.0000 ( 16464 PWs)   bands (ev):

   -16.4711 -16.4252 -10.3493 -10.3474  -9.6276  -9.6257  -2.6897  -2.3025
     2.1769   2.1787   9.4913   9.4914

     occupation numbers 
     1.0000   1.0000   1.0000   1.0000   1.0000   1.0000   1.0000   1.0000
     0.0000   0.0000   0.0000   0.0000

     the Fermi energy is    -1.4420 ev

!    total energy              =     -53.70222914 Ry
     estimated scf accuracy    <       0.00000048 Ry
     smearing contrib. (-TS)   =       0.00000000 Ry
     internal energy E=F+TS    =     -53.70222914 Ry

     The total energy is F=E-TS. E is the sum of the following terms:
     one-electron contribution =    -513.86537725 Ry
     hartree contribution      =     261.09459396 Ry
     xc contribution           =     -17.37360582 Ry
     ewald contribution        =     216.44215997 Ry

     convergence has been achieved in   6 iterations


     -----------------------------------------------
     Non-local corr. energy    =       0.20350748 Ry
     -----------------------------------------------


     Forces acting on atoms (cartesian axes, Ry/au):

     atom    1 type  2   force =     0.00000000   -0.00000000   -0.00012659
     atom    2 type  1   force =     0.00000000   -0.00000000   -0.00005814
     atom    3 type  2   force =     0.00000000   -0.00000000   -0.00014760
     atom    4 type  1   force =     0.00000000    0.00000000    0.00033233
     The non-local contrib.  to forces
     atom    1 type  2   force =    -0.00000000   -0.00000000   -0.00047968
     atom    2 type  1   force =     0.00000000   -0.00000000   -0.00087277
     atom    3 type  2   force =     0.00000000   -0.00000000   -0.00105465
     atom    4 type  1   force =     0.00000000    0.00000000    0.00079848
     The ionic contribution  to forces
     atom    1 type  2   force =    -0.00000462   -0.00000089  -16.77510395
     atom    2 type  1   force =     0.00000463    0.00000089  -10.05579228
     atom    3 type  2   force =     0.00000770   -0.00000445   16.78071955
     atom    4 type  1   force =    -0.00000771    0.00000445   10.05017667
     The local contribution  to forces
     atom    1 type  2   force =    -0.00000000   -0.00000000   16.77716949
     atom    2 type  1   force =    -0.00000251   -0.00000048   10.05747772
     atom    3 type  2   force =    -0.00000000    0.00000000  -16.78156262
     atom    4 type  1   force =     0.00000418   -0.00000241  -10.05151430
     The core correction contribution to forces
     atom    1 type  2   force =    -0.00000000   -0.00000000    0.00000349
     atom    2 type  1   force =    -0.00000015   -0.00000003    0.00000567
     atom    3 type  2   force =     0.00000000   -0.00000000    0.00003583
     atom    4 type  1   force =     0.00000025   -0.00000015    0.00000785
     The Hubbard contrib.    to forces
     atom    1 type  2   force =     0.00000000    0.00000000    0.00000000
     atom    2 type  1   force =     0.00000000    0.00000000    0.00000000
     atom    3 type  2   force =     0.00000000    0.00000000    0.00000000
     atom    4 type  1   force =     0.00000000    0.00000000    0.00000000
     The SCF correction term to forces
     atom    1 type  2   force =    -0.00000000    0.00000000   -0.00171469
     atom    2 type  1   force =     0.00000000    0.00000000   -0.00087522
     atom    3 type  2   force =     0.00000000   -0.00000000    0.00171555
     atom    4 type  1   force =    -0.00000000    0.00000000    0.00086489

     Total force =     0.000389     Total SCF correction =     0.002720
     SCF correction compared to forces is large: reduce conv_thr to get better values


     Computing stress (Cartesian axis) and pressure



     -----------------------------------------------
     Non-local corr. energy    =       0.20350748 Ry
     -----------------------------------------------

          total   stress  (Ry/bohr**3)                   (kbar)     P=        0.32
   0.00000098   0.00000000   0.00000000            0.14        0.00        0.00
   0.00000000   0.00000098   0.00000000            0.00        0.14        0.00
   0.00000000   0.00000000   0.00000456            0.00        0.00        0.67

     kinetic stress (kbar)   4799.01     -0.00     -0.00
                               -0.00   4799.01      0.00
                               -0.00      0.00   5225.32

     local   stress (kbar)-104845.59      0.00      0.00
                                0.00-104845.59     -0.00
                                0.00     -0.00 105512.40

     nonloc. stress (kbar)   -791.39      0.00      0.00
                                0.00   -791.39      0.00
                                0.00      0.00   -764.84

     hartree stress (kbar)  50980.18      0.00      0.00
                                0.00  50980.18      0.00
                                0.00      0.00 -50146.21

     exc-cor stress (kbar)   -482.12     -0.00      0.00
                               -0.00   -482.12     -0.00
                                0.00     -0.00   -529.85

     corecor stress (kbar)   -539.03      0.00     -0.00
                                0.00   -539.03      0.00
                               -0.00      0.00   -527.37

     ewald   stress (kbar)  50874.78     -0.01     -0.00
                               -0.01  50874.77      0.00
                               -0.00      0.00 -58796.67

     hubbard stress (kbar)      0.00      0.00      0.00
                                0.00      0.00      0.00
                                0.00      0.00      0.00

     DFT-D   stress (kbar)      0.00      0.00      0.00
                                0.00      0.00      0.00
                                0.00      0.00      0.00

     XDM     stress (kbar)      0.00      0.00      0.00
                                0.00      0.00      0.00
                                0.00      0.00      0.00

     dft-nl  stress (kbar)      4.31      0.00      0.00
                                0.00      4.31     -0.00
                                0.00     -0.00     27.88

     TS-vdW  stress (kbar)      0.00      0.00      0.00
                                0.00      0.00      0.00
                                0.00      0.00      0.00

     MDB     stress (kbar)      0.00      0.00      0.00
                                0.00      0.00      0.00
                                0.00      0.00      0.00

     3D-RISM stress (kbar)      0.00      0.00      0.00
                                0.00      0.00      0.00
                                0.00      0.00      0.00

     Energy error            =      5.7E-07 Ry
     Gradient error          =      3.3E-04 Ry/Bohr
     Cell gradient error     =      6.7E-01 kbar

     number of scf cycles    =   2
     number of bfgs steps    =   1

     enthalpy           old  =     -53.7022285698 Ry
     enthalpy           new  =     -53.7022291395 Ry

     CASE: enthalpy          _new < enthalpy          _old

     new trust radius        =       0.0006526207 bohr
     new conv_thr            =       0.0000000100 Ry

     new unit-cell volume =    741.41989 a.u.^3 (   109.86709 Ang^3 )
     density =      0.72581 g/cm^3

CELL_PARAMETERS (alat=  4.74700000)
   1.000109943   0.000000000   0.000000000
  -0.500054971   0.866120617  -0.000000000
   0.000000000  -0.000000000   8.001665940

ATOMIC_POSITIONS (crystal)
N             0.0000000000        0.0000000000       -0.0000195253
B             0.3333330000        0.6666666000        0.0000043608
N             0.0000000000        0.0000000000        0.1744448077
B             0.6666670000        0.3333330000        0.1744173567



     Writing config-only to output data dir ./tmp/BN2L_A1B_PBE_vdW.save/
     NEW-OLD atomic charge density approx. for the potential

     negative rho (up, down):  1.356E-08 0.000E+00


     -----------------------------------------------
     Non-local corr. energy    =       0.20354479 Ry
     -----------------------------------------------

     extrapolated charge   16.00321, renormalised to   16.00000

     total cpu time spent up to now is       44.2 secs

     Self-consistent Calculation

     iteration #  1     ecut=   120.00 Ry     beta= 0.70
     Davidson diagonalization with overlap

---- Real-time Memory Report at c_bands before calling an iterative solver
             0 MiB given to the printing process from OS
             0 MiB allocation reported by mallinfo(arena+hblkhd)
             0 MiB available memory on the node where the printing process lives
------------------
     ethr =  1.00E-06,  avg # of iterations =  3.4


     -----------------------------------------------
     Non-local corr. energy    =       0.20346162 Ry
     -----------------------------------------------


     total cpu time spent up to now is       45.4 secs

     total energy              =     -53.70220917 Ry
     estimated scf accuracy    <       0.00001950 Ry

     iteration #  2     ecut=   120.00 Ry     beta= 0.70
     Davidson diagonalization with overlap

---- Real-time Memory Report at c_bands before calling an iterative solver
             0 MiB given to the printing process from OS
             0 MiB allocation reported by mallinfo(arena+hblkhd)
             0 MiB available memory on the node where the printing process lives
------------------
     ethr =  1.22E-07,  avg # of iterations =  3.9


     -----------------------------------------------
     Non-local corr. energy    =       0.20348346 Ry
     -----------------------------------------------


     total cpu time spent up to now is       46.8 secs

     total energy              =     -53.70222481 Ry
     estimated scf accuracy    <       0.00005752 Ry

     iteration #  3     ecut=   120.00 Ry     beta= 0.70
     Davidson diagonalization with overlap

---- Real-time Memory Report at c_bands before calling an iterative solver
             0 MiB given to the printing process from OS
             0 MiB allocation reported by mallinfo(arena+hblkhd)
             0 MiB available memory on the node where the printing process lives
------------------
     ethr =  1.22E-07,  avg # of iterations =  2.0


     -----------------------------------------------
     Non-local corr. energy    =       0.20349286 Ry
     -----------------------------------------------


     total cpu time spent up to now is       48.0 secs

     total energy              =     -53.70223031 Ry
     estimated scf accuracy    <       0.00000435 Ry

     iteration #  4     ecut=   120.00 Ry     beta= 0.70
     Davidson diagonalization with overlap

---- Real-time Memory Report at c_bands before calling an iterative solver
             0 MiB given to the printing process from OS
             0 MiB allocation reported by mallinfo(arena+hblkhd)
             0 MiB available memory on the node where the printing process lives
------------------
     ethr =  2.72E-08,  avg # of iterations =  1.0


     -----------------------------------------------
     Non-local corr. energy    =       0.20349848 Ry
     -----------------------------------------------


     total cpu time spent up to now is       49.0 secs

     total energy              =     -53.70223000 Ry
     estimated scf accuracy    <       0.00000206 Ry

     iteration #  5     ecut=   120.00 Ry     beta= 0.70
     Davidson diagonalization with overlap

---- Real-time Memory Report at c_bands before calling an iterative solver
             0 MiB given to the printing process from OS
             0 MiB allocation reported by mallinfo(arena+hblkhd)
             0 MiB available memory on the node where the printing process lives
------------------
     ethr =  1.29E-08,  avg # of iterations =  1.0


     -----------------------------------------------
     Non-local corr. energy    =       0.20350368 Ry
     -----------------------------------------------


     total cpu time spent up to now is       50.1 secs

     total energy              =     -53.70222985 Ry
     estimated scf accuracy    <       0.00000086 Ry

     iteration #  6     ecut=   120.00 Ry     beta= 0.70
     Davidson diagonalization with overlap

---- Real-time Memory Report at c_bands before calling an iterative solver
             0 MiB given to the printing process from OS
             0 MiB allocation reported by mallinfo(arena+hblkhd)
             0 MiB available memory on the node where the printing process lives
------------------
     ethr =  5.37E-09,  avg # of iterations =  1.4


     -----------------------------------------------
     Non-local corr. energy    =       0.20350983 Ry
     -----------------------------------------------


     total cpu time spent up to now is       51.1 secs

     total energy              =     -53.70222976 Ry
     estimated scf accuracy    <       0.00000028 Ry

     iteration #  7     ecut=   120.00 Ry     beta= 0.70
     Davidson diagonalization with overlap

---- Real-time Memory Report at c_bands before calling an iterative solver
             0 MiB given to the printing process from OS
             0 MiB allocation reported by mallinfo(arena+hblkhd)
             0 MiB available memory on the node where the printing process lives
------------------
     ethr =  1.73E-09,  avg # of iterations =  2.3


     -----------------------------------------------
     Non-local corr. energy    =       0.20351037 Ry
     -----------------------------------------------


     total cpu time spent up to now is       52.5 secs

     End of self-consistent calculation

          k = 0.0000 0.0000 0.0000 ( 16459 PWs)   bands (ev):

   -20.1134 -20.0133  -8.1171  -7.2822  -3.8716  -3.8716  -3.8621  -3.8621
     1.9692   2.5414   3.6892   4.6167

     occupation numbers 
     1.0000   1.0000   1.0000   1.0000   1.0000   1.0000   1.0000   1.0000
     0.0000   0.0000   0.0000   0.0000

          k = 0.0000 0.0962 0.0000 ( 16505 PWs)   bands (ev):

   -19.9803 -19.8818  -7.9348  -7.1080  -4.4282  -4.4076  -4.1269  -4.1156
     2.2017   2.7553   3.9098   4.8090

     occupation numbers 
     1.0000   1.0000   1.0000   1.0000   1.0000   1.0000   1.0000   1.0000
     0.0000   0.0000   0.0000   0.0000

          k = 0.0000 0.1924 0.0000 ( 16455 PWs)   bands (ev):

   -19.5883 -19.4946  -7.3965  -6.5960  -5.8274  -5.7880  -4.7492  -4.7348
     2.8607   3.3778   4.5513   5.3018

     occupation numbers 
     1.0000   1.0000   1.0000   1.0000   1.0000   1.0000   1.0000   1.0000
     0.0000   0.0000   0.0000   0.0000

          k = 0.0000 0.2886 0.0000 ( 16460 PWs)   bands (ev):

   -18.9648 -18.8789  -7.6049  -7.5500  -6.5220  -5.7692  -5.4717  -5.4549
     3.8992   4.3375   5.2892   5.8262

     occupation numbers 
     1.0000   1.0000   1.0000   1.0000   1.0000   1.0000   1.0000   1.0000
     0.0000   0.0000   0.0000   0.0000

          k = 0.0000 0.3849 0.0000 ( 16426 PWs)   bands (ev):

   -18.1786 -18.1038  -9.3681  -9.2999  -6.0933  -6.0747  -5.3982  -4.7238
     4.2015   4.7718   5.2554   6.3655

     occupation numbers 
     1.0000   1.0000   1.0000   1.0000   1.0000   1.0000   1.0000   1.0000
     0.0000   0.0000   0.0000   0.0000

          k = 0.0000 0.4811 0.0000 ( 16454 PWs)   bands (ev):

   -17.4061 -17.3445 -10.7812 -10.6983  -6.5014  -6.4819  -4.2221  -3.6743
     2.6067   3.4856   6.5946   7.3104

     occupation numbers 
     1.0000   1.0000   1.0000   1.0000   1.0000   1.0000   1.0000   1.0000
     0.0000   0.0000   0.0000   0.0000

          k = 0.0000-0.5773-0.0000 ( 16482 PWs)   bands (ev):

   -17.0423 -16.9886 -11.3664 -11.2754  -6.6427  -6.6228  -3.6125  -3.1682
     1.8247   2.8026   7.0504   7.4469

     occupation numbers 
     1.0000   1.0000   1.0000   1.0000   1.0000   1.0000   1.0000   1.0000
     0.0000   0.0000   0.0000   0.0000

          k = 0.0833 0.1443 0.0000 ( 16501 PWs)   bands (ev):

   -19.7176 -19.6223  -7.5743  -6.7643  -5.3393  -5.3058  -4.6320  -4.6179
     2.6483   3.1743   4.3427   5.1569

     occupation numbers 
     1.0000   1.0000   1.0000   1.0000   1.0000   1.0000   1.0000   1.0000
     0.0000   0.0000   0.0000   0.0000

          k = 0.0833 0.2405 0.0000 ( 16445 PWs)   bands (ev):

   -19.2086 -19.1195  -6.9070  -6.7794  -6.7720  -6.0886  -5.4153  -5.3964
     3.5043   3.9767   5.1383   5.6393

     occupation numbers 
     1.0000   1.0000   1.0000   1.0000   1.0000   1.0000   1.0000   1.0000
     0.0000   0.0000   0.0000   0.0000

          k = 0.0833 0.3368 0.0000 ( 16443 PWs)   bands (ev):

   -18.4973 -18.4177  -8.5221  -8.4617  -6.1580  -6.1351  -5.8604  -5.1494
     4.7276   4.8780   4.9064   6.3784

     occupation numbers 
     1.0000   1.0000   1.0000   1.0000   1.0000   1.0000   1.0000   1.0000
     0.0000   0.0000   0.0000   0.0000

          k = 0.0833 0.4330 0.0000 ( 16438 PWs)   bands (ev):

   -17.6942 -17.6269 -10.0989 -10.0244  -6.7061  -6.6809  -4.6785  -4.0690
     3.3713   4.1114   6.2270   7.0924

     occupation numbers 
     1.0000   1.0000   1.0000   1.0000   1.0000   1.0000   1.0000   1.0000
     0.0000   0.0000   0.0000   0.0000

          k = 0.0833 0.5292 0.0000 ( 16457 PWs)   bands (ev):

   -17.0739 -17.0187 -11.1357 -11.0485  -6.9937  -6.9675  -3.6829  -3.2102
     2.0770   2.9779   7.4100   7.9338

     occupation numbers 
     1.0000   1.0000   1.0000   1.0000   1.0000   1.0000   1.0000   1.0000
     0.0000   0.0000   0.0000   0.0000

          k = 0.1666 0.2886 0.0000 ( 16450 PWs)   bands (ev):

   -18.6077 -18.5264  -8.0231  -7.9672  -6.4255  -6.3980  -6.0189  -5.2961
     4.5613   4.8282   5.1480   6.3906

     occupation numbers 
     1.0000   1.0000   1.0000   1.0000   1.0000   1.0000   1.0000   1.0000
     0.0000   0.0000   0.0000   0.0000

          k = 0.1666 0.3849 0.0000 ( 16414 PWs)   bands (ev):

   -17.8577 -17.7873  -9.3649  -9.2994  -7.2875  -7.2522  -4.9324  -4.2911
     3.9995   4.5357   5.9912   6.8221

     occupation numbers 
     1.0000   1.0000   1.0000   1.0000   1.0000   1.0000   1.0000   1.0000
     0.0000   0.0000   0.0000   0.0000

          k = 0.1666 0.4811 0.0000 ( 16443 PWs)   bands (ev):

   -17.1345 -17.0766 -10.5447 -10.4671  -7.8067  -7.7674  -3.8117  -3.2924
     2.6445   3.3191   7.6622   8.3411

     occupation numbers 
     1.0000   1.0000   1.0000   1.0000   1.0000   1.0000   1.0000   1.0000
     0.0000   0.0000   0.0000   0.0000

          k = 0.1666 0.5773 0.0000 ( 16460 PWs)   bands (ev):

   -16.8015 -16.7507 -11.0473 -10.9627  -7.9777  -7.9371  -3.2424  -2.8143
     1.9700   2.7307   8.7203   9.1034

     occupation numbers 
     1.0000   1.0000   1.0000   1.0000   1.0000   1.0000   1.0000   1.0000
     0.0000   0.0000   0.0000   0.0000

          k = 0.2500 0.4330 0.0000 ( 16406 PWs)   bands (ev):

   -17.1636 -17.1045 -10.0857 -10.0166  -8.3674  -8.3211  -3.8712  -3.3325
     2.9923   3.4616   7.6036   8.1985

     occupation numbers 
     1.0000   1.0000   1.0000   1.0000   1.0000   1.0000   1.0000   1.0000
     0.0000   0.0000   0.0000   0.0000

          k = 0.2500 0.5292 0.0000 ( 16455 PWs)   bands (ev):

   -16.6590 -16.6097 -10.5941 -10.5219  -8.9734  -8.9224  -3.0249  -2.5974
     2.1939   2.6220   9.2551   9.3802

     occupation numbers 
     1.0000   1.0000   1.0000   1.0000   1.0000   1.0000   1.0000   1.0000
     0.0000   0.0000   0.0000   0.0000

          k = 0.3333 0.5773 0.0000 ( 16464 PWs)   bands (ev):

   -16.4670 -16.4213 -10.3442 -10.3440  -9.6231  -9.6229  -2.6859  -2.2992
     2.1804   2.1806   9.4934   9.4934

     occupation numbers 
     1.0000   1.0000   1.0000   1.0000   1.0000   1.0000   1.0000   1.0000
     0.0000   0.0000   0.0000   0.0000

     the Fermi energy is    -1.4391 ev

!    total energy              =     -53.70222983 Ry
     estimated scf accuracy    <          4.7E-10 Ry
     smearing contrib. (-TS)   =       0.00000000 Ry
     internal energy E=F+TS    =     -53.70222983 Ry

     The total energy is F=E-TS. E is the sum of the following terms:
     one-electron contribution =    -513.87775531 Ry
     hartree contribution      =     261.09674227 Ry
     xc contribution           =     -17.37293909 Ry
     ewald contribution        =     216.45172231 Ry

     convergence has been achieved in   7 iterations


     -----------------------------------------------
     Non-local corr. energy    =       0.20351037 Ry
     -----------------------------------------------


     Forces acting on atoms (cartesian axes, Ry/au):

     atom    1 type  2   force =     0.00000000   -0.00000000   -0.00019897
     atom    2 type  1   force =     0.00000000    0.00000000   -0.00008601
     atom    3 type  2   force =     0.00000000   -0.00000000    0.00012977
     atom    4 type  1   force =     0.00000000   -0.00000000    0.00015521
     The non-local contrib.  to forces
     atom    1 type  2   force =    -0.00000000   -0.00000000   -0.00046077
     atom    2 type  1   force =     0.00000000    0.00000000   -0.00072449
     atom    3 type  2   force =    -0.00000000   -0.00000000    0.00021908
     atom    4 type  1   force =     0.00000000    0.00000000    0.00072952
     The ionic contribution  to forces
     atom    1 type  2   force =    -0.00000462   -0.00000089  -16.77483129
     atom    2 type  1   force =     0.00000463    0.00000089  -10.05347567
     atom    3 type  2   force =     0.00000770   -0.00000445   16.77557270
     atom    4 type  1   force =    -0.00000771    0.00000445   10.05273427
     The local contribution  to forces
     atom    1 type  2   force =    -0.00000000   -0.00000000   16.77511942
     atom    2 type  1   force =    -0.00000251   -0.00000048   10.05413301
     atom    3 type  2   force =     0.00000000    0.00000000  -16.77567846
     atom    4 type  1   force =     0.00000418   -0.00000241  -10.05333152
     The core correction contribution to forces
     atom    1 type  2   force =    -0.00000000   -0.00000000   -0.00000165
     atom    2 type  1   force =    -0.00000015   -0.00000003   -0.00000635
     atom    3 type  2   force =     0.00000000   -0.00000000    0.00000753
     atom    4 type  1   force =     0.00000025   -0.00000015    0.00000813
     The Hubbard contrib.    to forces
     atom    1 type  2   force =     0.00000000    0.00000000    0.00000000
     atom    2 type  1   force =     0.00000000    0.00000000    0.00000000
     atom    3 type  2   force =     0.00000000    0.00000000    0.00000000
     atom    4 type  1   force =     0.00000000    0.00000000    0.00000000
     The SCF correction term to forces
     atom    1 type  2   force =     0.00000000   -0.00000000   -0.00003225
     atom    2 type  1   force =     0.00000000   -0.00000000   -0.00002007
     atom    3 type  2   force =    -0.00000000    0.00000000    0.00000136
     atom    4 type  1   force =    -0.00000000    0.00000000    0.00000725

     Total force =     0.000297     Total SCF correction =     0.000039
     SCF correction compared to forces is large: reduce conv_thr to get better values


     Computing stress (Cartesian axis) and pressure



     -----------------------------------------------
     Non-local corr. energy    =       0.20351037 Ry
     -----------------------------------------------

          total   stress  (Ry/bohr**3)                   (kbar)     P=        0.09
  -0.00000037   0.00000000   0.00000000           -0.05        0.00        0.00
   0.00000000  -0.00000037   0.00000000            0.00       -0.05        0.00
   0.00000000   0.00000000   0.00000259            0.00        0.00        0.38

     kinetic stress (kbar)   4797.68      0.00      0.00
                                0.00   4797.68      0.00
                                0.00      0.00   5223.84

     local   stress (kbar)-104826.67      0.00      0.00
                                0.00-104826.67     -0.00
                                0.00     -0.00 105493.04

     nonloc. stress (kbar)   -791.09      0.00      0.00
                                0.00   -791.09      0.00
                                0.00      0.00   -764.55

     hartree stress (kbar)  50970.45      0.00     -0.00
                                0.00  50970.45      0.00
                               -0.00      0.00 -50136.71

     exc-cor stress (kbar)   -481.99     -0.00      0.00
                               -0.00   -481.99     -0.00
                                0.00     -0.00   -529.70

     corecor stress (kbar)   -538.91      0.00     -0.00
                                0.00   -538.91      0.00
                               -0.00      0.00   -527.25

     ewald   stress (kbar)  50866.17     -0.01     -0.00
                               -0.01  50866.17      0.00
                               -0.00      0.00 -58786.16

     hubbard stress (kbar)      0.00      0.00      0.00
                                0.00      0.00      0.00
                                0.00      0.00      0.00

     DFT-D   stress (kbar)      0.00      0.00      0.00
                                0.00      0.00      0.00
                                0.00      0.00      0.00

     XDM     stress (kbar)      0.00      0.00      0.00
                                0.00      0.00      0.00
                                0.00      0.00      0.00

     dft-nl  stress (kbar)      4.31      0.00      0.00
                                0.00      4.31     -0.00
                                0.00     -0.00     27.88

     TS-vdW  stress (kbar)      0.00      0.00      0.00
                                0.00      0.00      0.00
                                0.00      0.00      0.00

     MDB     stress (kbar)      0.00      0.00      0.00
                                0.00      0.00      0.00
                                0.00      0.00      0.00

     3D-RISM stress (kbar)      0.00      0.00      0.00
                                0.00      0.00      0.00
                                0.00      0.00      0.00

     Energy error            =      6.9E-07 Ry
     Gradient error          =      2.0E-04 Ry/Bohr
     Cell gradient error     =      3.8E-01 kbar

     bfgs converged in   3 scf cycles and   2 bfgs steps
     (criteria: energy <  1.0E-04 Ry, force <  1.0E-03 Ry/Bohr, cell <  5.0E-01 kbar)

     End of BFGS Geometry Optimization

     Final enthalpy           =     -53.7022298255 Ry

     File ./tmp/BN2L_A1B_PBE_vdW.bfgs deleted, as requested
Begin final coordinates
     new unit-cell volume =    741.41989 a.u.^3 (   109.86709 Ang^3 )
     density =      0.72581 g/cm^3

CELL_PARAMETERS (alat=  4.74700000)
   1.000109943   0.000000000   0.000000000
  -0.500054971   0.866120617  -0.000000000
   0.000000000  -0.000000000   8.001665940

ATOMIC_POSITIONS (crystal)
N             0.0000000000        0.0000000000       -0.0000195253
B             0.3333330000        0.6666666000        0.0000043608
N             0.0000000000        0.0000000000        0.1744448077
B             0.6666670000        0.3333330000        0.1744173567
End final coordinates



     Writing config-only to output data dir ./tmp/BN2L_A1B_PBE_vdW.save/

     Final scf calculation at the relaxed structure.
     The G-vectors are recalculated for the final unit cell
     Results may differ from those at the preceding step.

     Parallelization info
     --------------------
     sticks:   dense  smooth     PW     G-vecs:    dense   smooth      PW
     Min          93      93     26                16475    16475    2578
     Max          94      94     27                16514    16514    2603
     Sum         745     745    211               131869   131869   20693

     Using Slab Decomposition



     bravais-lattice index     =            4
     lattice parameter (alat)  =       4.7470  a.u.
     unit-cell volume          =     741.4199 (a.u.)^3
     number of atoms/cell      =            4
     number of atomic types    =            2
     number of electrons       =        16.00
     number of Kohn-Sham states=           12
     kinetic-energy cutoff     =     120.0000  Ry
     charge density cutoff     =     480.0000  Ry
     scf convergence threshold =      1.0E-08
     mixing beta               =       0.7000
     number of iterations used =            8  plain     mixing
     press convergence thresh. =      5.0E-01
     Exchange-correlation= VDW-DF2-B86R
                           (   1   4  26   0   2   0   0)

     celldm(1)=   4.747000  celldm(2)=   0.000000  celldm(3)=   8.000000
     celldm(4)=   0.000000  celldm(5)=   0.000000  celldm(6)=   0.000000

     crystal axes: (cart. coord. in units of alat)
               a(1) = (   1.000110   0.000000   0.000000 )  
               a(2) = (  -0.500055   0.866121  -0.000000 )  
               a(3) = (   0.000000  -0.000000   8.001666 )  

     reciprocal axes: (cart. coord. in units 2 pi/alat)
               b(1) = (  0.999890  0.577287  0.000000 )  
               b(2) = ( -0.000000  1.154574  0.000000 )  
               b(3) = ( -0.000000  0.000000  0.124974 )  


     PseudoPot. # 1 for B  read from file:
     ../../../../Pseudo/PBE/B.upf
     MD5 check sum: 72f82fc31bc892420d0cab7e25c88ab8
     Pseudo is Norm-conserving + core correction, Zval =  3.0
     Generated using ONCVPSP code by D. R. Hamann
     Using radial grid of 1534 points,  4 beta functions with: 
                l(1) =   0
                l(2) =   0
                l(3) =   1
                l(4) =   1

     PseudoPot. # 2 for N  read from file:
     ../../../../Pseudo/PBE/N.upf
     MD5 check sum: d34365f73bb0e2ee98afc20ec3e87676
     Pseudo is Norm-conserving + core correction, Zval =  5.0
     Generated using ONCVPSP code by D. R. Hamann
     Using radial grid of 1058 points,  4 beta functions with: 
                l(1) =   0
                l(2) =   0
                l(3) =   1
                l(4) =   1

     atomic species   valence    mass     pseudopotential
        B              3.00    10.00000     B ( 1.00)
        N              5.00    14.01100     N ( 1.00)

      6 Sym. Ops. (no inversion) found


                                    s                        frac. trans.

      isym =  1     identity                                     

 cryst.   s( 1) = (     1          0          0      )
                  (     0          1          0      )
                  (     0          0          1      )

 cart.    s( 1) = (  1.0000000  0.0000000  0.0000000 )
                  (  0.0000000  1.0000000  0.0000000 )
                  (  0.0000000  0.0000000  1.0000000 )


      isym =  2     120 deg rotation - cryst. axis [0,0,1]       

 cryst.   s( 2) = (     0          1          0      )
                  (    -1         -1          0      )
                  (     0          0          1      )

 cart.    s( 2) = ( -0.5000000 -0.8660254  0.0000000 )
                  (  0.8660254 -0.5000000  0.0000000 )
                  (  0.0000000  0.0000000  1.0000000 )


      isym =  3     120 deg rotation - cryst. axis [0,0,-1]      

 cryst.   s( 3) = (    -1         -1          0      )
                  (     1          0          0      )
                  (     0          0          1      )

 cart.    s( 3) = ( -0.5000000  0.8660254  0.0000000 )
                  ( -0.8660254 -0.5000000  0.0000000 )
                  (  0.0000000  0.0000000  1.0000000 )


      isym =  4     inv. 180 deg rotation - cart. axis [1,0,0]   

 cryst.   s( 4) = (    -1          0          0      )
                  (     1          1          0      )
                  (     0          0          1      )

 cart.    s( 4) = ( -1.0000000  0.0000000  0.0000000 )
                  (  0.0000000  1.0000000  0.0000000 )
                  (  0.0000000  0.0000000  1.0000000 )


      isym =  5     inv. 180 deg rotation - cryst. axis [0,1,0]  

 cryst.   s( 5) = (     1          1          0      )
                  (     0         -1          0      )
                  (     0          0          1      )

 cart.    s( 5) = (  0.5000000  0.8660254  0.0000000 )
                  (  0.8660254 -0.5000000  0.0000000 )
                  (  0.0000000  0.0000000  1.0000000 )


      isym =  6     inv. 180 deg rotation - cryst. axis [1,1,0]  

 cryst.   s( 6) = (     0         -1          0      )
                  (    -1          0          0      )
                  (     0          0          1      )

 cart.    s( 6) = (  0.5000000 -0.8660254  0.0000000 )
                  ( -0.8660254 -0.5000000  0.0000000 )
                  (  0.0000000  0.0000000  1.0000000 )


     point group C_3v (3m)  
     there are  3 classes
     the character table:

       E     2C3   3s_v 
A_1    1.00  1.00  1.00
A_2    1.00  1.00 -1.00
E      2.00 -1.00  0.00

[...]
     estimated scf accuracy    <       0.00081541 Ry

     iteration #  6     ecut=   120.00 Ry     beta= 0.70
     Davidson diagonalization with overlap

---- Real-time Memory Report at c_bands before calling an iterative solver
             0 MiB given to the printing process from OS
             0 MiB allocation reported by mallinfo(arena+hblkhd)
             0 MiB available memory on the node where the printing process lives
------------------
     ethr =  5.10E-06,  avg # of iterations =  3.2


     -----------------------------------------------
     Non-local corr. energy    =       0.20349669 Ry
     -----------------------------------------------


     total cpu time spent up to now is       70.8 secs

     total energy              =     -53.70222851 Ry
     estimated scf accuracy    <       0.00004196 Ry

     iteration #  7     ecut=   120.00 Ry     beta= 0.70
     Davidson diagonalization with overlap

---- Real-time Memory Report at c_bands before calling an iterative solver
             0 MiB given to the printing process from OS
             0 MiB allocation reported by mallinfo(arena+hblkhd)
             0 MiB available memory on the node where the printing process lives
------------------
     ethr =  2.62E-07,  avg # of iterations =  3.5


     -----------------------------------------------
     Non-local corr. energy    =       0.20350785 Ry
     -----------------------------------------------


     total cpu time spent up to now is       72.1 secs

     total energy              =     -53.70222745 Ry
     estimated scf accuracy    <       0.00001492 Ry

     iteration #  8     ecut=   120.00 Ry     beta= 0.70
     Davidson diagonalization with overlap

---- Real-time Memory Report at c_bands before calling an iterative solver
             0 MiB given to the printing process from OS
             0 MiB allocation reported by mallinfo(arena+hblkhd)
             0 MiB available memory on the node where the printing process lives
------------------
     ethr =  9.32E-08,  avg # of iterations =  2.0


     -----------------------------------------------
     Non-local corr. energy    =       0.20350995 Ry
     -----------------------------------------------


     total cpu time spent up to now is       73.2 secs

     total energy              =     -53.70222956 Ry
     estimated scf accuracy    <       0.00000036 Ry

     iteration #  9     ecut=   120.00 Ry     beta= 0.70
     Davidson diagonalization with overlap

---- Real-time Memory Report at c_bands before calling an iterative solver
             0 MiB given to the printing process from OS
             0 MiB allocation reported by mallinfo(arena+hblkhd)
             0 MiB available memory on the node where the printing process lives
------------------
     ethr =  2.26E-09,  avg # of iterations =  4.1


     -----------------------------------------------
     Non-local corr. energy    =       0.20351055 Ry
     -----------------------------------------------


     total cpu time spent up to now is       74.7 secs

     total energy              =     -53.70222986 Ry
     estimated scf accuracy    <       0.00000005 Ry

     iteration # 10     ecut=   120.00 Ry     beta= 0.70
     Davidson diagonalization with overlap

---- Real-time Memory Report at c_bands before calling an iterative solver
             0 MiB given to the printing process from OS
             0 MiB allocation reported by mallinfo(arena+hblkhd)
             0 MiB available memory on the node where the printing process lives
------------------
     ethr =  3.02E-10,  avg # of iterations =  1.6


     -----------------------------------------------
     Non-local corr. energy    =       0.20351028 Ry
     -----------------------------------------------


     total cpu time spent up to now is       75.7 secs

     total energy              =     -53.70222985 Ry
     estimated scf accuracy    <       0.00000002 Ry

     iteration # 11     ecut=   120.00 Ry     beta= 0.70
     Davidson diagonalization with overlap

---- Real-time Memory Report at c_bands before calling an iterative solver
             0 MiB given to the printing process from OS
             0 MiB allocation reported by mallinfo(arena+hblkhd)
             0 MiB available memory on the node where the printing process lives
------------------
     ethr =  1.02E-10,  avg # of iterations =  1.9


     -----------------------------------------------
     Non-local corr. energy    =       0.20351098 Ry
     -----------------------------------------------


     total cpu time spent up to now is       76.8 secs

     End of self-consistent calculation

          k = 0.0000 0.0000 0.0000 ( 16459 PWs)   bands (ev):

   -20.1133 -20.0133  -8.1170  -7.2821  -3.8716  -3.8716  -3.8621  -3.8620
     1.9693   2.5416   3.6896   4.6169

     occupation numbers 
     1.0000   1.0000   1.0000   1.0000   1.0000   1.0000   1.0000   1.0000
     0.0000   0.0000   0.0000   0.0000

          k = 0.0000 0.0962 0.0000 ( 16505 PWs)   bands (ev):

   -19.9802 -19.8817  -7.9348  -7.1079  -4.4282  -4.4076  -4.1268  -4.1156
     2.2018   2.7555   3.9102   4.8091

     occupation numbers 
     1.0000   1.0000   1.0000   1.0000   1.0000   1.0000   1.0000   1.0000
     0.0000   0.0000   0.0000   0.0000

          k = 0.0000 0.1924 0.0000 ( 16483 PWs)   bands (ev):

   -19.5883 -19.4945  -7.3964  -6.5959  -5.8273  -5.7880  -4.7491  -4.7348
     2.8608   3.3780   4.5517   5.3020

     occupation numbers 
     1.0000   1.0000   1.0000   1.0000   1.0000   1.0000   1.0000   1.0000
     0.0000   0.0000   0.0000   0.0000

          k = 0.0000 0.2886 0.0000 ( 16460 PWs)   bands (ev):

   -18.9648 -18.8789  -7.6048  -7.5499  -6.5220  -5.7692  -5.4717  -5.4548
     3.8993   4.3376   5.2893   5.8268

     occupation numbers 
     1.0000   1.0000   1.0000   1.0000   1.0000   1.0000   1.0000   1.0000
     0.0000   0.0000   0.0000   0.0000

          k = 0.0000 0.3849 0.0000 ( 16432 PWs)   bands (ev):

   -18.1786 -18.1037  -9.3680  -9.2998  -6.0933  -6.0747  -5.3982  -4.7237
     4.2016   4.7719   5.2555   6.3657

     occupation numbers 
     1.0000   1.0000   1.0000   1.0000   1.0000   1.0000   1.0000   1.0000
     0.0000   0.0000   0.0000   0.0000

          k = 0.0000 0.4811 0.0000 ( 16464 PWs)   bands (ev):

   -17.4060 -17.3445 -10.7811 -10.6982  -6.5014  -6.4818  -4.2220  -3.6742
     2.6068   3.4858   6.5947   7.3105

     occupation numbers 
     1.0000   1.0000   1.0000   1.0000   1.0000   1.0000   1.0000   1.0000
     0.0000   0.0000   0.0000   0.0000

          k = 0.0000-0.5773-0.0000 ( 16490 PWs)   bands (ev):

   -17.0423 -16.9886 -11.3663 -11.2753  -6.6426  -6.6228  -3.6125  -3.1682
     1.8248   2.8027   7.0505   7.4470

     occupation numbers 
     1.0000   1.0000   1.0000   1.0000   1.0000   1.0000   1.0000   1.0000
     0.0000   0.0000   0.0000   0.0000

          k = 0.0833 0.1443 0.0000 ( 16509 PWs)   bands (ev):

   -19.7176 -19.6222  -7.5742  -6.7642  -5.3393  -5.3058  -4.6319  -4.6178
     2.6484   3.1744   4.3431   5.1570

     occupation numbers 
     1.0000   1.0000   1.0000   1.0000   1.0000   1.0000   1.0000   1.0000
     0.0000   0.0000   0.0000   0.0000

          k = 0.0833 0.2405 0.0000 ( 16457 PWs)   bands (ev):

   -19.2085 -19.1194  -6.9069  -6.7793  -6.7719  -6.0886  -5.4153  -5.3963
     3.5044   3.9769   5.1386   5.6395

     occupation numbers 
     1.0000   1.0000   1.0000   1.0000   1.0000   1.0000   1.0000   1.0000
     0.0000   0.0000   0.0000   0.0000

          k = 0.0833 0.3368 0.0000 ( 16449 PWs)   bands (ev):

   -18.4973 -18.4176  -8.5221  -8.4616  -6.1579  -6.1350  -5.8604  -5.1494
     4.7277   4.8781   4.9064   6.3787

     occupation numbers 
     1.0000   1.0000   1.0000   1.0000   1.0000   1.0000   1.0000   1.0000
     0.0000   0.0000   0.0000   0.0000

          k = 0.0833 0.4330 0.0000 ( 16446 PWs)   bands (ev):

   -17.6941 -17.6269 -10.0989 -10.0244  -6.7061  -6.6808  -4.6785  -4.0690
     3.3714   4.1115   6.2271   7.0927

     occupation numbers 
     1.0000   1.0000   1.0000   1.0000   1.0000   1.0000   1.0000   1.0000
     0.0000   0.0000   0.0000   0.0000

          k = 0.0833 0.5292 0.0000 ( 16468 PWs)   bands (ev):

   -17.0739 -17.0187 -11.1356 -11.0484  -6.9937  -6.9674  -3.6829  -3.2101
     2.0772   2.9780   7.4101   7.9340

     occupation numbers 
     1.0000   1.0000   1.0000   1.0000   1.0000   1.0000   1.0000   1.0000
     0.0000   0.0000   0.0000   0.0000

          k = 0.1666 0.2886 0.0000 ( 16470 PWs)   bands (ev):

   -18.6076 -18.5264  -8.0231  -7.9671  -6.4254  -6.3980  -6.0188  -5.2960
     4.5614   4.8283   5.1481   6.5048

     occupation numbers 
     1.0000   1.0000   1.0000   1.0000   1.0000   1.0000   1.0000   1.0000
     0.0000   0.0000   0.0000   0.0000

          k = 0.1666 0.3849 0.0000 ( 16424 PWs)   bands (ev):

   -17.8577 -17.7873  -9.3648  -9.2994  -7.2874  -7.2521  -4.9324  -4.2911
     3.9996   4.5358   5.9913   6.8222

     occupation numbers 
     1.0000   1.0000   1.0000   1.0000   1.0000   1.0000   1.0000   1.0000
     0.0000   0.0000   0.0000   0.0000

          k = 0.1666 0.4811 0.0000 ( 16461 PWs)   bands (ev):

   -17.1345 -17.0766 -10.5446 -10.4670  -7.8066  -7.7673  -3.8117  -3.2924
     2.6447   3.3192   7.6623   8.3414

     occupation numbers 
     1.0000   1.0000   1.0000   1.0000   1.0000   1.0000   1.0000   1.0000
     0.0000   0.0000   0.0000   0.0000

          k = 0.1666 0.5773 0.0000 ( 16464 PWs)   bands (ev):

   -16.8015 -16.7506 -11.0472 -10.9626  -7.9776  -7.9370  -3.2424  -2.8143
     1.9702   2.7309   8.7204   9.1036

     occupation numbers 
     1.0000   1.0000   1.0000   1.0000   1.0000   1.0000   1.0000   1.0000
     0.0000   0.0000   0.0000   0.0000

          k = 0.2500 0.4330 0.0000 ( 16426 PWs)   bands (ev):

   -17.1635 -17.1045 -10.0856 -10.0165  -8.3673  -8.3211  -3.8712  -3.3325
     2.9924   3.4617   7.6037   8.1986

     occupation numbers 
     1.0000   1.0000   1.0000   1.0000   1.0000   1.0000   1.0000   1.0000
     0.0000   0.0000   0.0000   0.0000

          k = 0.2500 0.5292 0.0000 ( 16467 PWs)   bands (ev):

   -16.6590 -16.6096 -10.5940 -10.5218  -8.9733  -8.9223  -3.0249  -2.5974
     2.1941   2.6222   9.2554   9.3804

     occupation numbers 
     1.0000   1.0000   1.0000   1.0000   1.0000   1.0000   1.0000   1.0000
     0.0000   0.0000   0.0000   0.0000

          k = 0.3333 0.5773 0.0000 ( 16482 PWs)   bands (ev):

   -16.4670 -16.4213 -10.3441 -10.3439  -9.6230  -9.6228  -2.6860  -2.2992
     2.1805   2.1808   9.4935   9.4935

     occupation numbers 
     1.0000   1.0000   1.0000   1.0000   1.0000   1.0000   1.0000   1.0000
     0.0000   0.0000   0.0000   0.0000

     the Fermi energy is    -1.4390 ev

!    total energy              =     -53.70222985 Ry
     estimated scf accuracy    <          3.7E-09 Ry
     smearing contrib. (-TS)   =       0.00000000 Ry
     internal energy E=F+TS    =     -53.70222985 Ry

     The total energy is F=E-TS. E is the sum of the following terms:
     one-electron contribution =    -513.87769422 Ry
     hartree contribution      =     261.09670352 Ry
     xc contribution           =     -17.37296147 Ry
     ewald contribution        =     216.45172231 Ry

     convergence has been achieved in  11 iterations


     -----------------------------------------------
     Non-local corr. energy    =       0.20351098 Ry
     -----------------------------------------------


     Forces acting on atoms (cartesian axes, Ry/au):

     atom    1 type  2   force =     0.00000000   -0.00000000   -0.00021168
     atom    2 type  1   force =     0.00000000   -0.00000000   -0.00010017
     atom    3 type  2   force =     0.00000000   -0.00000000    0.00017224
     atom    4 type  1   force =     0.00000000   -0.00000000    0.00013961
     The non-local contrib.  to forces
     atom    1 type  2   force =     0.00000000   -0.00000000   -0.00042628
     atom    2 type  1   force =     0.00000000    0.00000000   -0.00071962
     atom    3 type  2   force =     0.00000000    0.00000000    0.00022454
     atom    4 type  1   force =     0.00000000    0.00000000    0.00071324
     The ionic contribution  to forces
     atom    1 type  2   force =    -0.00000462   -0.00000089  -16.77483129
     atom    2 type  1   force =     0.00000463    0.00000089  -10.05347567
     atom    3 type  2   force =     0.00000770   -0.00000445   16.77557270
     atom    4 type  1   force =    -0.00000771    0.00000445   10.05273427
     The local contribution  to forces
     atom    1 type  2   force =    -0.00000000   -0.00000000   16.77504384
     atom    2 type  1   force =    -0.00000251   -0.00000048   10.05410048
     atom    3 type  2   force =     0.00000000    0.00000000  -16.77561761
     atom    4 type  1   force =     0.00000418   -0.00000241  -10.05330992
     The core correction contribution to forces
     atom    1 type  2   force =    -0.00000000   -0.00000000   -0.00000287
     atom    2 type  1   force =    -0.00000015   -0.00000003   -0.00000681
     atom    3 type  2   force =     0.00000000   -0.00000000    0.00000783
     atom    4 type  1   force =     0.00000025   -0.00000015    0.00000856
     The Hubbard contrib.    to forces
     atom    1 type  2   force =     0.00000000    0.00000000    0.00000000
     atom    2 type  1   force =     0.00000000    0.00000000    0.00000000
     atom    3 type  2   force =     0.00000000    0.00000000    0.00000000
     atom    4 type  1   force =     0.00000000    0.00000000    0.00000000
     The SCF correction term to forces
     atom    1 type  2   force =    -0.00000000   -0.00000000    0.00000513
     atom    2 type  1   force =     0.00000000    0.00000000    0.00000167
     atom    3 type  2   force =     0.00000000   -0.00000000   -0.00001500
     atom    4 type  1   force =    -0.00000000    0.00000000   -0.00000632

     Total force =     0.000322     Total SCF correction =     0.000017


     Computing stress (Cartesian axis) and pressure



     -----------------------------------------------
     Non-local corr. energy    =       0.20351098 Ry
     -----------------------------------------------

          total   stress  (Ry/bohr**3)                   (kbar)     P=        0.10
  -0.00000032  -0.00000000  -0.00000000           -0.05       -0.00       -0.00
  -0.00000000  -0.00000032   0.00000000           -0.00       -0.05        0.00
  -0.00000000   0.00000000   0.00000267           -0.00        0.00        0.39

     kinetic stress (kbar)   4797.69      0.00      0.00
                                0.00   4797.69     -0.00
                                0.00     -0.00   5223.86

     local   stress (kbar)-104826.65      0.00      0.00
                                0.00-104826.65     -0.00
                                0.00     -0.00 105493.01

     nonloc. stress (kbar)   -791.09      0.00      0.00
                                0.00   -791.09     -0.00
                                0.00     -0.00   -764.55

     hartree stress (kbar)  50970.43     -0.00     -0.00
                               -0.00  50970.43      0.00
                               -0.00      0.00 -50136.69

     exc-cor stress (kbar)   -481.99     -0.00      0.00
                               -0.00   -481.99     -0.00
                                0.00     -0.00   -529.71

     corecor stress (kbar)   -538.91      0.00     -0.00
                                0.00   -538.91      0.00
                               -0.00      0.00   -527.25

     ewald   stress (kbar)  50866.17     -0.01     -0.00
                               -0.01  50866.17      0.00
                               -0.00      0.00 -58786.16

     hubbard stress (kbar)      0.00      0.00      0.00
                                0.00      0.00      0.00
                                0.00      0.00      0.00

     DFT-D   stress (kbar)      0.00      0.00      0.00
                                0.00      0.00      0.00
                                0.00      0.00      0.00

     XDM     stress (kbar)      0.00      0.00      0.00
                                0.00      0.00      0.00
                                0.00      0.00      0.00

     dft-nl  stress (kbar)      4.31      0.00      0.00
                                0.00      4.31     -0.00
                                0.00     -0.00     27.88

     TS-vdW  stress (kbar)      0.00      0.00      0.00
                                0.00      0.00      0.00
                                0.00      0.00      0.00

     MDB     stress (kbar)      0.00      0.00      0.00
                                0.00      0.00      0.00
                                0.00      0.00      0.00

     3D-RISM stress (kbar)      0.00      0.00      0.00
                                0.00      0.00      0.00
                                0.00      0.00      0.00


     Writing all to output data dir ./tmp/BN2L_A1B_PBE_vdW.save/

     init_run     :     12.63s CPU     12.75s WALL (       2 calls)
     electrons    :     49.20s CPU     48.31s WALL (       4 calls)
     update_pot   :      3.20s CPU      3.26s WALL (       2 calls)
     forces       :      4.42s CPU      4.56s WALL (       4 calls)
     stress       :     11.02s CPU     11.91s WALL (       4 calls)

     Called by init_run:
     wfcinit      :      0.83s CPU      0.83s WALL (       2 calls)
     wfcinit:atom :      0.02s CPU      0.03s WALL (      38 calls)
     wfcinit:wfcr :      0.73s CPU      0.72s WALL (      38 calls)
     potinit      :      9.67s CPU      9.78s WALL (       2 calls)
     hinit0       :      1.67s CPU      1.68s WALL (       2 calls)

     Called by electrons:
     c_bands      :     38.62s CPU     36.81s WALL (      34 calls)
     sum_band     :      4.75s CPU      4.84s WALL (      34 calls)
     v_of_rho     :     14.83s CPU     15.64s WALL (      37 calls)
     v_h          :      0.08s CPU      0.08s WALL (      37 calls)
     v_xc         :     16.11s CPU     17.09s WALL (      45 calls)
     mix_rho      :      0.20s CPU      0.30s WALL (      34 calls)
     vdW_kernel   :      8.65s CPU      8.72s WALL (       1 calls)

     Called by c_bands:
     init_us_2    :      0.95s CPU      0.97s WALL (    1482 calls)
     init_us_2:cp :      0.95s CPU      0.96s WALL (    1482 calls)
     cegterg      :     37.27s CPU     35.42s WALL (     646 calls)

     Called by sum_band:
     sum_band:wei :      0.00s CPU      0.00s WALL (      34 calls)
     sum_band:loo :      4.61s CPU      4.70s WALL (      34 calls)
     sum_band:buf :      0.17s CPU      0.18s WALL (     646 calls)
     sum_band:ini :      0.44s CPU      0.44s WALL (     646 calls)

     Called by *egterg:
     cdiaghg      :      0.54s CPU      0.54s WALL (    2820 calls)
     cegterg:over :      1.94s CPU      1.98s WALL (    2231 calls)
     cegterg:upda :      1.59s CPU      1.23s WALL (    2231 calls)
     cegterg:last :      2.36s CPU      1.57s WALL (    1577 calls)
     h_psi        :     30.36s CPU     29.48s WALL (    2915 calls)
     g_psi        :      0.19s CPU      0.22s WALL (    2231 calls)

     Called by h_psi:
     h_psi:calbec :      2.39s CPU      2.21s WALL (    2915 calls)
     vloc_psi     :     24.49s CPU     24.97s WALL (    2915 calls)
     add_vuspsi   :      3.19s CPU      1.99s WALL (    2915 calls)

     General routines
     calbec       :      2.82s CPU      2.64s WALL (    3295 calls)
     fft          :      3.30s CPU      3.38s WALL (    2895 calls)
     ffts         :      0.03s CPU      0.03s WALL (      34 calls)
     fftw         :     24.19s CPU     24.61s WALL (   54584 calls)

     Parallel routines

     PWSCF        :   1m20.61s CPU   1m20.98s WALL


   This run was terminated on:  18:29:20  17Apr2024            

=------------------------------------------------------------------------------=
   JOB DONE.
=------------------------------------------------------------------------------=
