
     Program PWSCF v.7.2 starts on  8Apr2024 at 13:44:18 

     This program is part of the open-source Quantum ESPRESSO suite
     for quantum simulation of materials; please cite
         "P. Giannozzi et al., J. Phys.:Condens. Matter 21 395502 (2009);
         "P. Giannozzi et al., J. Phys.:Condens. Matter 29 465901 (2017);
         "P. Giannozzi et al., J. Chem. Phys. 152 154105 (2020);
          URL http://www.quantum-espresso.org", 
     in publications or presentations arising from this work. More details at
     http://www.quantum-espresso.org/quote

     Parallel version (MPI & OpenMP), running on       8 processor cores
     Number of MPI processes:                 8
     Threads/MPI process:                     1

     MPI processes distributed on     1 nodes
     0 MiB available memory on the printing compute node when the environment starts

     Waiting for input...
     Reading input from standard input

     Current dimensions of program PWSCF are:
     Max number of different atomic species (ntypx) = 10
     Max number of k-points (npk) =  40000
     Max angular momentum in pseudopotentials (lmaxx) =  4

     IMPORTANT: XC functional enforced from input :
     Exchange-correlation= VDW-DF2-B86R
                           (   1   4  26   0   2   0   0)
     Any further DFT definition will be discarded
     Please, verify this is what you really want


     R & G space division:  proc/nbgrp/npool/nimage =       8
     Subspace diagonalization in iterative solution of the eigenvalue problem:
     a serial algorithm will be used


     Parallelization info
     --------------------
     sticks:   dense  smooth     PW     G-vecs:    dense   smooth      PW
     Min          93      93     26                16393    16393    2566
     Max          94      94     27                16428    16428    2595
     Sum         745     745    211               131209   131209   20621

     Using Slab Decomposition



     bravais-lattice index     =            4
     lattice parameter (alat)  =       4.7400  a.u.
     unit-cell volume          =     737.8289 (a.u.)^3
     number of atoms/cell      =            4
     number of atomic types    =            2
     number of electrons       =        16.00
     number of Kohn-Sham states=           12
     kinetic-energy cutoff     =     120.0000  Ry
     charge density cutoff     =     480.0000  Ry
     scf convergence threshold =      1.0E-06
     mixing beta               =       0.7000
     number of iterations used =            8  plain     mixing
     energy convergence thresh.=      1.0E-04
     force convergence thresh. =      1.0E-03
     press convergence thresh. =      5.0E-01
     Exchange-correlation= VDW-DF2-B86R
                           (   1   4  26   0   2   0   0)
     nstep                     =           50


     celldm(1)=   4.740000  celldm(2)=   0.000000  celldm(3)=   8.000000
     celldm(4)=   0.000000  celldm(5)=   0.000000  celldm(6)=   0.000000

     crystal axes: (cart. coord. in units of alat)
               a(1) = (   1.000000   0.000000   0.000000 )  
               a(2) = (  -0.500000   0.866025   0.000000 )  
               a(3) = (   0.000000   0.000000   8.000000 )  

     reciprocal axes: (cart. coord. in units 2 pi/alat)
               b(1) = (  1.000000  0.577350 -0.000000 )  
               b(2) = (  0.000000  1.154701  0.000000 )  
               b(3) = (  0.000000 -0.000000  0.125000 )  


     PseudoPot. # 1 for B  read from file:
     ../../../Pseudo/PBE/B.upf
     MD5 check sum: 72f82fc31bc892420d0cab7e25c88ab8
     Pseudo is Norm-conserving + core correction, Zval =  3.0
     Generated using ONCVPSP code by D. R. Hamann
     Using radial grid of 1534 points,  4 beta functions with: 
                l(1) =   0
                l(2) =   0
                l(3) =   1
                l(4) =   1

     PseudoPot. # 2 for N  read from file:
     ../../../Pseudo/PBE/N.upf
     MD5 check sum: d34365f73bb0e2ee98afc20ec3e87676
     Pseudo is Norm-conserving + core correction, Zval =  5.0
     Generated using ONCVPSP code by D. R. Hamann
     Using radial grid of 1058 points,  4 beta functions with: 
                l(1) =   0
                l(2) =   0
                l(3) =   1
                l(4) =   1

     atomic species   valence    mass     pseudopotential
        B              3.00    10.00000     B ( 1.00)
        N              5.00    14.01100     N ( 1.00)

      6 Sym. Ops. (no inversion) found


                                    s                        frac. trans.

      isym =  1     identity                                     

 cryst.   s( 1) = (     1          0          0      )
                  (     0          1          0      )
                  (     0          0          1      )

 cart.    s( 1) = (  1.0000000  0.0000000  0.0000000 )
                  (  0.0000000  1.0000000  0.0000000 )
                  (  0.0000000  0.0000000  1.0000000 )


      isym =  2     120 deg rotation - cryst. axis [0,0,1]       

 cryst.   s( 2) = (     0          1          0      )
                  (    -1         -1          0      )
                  (     0          0          1      )

 cart.    s( 2) = ( -0.5000000 -0.8660254  0.0000000 )
                  (  0.8660254 -0.5000000  0.0000000 )
                  (  0.0000000  0.0000000  1.0000000 )


      isym =  3     120 deg rotation - cryst. axis [0,0,-1]      

 cryst.   s( 3) = (    -1         -1          0      )
                  (     1          0          0      )
                  (     0          0          1      )

 cart.    s( 3) = ( -0.5000000  0.8660254  0.0000000 )
                  ( -0.8660254 -0.5000000  0.0000000 )
                  (  0.0000000  0.0000000  1.0000000 )


      isym =  4     inv. 180 deg rotation - cart. axis [1,0,0]   

 cryst.   s( 4) = (    -1          0          0      )
                  (     1          1          0      )
                  (     0          0          1      )

 cart.    s( 4) = ( -1.0000000  0.0000000  0.0000000 )
                  (  0.0000000  1.0000000  0.0000000 )
                  (  0.0000000  0.0000000  1.0000000 )


      isym =  5     inv. 180 deg rotation - cryst. axis [0,1,0]  

 cryst.   s( 5) = (     1          1          0      )
                  (     0         -1          0      )
                  (     0          0          1      )

 cart.    s( 5) = (  0.5000000  0.8660254  0.0000000 )
                  (  0.8660254 -0.5000000  0.0000000 )
                  (  0.0000000  0.0000000  1.0000000 )


      isym =  6     inv. 180 deg rotation - cryst. axis [1,1,0]  

 cryst.   s( 6) = (     0         -1          0      )
                  (    -1          0          0      )
                  (     0          0          1      )

 cart.    s( 6) = (  0.5000000 -0.8660254  0.0000000 )
                  ( -0.8660254 -0.5000000  0.0000000 )
                  (  0.0000000  0.0000000  1.0000000 )


     point group C_3v (3m)  
     there are  3 classes
     the character table:

       E     2C3   3s_v 
A_1    1.00  1.00  1.00
A_2    1.00  1.00 -1.00
E      2.00 -1.00  0.00

     the symmetry operations in each class and the name of the first element:

     E        1
          identity                                               
     2C3      2    3
          120 deg rotation - cryst. axis [0,0,1]                 
     3s_v     4    5    6
          inv. 180 deg rotation - cart. axis [1,0,0]             

   Cartesian axes

     site n.     atom                  positions (alat units)
         1           B   tau(   1) = (   0.0000000   0.0000000   0.0000000  )
         2           N   tau(   2) = (   0.0000000   0.5773497   0.0000000  )
         3           B   tau(   3) = (   0.0000000   0.0000000   1.3112756  )
         4           N   tau(   4) = (   0.5000005   0.2886748   1.3112756  )

   Crystallographic axes

     site n.     atom                  positions (cryst. coord.)
         1           B   tau(   1) = (  0.0000000  0.0000000  0.0000000  )
         2           N   tau(   2) = (  0.3333330  0.6666660  0.0000000  )
         3           B   tau(   3) = (  0.0000000  0.0000000  0.1639095  )
         4           N   tau(   4) = (  0.6666670  0.3333330  0.1639095  )

     number of k points=    19  Marzari-Vanderbilt smearing, width (Ry)=  0.0050
                       cart. coord. in units 2pi/alat
        k(    1) = (   0.0000000   0.0000000   0.0000000), wk =   0.0138889
        k(    2) = (   0.0000000   0.0962250   0.0000000), wk =   0.0833333
        k(    3) = (   0.0000000   0.1924501   0.0000000), wk =   0.0833333
        k(    4) = (   0.0000000   0.2886751   0.0000000), wk =   0.0833333
        k(    5) = (   0.0000000   0.3849002   0.0000000), wk =   0.0833333
        k(    6) = (   0.0000000   0.4811252   0.0000000), wk =   0.0833333
        k(    7) = (   0.0000000  -0.5773503   0.0000000), wk =   0.0416667
        k(    8) = (   0.0833333   0.1443376   0.0000000), wk =   0.0833333
        k(    9) = (   0.0833333   0.2405626   0.0000000), wk =   0.1666667
        k(   10) = (   0.0833333   0.3367877   0.0000000), wk =   0.1666667
        k(   11) = (   0.0833333   0.4330127   0.0000000), wk =   0.1666667
        k(   12) = (   0.0833333   0.5292377   0.0000000), wk =   0.1666667
        k(   13) = (   0.1666667   0.2886751   0.0000000), wk =   0.0833333
        k(   14) = (   0.1666667   0.3849002   0.0000000), wk =   0.1666667
        k(   15) = (   0.1666667   0.4811252   0.0000000), wk =   0.1666667
        k(   16) = (   0.1666667   0.5773503   0.0000000), wk =   0.0833333
        k(   17) = (   0.2500000   0.4330127   0.0000000), wk =   0.0833333
        k(   18) = (   0.2500000   0.5292377   0.0000000), wk =   0.1666667
        k(   19) = (   0.3333333   0.5773503   0.0000000), wk =   0.0277778

                       cryst. coord.
        k(    1) = (   0.0000000   0.0000000   0.0000000), wk =   0.0138889
        k(    2) = (   0.0000000   0.0833333   0.0000000), wk =   0.0833333
        k(    3) = (   0.0000000   0.1666667   0.0000000), wk =   0.0833333
        k(    4) = (   0.0000000   0.2500000   0.0000000), wk =   0.0833333
        k(    5) = (   0.0000000   0.3333333   0.0000000), wk =   0.0833333
        k(    6) = (   0.0000000   0.4166667   0.0000000), wk =   0.0833333
        k(    7) = (   0.0000000  -0.5000000   0.0000000), wk =   0.0416667
        k(    8) = (   0.0833333   0.0833333   0.0000000), wk =   0.0833333
        k(    9) = (   0.0833333   0.1666667   0.0000000), wk =   0.1666667
        k(   10) = (   0.0833333   0.2500000   0.0000000), wk =   0.1666667
        k(   11) = (   0.0833333   0.3333333   0.0000000), wk =   0.1666667
        k(   12) = (   0.0833333   0.4166667   0.0000000), wk =   0.1666667
        k(   13) = (   0.1666667   0.1666667   0.0000000), wk =   0.0833333
        k(   14) = (   0.1666667   0.2500000   0.0000000), wk =   0.1666667
        k(   15) = (   0.1666667   0.3333333   0.0000000), wk =   0.1666667
        k(   16) = (   0.1666667   0.4166667   0.0000000), wk =   0.0833333
        k(   17) = (   0.2500000   0.2500000   0.0000000), wk =   0.0833333
        k(   18) = (   0.2500000   0.3333333   0.0000000), wk =   0.1666667
        k(   19) = (   0.3333333   0.3333333   0.0000000), wk =   0.0277778

     Dense  grid:   131209 G-vectors     FFT dimensions: (  36,  36, 270)

     Dynamical RAM for                 wfc:       0.37 MB

     Dynamical RAM for     wfc (w. buffer):       7.50 MB

     Dynamical RAM for           str. fact:       0.50 MB

     Dynamical RAM for           local pot:       0.00 MB

     Dynamical RAM for          nlocal pot:       1.00 MB

     Dynamical RAM for                qrad:       2.01 MB

     Dynamical RAM for          rho,v,vnew:       1.76 MB

     Dynamical RAM for               rhoin:       0.59 MB

     Dynamical RAM for            rho*nmix:       4.00 MB

     Dynamical RAM for           G-vectors:       1.06 MB

     Dynamical RAM for          h,s,v(r/c):       0.03 MB

     Dynamical RAM for          <psi|beta>:       0.01 MB

     Dynamical RAM for                 psi:       0.75 MB

     Dynamical RAM for                hpsi:       0.75 MB

     Dynamical RAM for      wfcinit/wfcrot:       1.01 MB

     Estimated static dynamical RAM per process >      16.84 MB

     Estimated max dynamical RAM per process >      22.38 MB

     Estimated total dynamical RAM >     179.03 MB

     Initial potential from superposition of free atoms

     starting charge      15.9995, renormalised to      16.0000

     negative rho (up, down):  4.140E-06 0.000E+00


     %%%%%%%%%%%%%%%%%%%%%%%%%%%%%%%%%%%%%%%%%%%%%%%%%%%%%%%%%%%%%%%%%%%%%%%%
     %                                                                      %
     % You are using vdW-DF, which was implemented by the Thonhauser group. %
     % Please cite the following two papers that made this development      %
     % possible and the two reviews that describe the various versions:     %
     %                                                                      %
     %   T. Thonhauser et al., PRL 115, 136402 (2015).                      %
     %   T. Thonhauser et al., PRB 76, 125112 (2007).                       %
     %   K. Berland et al., Rep. Prog. Phys. 78, 066501 (2015).             %
     %   D.C. Langreth et al., J. Phys.: Condens. Matter 21, 084203 (2009). %
     %                                                                      %
     % If you are calculating stress with vdW-DF, please also cite:         %
     %                                                                      %
     %   R. Sabatini et al., J. Phys.: Condens. Matter 24, 424209 (2012).   %
     %                                                                      %
     %%%%%%%%%%%%%%%%%%%%%%%%%%%%%%%%%%%%%%%%%%%%%%%%%%%%%%%%%%%%%%%%%%%%%%%%

     %%%%%%%%%%%%%%%%%%%%%%%%%%%%%%%%%%%%%%%%%%%%%%%%%%%%%%%%%%%%%%%%%%%%%%%%
     %                                                                      %
     %  vdW-DF NEWS:                                                        %
     %                                                                      %
     %  * vdW-DF3 is now available. DOI: 10.1021/acs.jctc.0c00471           %
     %    use with input_dft = 'vdW-DF3-opt1' or 'vdW-DF3-opt2'             %
     %                                                                      %
     %  * Unscreened and range-separated hybrid vdW-DF-cx functionals       %
     %    DOI: 10.1063/1.4986522 and 10.1088/1361-648X/ac2ad2               %
     %    use with input_dft = 'vdW-DF-cx0'    and 'vdW-DF-ahcx'            %
     %  * Unscreened and range-separated hybrid vdW-DF2-b86r functionals    %
     %    DOI: 10.1063/1.4986522 and DOI: 10.1103/PhysRevX.12.041003        %
     %    use with input_dft = 'vdW-DF2-br0' and 'vdW-DF2-ahbr'             %
     %                                                                      %
     %%%%%%%%%%%%%%%%%%%%%%%%%%%%%%%%%%%%%%%%%%%%%%%%%%%%%%%%%%%%%%%%%%%%%%%%


     Carrying out vdW-DF run using the following parameters:
     Nqs    =  20  Npoints =  1024  r_max =  100.000
     q_mesh =  0.00001000  0.04494208  0.09755937  0.15916263
               0.23128650  0.31572767  0.41458969  0.53033537
               0.66584808  0.82450364  1.01025438  1.22772762
               1.48234092  1.78043706  2.12944203  2.53805004
               3.01644009  3.57652955  4.23227104  5.00000000


     -----------------------------------------------
     Non-local corr. energy    =       0.17447452 Ry
     -----------------------------------------------

     Starting wfcs are   16 randomized atomic wfcs

     total cpu time spent up to now is       10.8 secs

     Self-consistent Calculation

     iteration #  1     ecut=   120.00 Ry     beta= 0.70
     Davidson diagonalization with overlap

---- Real-time Memory Report at c_bands before calling an iterative solver
             0 MiB given to the printing process from OS
             0 MiB allocation reported by mallinfo(arena+hblkhd)
             0 MiB available memory on the node where the printing process lives
------------------
     ethr =  1.00E-02,  avg # of iterations =  4.0


     -----------------------------------------------
     Non-local corr. energy    =       0.20473167 Ry
     -----------------------------------------------


     total cpu time spent up to now is       12.3 secs

     total energy              =     -53.44620611 Ry
     estimated scf accuracy    <       0.76212432 Ry

     iteration #  2     ecut=   120.00 Ry     beta= 0.70
     Davidson diagonalization with overlap

---- Real-time Memory Report at c_bands before calling an iterative solver
             0 MiB given to the printing process from OS
             0 MiB allocation reported by mallinfo(arena+hblkhd)
             0 MiB available memory on the node where the printing process lives
------------------
     ethr =  4.76E-03,  avg # of iterations =  3.6


     -----------------------------------------------
     Non-local corr. energy    =       0.19857844 Ry
     -----------------------------------------------


     total cpu time spent up to now is       13.7 secs

     total energy              =     -53.64499926 Ry
     estimated scf accuracy    <       0.33133867 Ry

     iteration #  3     ecut=   120.00 Ry     beta= 0.70
     Davidson diagonalization with overlap

---- Real-time Memory Report at c_bands before calling an iterative solver
             0 MiB given to the printing process from OS
             0 MiB allocation reported by mallinfo(arena+hblkhd)
             0 MiB available memory on the node where the printing process lives
------------------
     ethr =  2.07E-03,  avg # of iterations =  2.3


     -----------------------------------------------
     Non-local corr. energy    =       0.20049098 Ry
     -----------------------------------------------


     total cpu time spent up to now is       14.8 secs

     total energy              =     -53.69834359 Ry
     estimated scf accuracy    <       0.00565127 Ry

     iteration #  4     ecut=   120.00 Ry     beta= 0.70
     Davidson diagonalization with overlap

---- Real-time Memory Report at c_bands before calling an iterative solver
             0 MiB given to the printing process from OS
             0 MiB allocation reported by mallinfo(arena+hblkhd)
             0 MiB available memory on the node where the printing process lives
------------------
     c_bands:  1 eigenvalues not converged
     ethr =  3.53E-05,  avg # of iterations = 11.6


     -----------------------------------------------
     Non-local corr. energy    =       0.20068316 Ry
     -----------------------------------------------


     total cpu time spent up to now is       17.2 secs

     total energy              =     -53.70312971 Ry
     estimated scf accuracy    <       0.00585666 Ry

     iteration #  5     ecut=   120.00 Ry     beta= 0.70
     Davidson diagonalization with overlap

---- Real-time Memory Report at c_bands before calling an iterative solver
             0 MiB given to the printing process from OS
             0 MiB allocation reported by mallinfo(arena+hblkhd)
             0 MiB available memory on the node where the printing process lives
------------------
     ethr =  3.53E-05,  avg # of iterations =  2.6


     -----------------------------------------------
     Non-local corr. energy    =       0.20066842 Ry
     -----------------------------------------------


     total cpu time spent up to now is       18.3 secs

     total energy              =     -53.70325634 Ry
     estimated scf accuracy    <       0.00114787 Ry

     iteration #  6     ecut=   120.00 Ry     beta= 0.70
     Davidson diagonalization with overlap

---- Real-time Memory Report at c_bands before calling an iterative solver
             0 MiB given to the printing process from OS
             0 MiB allocation reported by mallinfo(arena+hblkhd)
             0 MiB available memory on the node where the printing process lives
------------------
     ethr =  7.17E-06,  avg # of iterations =  4.1

     negative rho (up, down):  2.402E-07 0.000E+00


     -----------------------------------------------
     Non-local corr. energy    =       0.20068597 Ry
     -----------------------------------------------


     total cpu time spent up to now is       19.8 secs

     total energy              =     -53.70358098 Ry
     estimated scf accuracy    <       0.00001700 Ry

     iteration #  7     ecut=   120.00 Ry     beta= 0.70
     Davidson diagonalization with overlap

---- Real-time Memory Report at c_bands before calling an iterative solver
             0 MiB given to the printing process from OS
             0 MiB allocation reported by mallinfo(arena+hblkhd)
             0 MiB available memory on the node where the printing process lives
------------------
     c_bands:  1 eigenvalues not converged
     ethr =  1.06E-07,  avg # of iterations =  7.4


     -----------------------------------------------
     Non-local corr. energy    =       0.20070178 Ry
     -----------------------------------------------


     total cpu time spent up to now is       21.6 secs

     total energy              =     -53.70358322 Ry
     estimated scf accuracy    <       0.00002004 Ry

     iteration #  8     ecut=   120.00 Ry     beta= 0.70
     Davidson diagonalization with overlap

---- Real-time Memory Report at c_bands before calling an iterative solver
             0 MiB given to the printing process from OS
             0 MiB allocation reported by mallinfo(arena+hblkhd)
             0 MiB available memory on the node where the printing process lives
------------------
     ethr =  1.06E-07,  avg # of iterations =  2.5


     -----------------------------------------------
     Non-local corr. energy    =       0.20070295 Ry
     -----------------------------------------------


     total cpu time spent up to now is       22.7 secs

     total energy              =     -53.70358480 Ry
     estimated scf accuracy    <       0.00000110 Ry

     iteration #  9     ecut=   120.00 Ry     beta= 0.70
     Davidson diagonalization with overlap

---- Real-time Memory Report at c_bands before calling an iterative solver
             0 MiB given to the printing process from OS
             0 MiB allocation reported by mallinfo(arena+hblkhd)
             0 MiB available memory on the node where the printing process lives
------------------
     ethr =  6.87E-09,  avg # of iterations =  3.8


     -----------------------------------------------
     Non-local corr. energy    =       0.20070855 Ry
     -----------------------------------------------


     total cpu time spent up to now is       24.1 secs

     End of self-consistent calculation

          k = 0.0000 0.0000 0.0000 ( 16399 PWs)   bands (ev):

   -20.1613 -20.0001  -8.2628  -7.1476  -3.8501  -3.8501  -3.8476  -3.8476
     2.0424   2.5737   3.7215   4.7685

     occupation numbers 
     1.0000   1.0000   1.0000   1.0000   1.0000   1.0000   1.0000   1.0000
     0.0000   0.0000   0.0000   0.0000

          k = 0.0000 0.0962 0.0000 ( 16391 PWs)   bands (ev):

   -20.0272 -19.8685  -8.0792  -6.9749  -4.4104  -4.3904  -4.1113  -4.0976
     2.2745   2.7865   3.9444   4.9844

     occupation numbers 
     1.0000   1.0000   1.0000   1.0000   1.0000   1.0000   1.0000   1.0000
     0.0000   0.0000   0.0000   0.0000

          k = 0.0000 0.1925 0.0000 ( 16390 PWs)   bands (ev):

   -19.6321 -19.4814  -7.5369  -6.4726  -5.8133  -5.7660  -4.7398  -4.7163
     2.9341   3.4057   4.6011   5.6138

     occupation numbers 
     1.0000   1.0000   1.0000   1.0000   1.0000   1.0000   1.0000   1.0000
     0.0000   0.0000   0.0000   0.0000

          k = 0.0000 0.2887 0.0000 ( 16370 PWs)   bands (ev):

   -19.0030 -18.8664  -7.6092  -7.5393  -6.6412  -5.6461  -5.4674  -5.4376
     3.9757   4.3468   5.5107   5.8446

     occupation numbers 
     1.0000   1.0000   1.0000   1.0000   1.0000   1.0000   1.0000   1.0000
     0.0000   0.0000   0.0000   0.0000

          k = 0.0000 0.3849 0.0000 ( 16376 PWs)   bands (ev):

   -18.2075 -18.0932  -9.3778  -9.2894  -6.0925  -6.0591  -5.4975  -4.6283
     4.2691   4.7580   5.3399   6.4785

     occupation numbers 
     1.0000   1.0000   1.0000   1.0000   1.0000   1.0000   1.0000   1.0000
     0.0000   0.0000   0.0000   0.0000

          k = 0.0000 0.4811 0.0000 ( 16402 PWs)   bands (ev):

   -17.4199 -17.3406 -10.7976 -10.6921  -6.5028  -6.4675  -4.2518  -3.6629
     2.7214   3.4204   6.6876   7.5098

     occupation numbers 
     1.0000   1.0000   1.0000   1.0000   1.0000   1.0000   1.0000   1.0000
     0.0000   0.0000   0.0000   0.0000

          k = 0.0000-0.5774 0.0000 ( 16394 PWs)   bands (ev):

   -17.0412 -16.9949 -11.3853 -11.2725  -6.6448  -6.6089  -3.4355  -3.3863
     1.9998   2.6982   7.1612   7.5835

     occupation numbers 
     1.0000   1.0000   1.0000   1.0000   1.0000   1.0000   1.0000   1.0000
     0.0000   0.0000   0.0000   0.0000

          k = 0.0833 0.1443 0.0000 ( 16405 PWs)   bands (ev):

   -19.7625 -19.6091  -7.7159  -6.6357  -5.3156  -5.2959  -4.6122  -4.6080
     2.7211   3.2033   4.3854   5.4089

     occupation numbers 
     1.0000   1.0000   1.0000   1.0000   1.0000   1.0000   1.0000   1.0000
     0.0000   0.0000   0.0000   0.0000

          k = 0.0833 0.2406 0.0000 ( 16381 PWs)   bands (ev):

   -19.2490 -19.1066  -7.0377  -6.7875  -6.7493  -5.9582  -5.4063  -5.3821
     3.5787   3.9984   5.2405   5.8393

     occupation numbers 
     1.0000   1.0000   1.0000   1.0000   1.0000   1.0000   1.0000   1.0000
     0.0000   0.0000   0.0000   0.0000

          k = 0.0833 0.3368 0.0000 ( 16367 PWs)   bands (ev):

   -18.5305 -18.4059  -8.5239  -8.4544  -6.1583  -6.1198  -5.9701  -5.0389
     4.7829   4.8342   5.0842   6.4563

     occupation numbers 
     1.0000   1.0000   1.0000   1.0000   1.0000   1.0000   1.0000   1.0000
     0.0000   0.0000   0.0000   0.0000

          k = 0.0833 0.4330 0.0000 ( 16378 PWs)   bands (ev):

   -17.7155 -17.6190 -10.1101 -10.0182  -6.7089  -6.6656  -4.7502  -4.0055
     3.4325   4.1022   6.3136   7.2455

     occupation numbers 
     1.0000   1.0000   1.0000   1.0000   1.0000   1.0000   1.0000   1.0000
     0.0000   0.0000   0.0000   0.0000

          k = 0.0833 0.5292 0.0000 ( 16379 PWs)   bands (ev):

   -17.0771 -17.0212 -11.1526 -11.0461  -6.9982  -6.9525  -3.6269  -3.2969
     2.1897   2.9360   7.5120   8.1186

     occupation numbers 
     1.0000   1.0000   1.0000   1.0000   1.0000   1.0000   1.0000   1.0000
     0.0000   0.0000   0.0000   0.0000

          k = 0.1667 0.2887 0.0000 ( 16366 PWs)   bands (ev):

   -18.6422 -18.5143  -8.0029  -7.9803  -6.4195  -6.3894  -6.1319  -5.1809
     4.6334   4.8251   5.2863   6.3915

     occupation numbers 
     1.0000   1.0000   1.0000   1.0000   1.0000   1.0000   1.0000   1.0000
     0.0000   0.0000   0.0000   0.0000

          k = 0.1667 0.3849 0.0000 ( 16360 PWs)   bands (ev):

   -17.8826 -17.7776  -9.3582  -9.3068  -7.2903  -7.2392  -5.0204  -4.2064
     3.9942   4.6033   6.0761   6.9731

     occupation numbers 
     1.0000   1.0000   1.0000   1.0000   1.0000   1.0000   1.0000   1.0000
     0.0000   0.0000   0.0000   0.0000

          k = 0.1667 0.4811 0.0000 ( 16379 PWs)   bands (ev):

   -17.1440 -17.0739 -10.5529 -10.4700  -7.8162  -7.7507  -3.8281  -3.2908
     2.6123   3.4322   7.7472   8.5600

     occupation numbers 
     1.0000   1.0000   1.0000   1.0000   1.0000   1.0000   1.0000   1.0000
     0.0000   0.0000   0.0000   0.0000

          k = 0.1667 0.5774 0.0000 ( 16386 PWs)   bands (ev):

   -16.7960 -16.7582 -11.0607 -10.9659  -7.9891  -7.9195  -3.0815  -3.0053
     1.9510   2.8446   8.8203   9.4708

     occupation numbers 
     1.0000   1.0000   1.0000   1.0000   1.0000   1.0000   1.0000   1.0000
     0.0000   0.0000   0.0000   0.0000

          k = 0.2500 0.4330 0.0000 ( 16348 PWs)   bands (ev):

   -17.1755 -17.0998 -10.0662 -10.0458  -8.3776  -8.3051  -3.9083  -3.3039
     2.8488   3.6982   7.6872   8.3997

     occupation numbers 
     1.0000   1.0000   1.0000   1.0000   1.0000   1.0000   1.0000   1.0000
     0.0000   0.0000   0.0000   0.0000

          k = 0.2500 0.5292 0.0000 ( 16377 PWs)   bands (ev):

   -16.6526 -16.6162 -10.5952 -10.5388  -8.9951  -8.8970  -2.9440  -2.6925
     1.9312   2.9955   9.3937   9.8167

     occupation numbers 
     1.0000   1.0000   1.0000   1.0000   1.0000   1.0000   1.0000   1.0000
     0.0000   0.0000   0.0000   0.0000

          k = 0.3333 0.5774 0.0000 ( 16404 PWs)   bands (ev):

   -16.4427 -16.4427 -10.3555 -10.3554  -9.6977  -9.5441  -2.4949  -2.4949
     1.6251   2.8547   9.7821  10.2539

     occupation numbers 
     1.0000   1.0000   1.0000   1.0000   1.0000   1.0000   1.0000   1.0000
     0.0000   0.0000   0.0000   0.0000

     the Fermi energy is    -0.9817 ev

!    total energy              =     -53.70358541 Ry
     estimated scf accuracy    <       0.00000018 Ry
     smearing contrib. (-TS)   =       0.00000000 Ry
     internal energy E=F+TS    =     -53.70358541 Ry

     The total energy is F=E-TS. E is the sum of the following terms:
     one-electron contribution =    -536.34117299 Ry
     hartree contribution      =     272.33905805 Ry
     xc contribution           =     -17.38940050 Ry
     ewald contribution        =     227.68793003 Ry

     convergence has been achieved in   9 iterations


     -----------------------------------------------
     Non-local corr. energy    =       0.20070855 Ry
     -----------------------------------------------


     Forces acting on atoms (cartesian axes, Ry/au):

     atom    1 type  1   force =     0.00000000    0.00000000    0.00010452
     atom    2 type  2   force =     0.00000000    0.00000000   -0.00051160
     atom    3 type  1   force =     0.00000000    0.00000000   -0.00011730
     atom    4 type  2   force =     0.00000000    0.00000000    0.00052438
     The non-local contrib.  to forces
     atom    1 type  1   force =     0.00000000   -0.00000000   -0.00074123
     atom    2 type  2   force =     0.00000000    0.00000000   -0.00117381
     atom    3 type  1   force =     0.00000000   -0.00000000    0.00071800
     atom    4 type  2   force =     0.00000000    0.00000000    0.00120951
     The ionic contribution  to forces
     atom    1 type  1   force =     0.00000000   -0.00000893  -10.41929299
     atom    2 type  2   force =     0.00000001    0.00000893  -17.35904958
     atom    3 type  1   force =     0.00000773   -0.00000447   10.41929299
     atom    4 type  2   force =    -0.00000774    0.00000446   17.35904958
     The local contribution  to forces
     atom    1 type  1   force =    -0.00000000   -0.00000000   10.42018862
     atom    2 type  2   force =     0.00000000    0.00003864   17.35984960
     atom    3 type  1   force =     0.00000000    0.00000000  -10.42009991
     atom    4 type  2   force =    -0.00003346    0.00001932  -17.35970294
     The core correction contribution to forces
     atom    1 type  1   force =    -0.00000000   -0.00000000    0.00001186
     atom    2 type  2   force =    -0.00000000   -0.00000161   -0.00000045
     atom    3 type  1   force =     0.00000000   -0.00000000   -0.00001071
     atom    4 type  2   force =     0.00000139   -0.00000080    0.00000007
     The Hubbard contrib.    to forces
     atom    1 type  1   force =     0.00000000    0.00000000    0.00000000
     atom    2 type  2   force =     0.00000000    0.00000000    0.00000000
     atom    3 type  1   force =     0.00000000    0.00000000    0.00000000
     atom    4 type  2   force =     0.00000000    0.00000000    0.00000000
     The SCF correction term to forces
     atom    1 type  1   force =    -0.00000000    0.00000000   -0.00000000
     atom    2 type  2   force =    -0.00000000   -0.00000000   -0.00000000
     atom    3 type  1   force =    -0.00000000    0.00000000   -0.00001564
     atom    4 type  2   force =     0.00000000   -0.00000000   -0.00002982

     Total force =     0.000537     Total SCF correction =     0.000034


     Computing stress (Cartesian axis) and pressure



     -----------------------------------------------
     Non-local corr. energy    =       0.20070855 Ry
     -----------------------------------------------

          total   stress  (Ry/bohr**3)                   (kbar)     P=        4.12
   0.00003993  -0.00000000   0.00000000            5.87       -0.00        0.00
  -0.00000000   0.00003993   0.00000000           -0.00        5.87        0.00
   0.00000000   0.00000000   0.00000416            0.00        0.00        0.61

     kinetic stress (kbar)   4829.81     -0.00      0.00
                               -0.00   4829.81     -0.00
                                0.00     -0.00   5251.63

     local   stress (kbar)-109842.46      0.00      0.00
                                0.00-109842.46      0.00
                                0.00      0.00 110535.86

     nonloc. stress (kbar)   -797.07     -0.00      0.00
                               -0.00   -797.07      0.00
                                0.00      0.00   -768.81

     hartree stress (kbar)  53467.30     -0.00      0.00
                               -0.00  53467.30     -0.00
                                0.00     -0.00 -52636.84

     exc-cor stress (kbar)   -485.18     -0.00      0.00
                               -0.00   -485.18      0.00
                                0.00      0.00   -532.58

     corecor stress (kbar)   -541.73      0.00     -0.00
                                0.00   -541.73     -0.00
                               -0.00     -0.00   -529.88

     ewald   stress (kbar)  53370.82     -0.00     -0.00
                               -0.00  53370.82     -0.00
                               -0.00     -0.00 -61346.22

     hubbard stress (kbar)      0.00      0.00      0.00
                                0.00      0.00      0.00
                                0.00      0.00      0.00

     DFT-D   stress (kbar)      0.00      0.00      0.00
                                0.00      0.00      0.00
                                0.00      0.00      0.00

     XDM     stress (kbar)      0.00      0.00      0.00
                                0.00      0.00      0.00
                                0.00      0.00      0.00

     dft-nl  stress (kbar)      4.37      0.00     -0.00
                                0.00      4.37     -0.00
                               -0.00     -0.00     27.45

     TS-vdW  stress (kbar)      0.00      0.00      0.00
                                0.00      0.00      0.00
                                0.00      0.00      0.00

     MDB     stress (kbar)      0.00      0.00      0.00
                                0.00      0.00      0.00
                                0.00      0.00      0.00

     3D-RISM stress (kbar)      0.00      0.00      0.00
                                0.00      0.00      0.00
                                0.00      0.00      0.00


     BFGS Geometry Optimization
     Energy error            =      0.0E+00 Ry
     Gradient error          =      5.2E-04 Ry/Bohr
     Cell gradient error     =      6.1E-01 kbar

     number of scf cycles    =   1
     number of bfgs steps    =   0

     enthalpy           new  =     -53.7035854113 Ry

     new trust radius        =       0.0005651133 bohr
     new conv_thr            =       0.0000010000 Ry

     new unit-cell volume =    737.90562 a.u.^3 (   109.34633 Ang^3 )
     density =      0.72926 g/cm^3

CELL_PARAMETERS (alat=  4.74000000)
   1.000000000   0.000000000   0.000000000
  -0.500000000   0.866025404   0.000000000
   0.000000000   0.000000000   8.000832181

ATOMIC_POSITIONS (crystal)
B             0.0000000000        0.0000000000        0.0000000000    0   0   0
N             0.3333330000        0.6666660000        0.0000000000    0   0   0
B             0.0000000000        0.0000000000        0.1639063566
N             0.6666670000        0.3333330000        0.1639232785



     Writing config-only to output data dir ./tmp/BN2L_AB_PBE_vdW.save/
     NEW-OLD atomic charge density approx. for the potential

     negative rho (up, down):  1.432E-08 0.000E+00


     -----------------------------------------------
     Non-local corr. energy    =       0.20072771 Ry
     -----------------------------------------------

     extrapolated charge   16.00166, renormalised to   16.00000

     total cpu time spent up to now is       29.6 secs

     Self-consistent Calculation

     iteration #  1     ecut=   120.00 Ry     beta= 0.70
     Davidson diagonalization with overlap

---- Real-time Memory Report at c_bands before calling an iterative solver
             0 MiB given to the printing process from OS
             0 MiB allocation reported by mallinfo(arena+hblkhd)
             0 MiB available memory on the node where the printing process lives
------------------
     ethr =  1.00E-06,  avg # of iterations =  2.0

     Threshold (ethr) on eigenvalues was too large:
     Diagonalizing with lowered threshold

     Davidson diagonalization with overlap

---- Real-time Memory Report at c_bands before calling an iterative solver
             0 MiB given to the printing process from OS
             0 MiB allocation reported by mallinfo(arena+hblkhd)
             0 MiB available memory on the node where the printing process lives
------------------
     ethr =  2.37E-08,  avg # of iterations =  1.1


     -----------------------------------------------
     Non-local corr. energy    =       0.20067998 Ry
     -----------------------------------------------


     total cpu time spent up to now is       31.5 secs

     total energy              =     -53.70358105 Ry
     estimated scf accuracy    <       0.00000437 Ry

     iteration #  2     ecut=   120.00 Ry     beta= 0.70
     Davidson diagonalization with overlap

---- Real-time Memory Report at c_bands before calling an iterative solver
             0 MiB given to the printing process from OS
             0 MiB allocation reported by mallinfo(arena+hblkhd)
             0 MiB available memory on the node where the printing process lives
------------------
     ethr =  2.73E-08,  avg # of iterations =  2.4


     -----------------------------------------------
     Non-local corr. energy    =       0.20069290 Ry
     -----------------------------------------------


     total cpu time spent up to now is       32.8 secs

     total energy              =     -53.70358493 Ry
     estimated scf accuracy    <       0.00001391 Ry

     iteration #  3     ecut=   120.00 Ry     beta= 0.70
     Davidson diagonalization with overlap

---- Real-time Memory Report at c_bands before calling an iterative solver
             0 MiB given to the printing process from OS
             0 MiB allocation reported by mallinfo(arena+hblkhd)
             0 MiB available memory on the node where the printing process lives
------------------
     ethr =  2.73E-08,  avg # of iterations =  2.0


     -----------------------------------------------
     Non-local corr. energy    =       0.20069978 Ry
     -----------------------------------------------


     total cpu time spent up to now is       34.0 secs

     total energy              =     -53.70358603 Ry
     estimated scf accuracy    <       0.00000132 Ry

     iteration #  4     ecut=   120.00 Ry     beta= 0.70
     Davidson diagonalization with overlap

---- Real-time Memory Report at c_bands before calling an iterative solver
             0 MiB given to the printing process from OS
             0 MiB allocation reported by mallinfo(arena+hblkhd)
             0 MiB available memory on the node where the printing process lives
------------------
     ethr =  8.23E-09,  avg # of iterations =  1.1


     -----------------------------------------------
     Non-local corr. energy    =       0.20071435 Ry
     -----------------------------------------------


     total cpu time spent up to now is       34.9 secs

     End of self-consistent calculation

          k = 0.0000 0.0000 0.0000 ( 16399 PWs)   bands (ev):

   -20.1662 -20.0050  -8.2673  -7.1523  -3.8553  -3.8553  -3.8524  -3.8524
     2.0416   2.5745   3.7447   4.7814

     occupation numbers 
     1.0000   1.0000   1.0000   1.0000   1.0000   1.0000   1.0000   1.0000
     0.0000   0.0000   0.0000   0.0000

          k = 0.0000 0.0962 0.0000 ( 16391 PWs)   bands (ev):

   -20.0321 -19.8735  -8.0836  -6.9796  -4.4155  -4.3954  -4.1163  -4.1026
     2.2737   2.7872   3.9676   4.9974

     occupation numbers 
     1.0000   1.0000   1.0000   1.0000   1.0000   1.0000   1.0000   1.0000
     0.0000   0.0000   0.0000   0.0000

          k = 0.0000 0.1925 0.0000 ( 16390 PWs)   bands (ev):

   -19.6370 -19.4864  -7.5414  -6.4773  -5.8184  -5.7711  -4.7448  -4.7213
     2.9333   3.4065   4.6236   5.6264

     occupation numbers 
     1.0000   1.0000   1.0000   1.0000   1.0000   1.0000   1.0000   1.0000
     0.0000   0.0000   0.0000   0.0000

          k = 0.0000 0.2887 0.0000 ( 16370 PWs)   bands (ev):

   -19.0078 -18.8713  -7.6143  -7.5443  -6.6457  -5.6508  -5.4724  -5.4427
     3.9748   4.3473   5.5115   5.8633

     occupation numbers 
     1.0000   1.0000   1.0000   1.0000   1.0000   1.0000   1.0000   1.0000
     0.0000   0.0000   0.0000   0.0000

          k = 0.0000 0.3849 0.0000 ( 16376 PWs)   bands (ev):

   -18.2124 -18.0981  -9.3829  -9.2945  -6.0976  -6.0642  -5.5019  -4.6330
     4.2642   4.7549   5.3382   6.4774

     occupation numbers 
     1.0000   1.0000   1.0000   1.0000   1.0000   1.0000   1.0000   1.0000
     0.0000   0.0000   0.0000   0.0000

          k = 0.0000 0.4811 0.0000 ( 16402 PWs)   bands (ev):

   -17.4247 -17.3455 -10.8027 -10.6972  -6.5079  -6.4726  -4.2562  -3.6674
     2.7163   3.4160   6.6843   7.5058

     occupation numbers 
     1.0000   1.0000   1.0000   1.0000   1.0000   1.0000   1.0000   1.0000
     0.0000   0.0000   0.0000   0.0000

          k = 0.0000-0.5774 0.0000 ( 16394 PWs)   bands (ev):

   -17.0460 -16.9998 -11.3904 -11.2776  -6.6499  -6.6140  -3.4399  -3.3908
     1.9946   2.6936   7.1567   7.5783

     occupation numbers 
     1.0000   1.0000   1.0000   1.0000   1.0000   1.0000   1.0000   1.0000
     0.0000   0.0000   0.0000   0.0000

          k = 0.0833 0.1443 0.0000 ( 16405 PWs)   bands (ev):

   -19.7673 -19.6140  -7.7204  -6.6404  -5.3207  -5.3009  -4.6174  -4.6129
     2.7203   3.2041   4.4082   5.4217

     occupation numbers 
     1.0000   1.0000   1.0000   1.0000   1.0000   1.0000   1.0000   1.0000
     0.0000   0.0000   0.0000   0.0000

          k = 0.0833 0.2406 0.0000 ( 16381 PWs)   bands (ev):

   -19.2539 -19.1116  -7.0423  -6.7925  -6.7543  -5.9629  -5.4114  -5.3872
     3.5780   3.9991   5.2598   5.8414

     occupation numbers 
     1.0000   1.0000   1.0000   1.0000   1.0000   1.0000   1.0000   1.0000
     0.0000   0.0000   0.0000   0.0000

          k = 0.0833 0.3368 0.0000 ( 16367 PWs)   bands (ev):

   -18.5353 -18.4109  -8.5290  -8.4595  -6.1634  -6.1249  -5.9746  -5.0435
     4.7827   4.8325   5.0786   6.4559

     occupation numbers 
     1.0000   1.0000   1.0000   1.0000   1.0000   1.0000   1.0000   1.0000
     0.0000   0.0000   0.0000   0.0000

          k = 0.0833 0.4330 0.0000 ( 16378 PWs)   bands (ev):

   -17.7203 -17.6239 -10.1152 -10.0233  -6.7140  -6.6708  -4.7546  -4.0101
     3.4274   4.0980   6.3115   7.2448

     occupation numbers 
     1.0000   1.0000   1.0000   1.0000   1.0000   1.0000   1.0000   1.0000
     0.0000   0.0000   0.0000   0.0000

          k = 0.0833 0.5292 0.0000 ( 16379 PWs)   bands (ev):

   -17.0820 -17.0261 -11.1577 -11.0512  -7.0033  -6.9576  -3.6313  -3.3014
     2.1845   2.9314   7.5079   8.1137

     occupation numbers 
     1.0000   1.0000   1.0000   1.0000   1.0000   1.0000   1.0000   1.0000
     0.0000   0.0000   0.0000   0.0000

          k = 0.1667 0.2887 0.0000 ( 16366 PWs)   bands (ev):

   -18.6470 -18.5193  -8.0080  -7.9854  -6.4246  -6.3945  -6.1363  -5.1855
     4.6329   4.8252   5.2797   6.4161

     occupation numbers 
     1.0000   1.0000   1.0000   1.0000   1.0000   1.0000   1.0000   1.0000
     0.0000   0.0000   0.0000   0.0000

          k = 0.1667 0.3849 0.0000 ( 16360 PWs)   bands (ev):

   -17.8875 -17.7825  -9.3633  -9.3119  -7.2954  -7.2443  -5.0248  -4.2110
     3.9889   4.5998   6.0747   6.9727

     occupation numbers 
     1.0000   1.0000   1.0000   1.0000   1.0000   1.0000   1.0000   1.0000
     0.0000   0.0000   0.0000   0.0000

          k = 0.1667 0.4811 0.0000 ( 16379 PWs)   bands (ev):

   -17.1488 -17.0787 -10.5580 -10.4751  -7.8214  -7.7558  -3.8325  -3.2953
     2.6072   3.4276   7.7451   8.5595

     occupation numbers 
     1.0000   1.0000   1.0000   1.0000   1.0000   1.0000   1.0000   1.0000
     0.0000   0.0000   0.0000   0.0000

          k = 0.1667 0.5774 0.0000 ( 16386 PWs)   bands (ev):

   -16.8008 -16.7630 -11.0659 -10.9711  -7.9942  -7.9246  -3.0859  -3.0098
     1.9458   2.8399   8.8165   9.4660

     occupation numbers 
     1.0000   1.0000   1.0000   1.0000   1.0000   1.0000   1.0000   1.0000
     0.0000   0.0000   0.0000   0.0000

          k = 0.2500 0.4330 0.0000 ( 16348 PWs)   bands (ev):

   -17.1803 -17.1046 -10.0713 -10.0509  -8.3827  -8.3103  -3.9127  -3.3084
     2.8436   3.6938   7.6855   8.3995

     occupation numbers 
     1.0000   1.0000   1.0000   1.0000   1.0000   1.0000   1.0000   1.0000
     0.0000   0.0000   0.0000   0.0000

          k = 0.2500 0.5292 0.0000 ( 16377 PWs)   bands (ev):

   -16.6574 -16.6211 -10.6003 -10.5440  -9.0002  -8.9021  -2.9484  -2.6969
     1.9260   2.9906   9.3910   9.8148

     occupation numbers 
     1.0000   1.0000   1.0000   1.0000   1.0000   1.0000   1.0000   1.0000
     0.0000   0.0000   0.0000   0.0000

          k = 0.3333 0.5774 0.0000 ( 16404 PWs)   bands (ev):

   -16.4483 -16.4468 -10.3613 -10.3598  -9.7028  -9.5493  -2.5000  -2.4985
     1.6198   2.8498   9.7775  10.2496

     occupation numbers 
     1.0000   1.0000   1.0000   1.0000   1.0000   1.0000   1.0000   1.0000
     0.0000   0.0000   0.0000   0.0000

     the Fermi energy is    -0.9863 ev

!    total energy              =     -53.70358563 Ry
     estimated scf accuracy    <       0.00000050 Ry
     smearing contrib. (-TS)   =       0.00000000 Ry
     internal energy E=F+TS    =     -53.70358563 Ry

     The total energy is F=E-TS. E is the sum of the following terms:
     one-electron contribution =    -536.39435566 Ry
     hartree contribution      =     272.36817843 Ry
     xc contribution           =     -17.38946294 Ry
     ewald contribution        =     227.71205454 Ry

     convergence has been achieved in   4 iterations


     -----------------------------------------------
     Non-local corr. energy    =       0.20071435 Ry
     -----------------------------------------------


     Forces acting on atoms (cartesian axes, Ry/au):

     atom    1 type  1   force =     0.00000000    0.00000000    0.00009407
     atom    2 type  2   force =     0.00000000   -0.00000000   -0.00041552
     atom    3 type  1   force =     0.00000000    0.00000000    0.00012354
     atom    4 type  2   force =     0.00000000    0.00000000    0.00019792
     The non-local contrib.  to forces
     atom    1 type  1   force =     0.00000000   -0.00000000   -0.00085097
     atom    2 type  2   force =     0.00000000    0.00000000   -0.00083957
     atom    3 type  1   force =     0.00000000   -0.00000000    0.00084386
     atom    4 type  2   force =     0.00000000    0.00000000   -0.00018012
     The ionic contribution  to forces
     atom    1 type  1   force =     0.00000000   -0.00000893  -10.41906276
     atom    2 type  2   force =     0.00000001    0.00000893  -17.35867108
     atom    3 type  1   force =     0.00000773   -0.00000447   10.41553125
     atom    4 type  2   force =    -0.00000774    0.00000446   17.36220260
     The local contribution  to forces
     atom    1 type  1   force =    -0.00000000   -0.00000000   10.42085333
     atom    2 type  2   force =     0.00000000    0.00003864   17.36081243
     atom    3 type  1   force =     0.00000000    0.00000000  -10.41714586
     atom    4 type  2   force =    -0.00003346    0.00001932  -17.36361870
     The core correction contribution to forces
     atom    1 type  1   force =    -0.00000000   -0.00000000    0.00002003
     atom    2 type  2   force =    -0.00000000   -0.00000161   -0.00000718
     atom    3 type  1   force =     0.00000000   -0.00000000   -0.00001250
     atom    4 type  2   force =     0.00000139   -0.00000080    0.00003293
     The Hubbard contrib.    to forces
     atom    1 type  1   force =     0.00000000    0.00000000    0.00000000
     atom    2 type  2   force =     0.00000000    0.00000000    0.00000000
     atom    3 type  1   force =     0.00000000    0.00000000    0.00000000
     atom    4 type  2   force =     0.00000000    0.00000000    0.00000000
     The SCF correction term to forces
     atom    1 type  1   force =     0.00000000   -0.00000000   -0.00000000
     atom    2 type  2   force =    -0.00000000   -0.00000000   -0.00000000
     atom    3 type  1   force =     0.00000000   -0.00000000    0.00090029
     atom    4 type  2   force =     0.00000000   -0.00000000    0.00175472

     Total force =     0.000233     Total SCF correction =     0.001972
     SCF correction compared to forces is large: reduce conv_thr to get better values


     Computing stress (Cartesian axis) and pressure



     -----------------------------------------------
     Non-local corr. energy    =       0.20071435 Ry
     -----------------------------------------------

          total   stress  (Ry/bohr**3)                   (kbar)     P=        4.15
   0.00003976   0.00000000   0.00000000            5.85        0.00        0.00
   0.00000000   0.00003976   0.00000000            0.00        5.85        0.00
   0.00000000   0.00000000   0.00000509            0.00        0.00        0.75

     kinetic stress (kbar)   4829.34     -0.00      0.00
                               -0.00   4829.34      0.00
                                0.00      0.00   5251.19

     local   stress (kbar)-109841.66      0.00      0.00
                                0.00-109841.66      0.00
                                0.00      0.00 110535.00

     nonloc. stress (kbar)   -797.00      0.00      0.00
                                0.00   -797.00      0.00
                                0.00      0.00   -768.76

     hartree stress (kbar)  53467.54     -0.00      0.00
                               -0.00  53467.54     -0.00
                                0.00     -0.00 -52637.16

     exc-cor stress (kbar)   -485.13     -0.00     -0.00
                               -0.00   -485.13      0.00
                               -0.00      0.00   -532.53

     corecor stress (kbar)   -541.67      0.00      0.00
                                0.00   -541.67     -0.00
                                0.00     -0.00   -529.82

     ewald   stress (kbar)  53370.06     -0.00     -0.00
                               -0.00  53370.07     -0.00
                               -0.00     -0.00 -61344.63

     hubbard stress (kbar)      0.00      0.00      0.00
                                0.00      0.00      0.00
                                0.00      0.00      0.00

     DFT-D   stress (kbar)      0.00      0.00      0.00
                                0.00      0.00      0.00
                                0.00      0.00      0.00

     XDM     stress (kbar)      0.00      0.00      0.00
                                0.00      0.00      0.00
                                0.00      0.00      0.00

     dft-nl  stress (kbar)      4.37      0.00     -0.00
                                0.00      4.37     -0.00
                               -0.00     -0.00     27.45

     TS-vdW  stress (kbar)      0.00      0.00      0.00
                                0.00      0.00      0.00
                                0.00      0.00      0.00

     MDB     stress (kbar)      0.00      0.00      0.00
                                0.00      0.00      0.00
                                0.00      0.00      0.00

     3D-RISM stress (kbar)      0.00      0.00      0.00
                                0.00      0.00      0.00
                                0.00      0.00      0.00

     Energy error            =      2.2E-07 Ry
     Gradient error          =      2.0E-04 Ry/Bohr
     Cell gradient error     =      7.5E-01 kbar

     number of scf cycles    =   2
     number of bfgs steps    =   1

     enthalpy           old  =     -53.7035854113 Ry
     enthalpy           new  =     -53.7035856274 Ry

     CASE: enthalpy          _new < enthalpy          _old

     new trust radius        =       0.0008476259 bohr
     new conv_thr            =       0.0000000100 Ry

     new unit-cell volume =    738.02075 a.u.^3 (   109.36339 Ang^3 )
     density =      0.72915 g/cm^3

CELL_PARAMETERS (alat=  4.74000000)
   1.000000000   0.000000000   0.000000000
  -0.500000000   0.866025404   0.000000000
   0.000000000   0.000000000   8.002080452

ATOMIC_POSITIONS (crystal)
B             0.0000000000        0.0000000000        0.0000000000    0   0   0
N             0.3333330000        0.6666660000        0.0000000000    0   0   0
B             0.0000000000        0.0000000000        0.1639060742
N             0.6666670000        0.3333330000        0.1639367809



     Writing config-only to output data dir ./tmp/BN2L_AB_PBE_vdW.save/
     NEW-OLD atomic charge density approx. for the potential

     negative rho (up, down):  1.699E-08 0.000E+00


     -----------------------------------------------
     Non-local corr. energy    =       0.20074299 Ry
     -----------------------------------------------

     extrapolated charge   16.00250, renormalised to   16.00000

     total cpu time spent up to now is       40.3 secs

     Self-consistent Calculation

     iteration #  1     ecut=   120.00 Ry     beta= 0.70
     Davidson diagonalization with overlap

---- Real-time Memory Report at c_bands before calling an iterative solver
             0 MiB given to the printing process from OS
             0 MiB allocation reported by mallinfo(arena+hblkhd)
             0 MiB available memory on the node where the printing process lives
------------------
     ethr =  1.00E-06,  avg # of iterations =  3.1

     Threshold (ethr) on eigenvalues was too large:
     Diagonalizing with lowered threshold

     Davidson diagonalization with overlap

---- Real-time Memory Report at c_bands before calling an iterative solver
             0 MiB given to the printing process from OS
             0 MiB allocation reported by mallinfo(arena+hblkhd)
             0 MiB available memory on the node where the printing process lives
------------------
     ethr =  9.45E-08,  avg # of iterations =  1.0


     -----------------------------------------------
     Non-local corr. energy    =       0.20067719 Ry
     -----------------------------------------------


     total cpu time spent up to now is       42.2 secs

     total energy              =     -53.70357043 Ry
     estimated scf accuracy    <       0.00001632 Ry

     iteration #  2     ecut=   120.00 Ry     beta= 0.70
     Davidson diagonalization with overlap

---- Real-time Memory Report at c_bands before calling an iterative solver
             0 MiB given to the printing process from OS
             0 MiB allocation reported by mallinfo(arena+hblkhd)
             0 MiB available memory on the node where the printing process lives
------------------
     ethr =  1.02E-07,  avg # of iterations =  3.2


     -----------------------------------------------
     Non-local corr. energy    =       0.20069551 Ry
     -----------------------------------------------


     total cpu time spent up to now is       43.5 secs

     total energy              =     -53.70358216 Ry
     estimated scf accuracy    <       0.00004486 Ry

     iteration #  3     ecut=   120.00 Ry     beta= 0.70
     Davidson diagonalization with overlap

---- Real-time Memory Report at c_bands before calling an iterative solver
             0 MiB given to the printing process from OS
             0 MiB allocation reported by mallinfo(arena+hblkhd)
             0 MiB available memory on the node where the printing process lives
------------------
     ethr =  1.02E-07,  avg # of iterations =  2.0


     -----------------------------------------------
     Non-local corr. energy    =       0.20070212 Ry
     -----------------------------------------------


     total cpu time spent up to now is       44.7 secs

     total energy              =     -53.70358678 Ry
     estimated scf accuracy    <       0.00000300 Ry

     iteration #  4     ecut=   120.00 Ry     beta= 0.70
     Davidson diagonalization with overlap

---- Real-time Memory Report at c_bands before calling an iterative solver
             0 MiB given to the printing process from OS
             0 MiB allocation reported by mallinfo(arena+hblkhd)
             0 MiB available memory on the node where the printing process lives
------------------
     ethr =  1.88E-08,  avg # of iterations =  1.0


     -----------------------------------------------
     Non-local corr. energy    =       0.20070751 Ry
     -----------------------------------------------


     total cpu time spent up to now is       45.6 secs

     total energy              =     -53.70358649 Ry
     estimated scf accuracy    <       0.00000156 Ry

     iteration #  5     ecut=   120.00 Ry     beta= 0.70
     Davidson diagonalization with overlap

---- Real-time Memory Report at c_bands before calling an iterative solver
             0 MiB given to the printing process from OS
             0 MiB allocation reported by mallinfo(arena+hblkhd)
             0 MiB available memory on the node where the printing process lives
------------------
     ethr =  9.78E-09,  avg # of iterations =  1.1


     -----------------------------------------------
     Non-local corr. energy    =       0.20071373 Ry
     -----------------------------------------------


     total cpu time spent up to now is       46.5 secs

     total energy              =     -53.70358635 Ry
     estimated scf accuracy    <       0.00000055 Ry

     iteration #  6     ecut=   120.00 Ry     beta= 0.70
     Davidson diagonalization with overlap

---- Real-time Memory Report at c_bands before calling an iterative solver
             0 MiB given to the printing process from OS
             0 MiB allocation reported by mallinfo(arena+hblkhd)
             0 MiB available memory on the node where the printing process lives
------------------
     ethr =  3.46E-09,  avg # of iterations =  2.0


     -----------------------------------------------
     Non-local corr. energy    =       0.20071524 Ry
     -----------------------------------------------


     total cpu time spent up to now is       47.6 secs

     total energy              =     -53.70358640 Ry
     estimated scf accuracy    <       0.00000005 Ry

     iteration #  7     ecut=   120.00 Ry     beta= 0.70
     Davidson diagonalization with overlap

---- Real-time Memory Report at c_bands before calling an iterative solver
             0 MiB given to the printing process from OS
             0 MiB allocation reported by mallinfo(arena+hblkhd)
             0 MiB available memory on the node where the printing process lives
------------------
     ethr =  2.95E-10,  avg # of iterations =  3.0


     -----------------------------------------------
     Non-local corr. energy    =       0.20071640 Ry
     -----------------------------------------------


     total cpu time spent up to now is       48.8 secs

     End of self-consistent calculation

          k = 0.0000 0.0000 0.0000 ( 16399 PWs)   bands (ev):

   -20.1630 -20.0021  -8.2641  -7.1502  -3.8522  -3.8522  -3.8489  -3.8488
     2.0415   2.5740   3.7444   4.7798

     occupation numbers 
     1.0000   1.0000   1.0000   1.0000   1.0000   1.0000   1.0000   1.0000
     0.0000   0.0000   0.0000   0.0000

          k = 0.0000 0.0962 0.0000 ( 16391 PWs)   bands (ev):

   -20.0288 -19.8705  -8.0805  -6.9775  -4.4122  -4.3921  -4.1131  -4.0993
     2.2737   2.7867   3.9673   4.9958

     occupation numbers 
     1.0000   1.0000   1.0000   1.0000   1.0000   1.0000   1.0000   1.0000
     0.0000   0.0000   0.0000   0.0000

          k = 0.0000 0.1925 0.0000 ( 16390 PWs)   bands (ev):

   -19.6338 -19.4834  -7.5382  -6.4752  -5.8152  -5.7678  -4.7416  -4.7180
     2.9333   3.4060   4.6233   5.6249

     occupation numbers 
     1.0000   1.0000   1.0000   1.0000   1.0000   1.0000   1.0000   1.0000
     0.0000   0.0000   0.0000   0.0000

          k = 0.0000 0.2887 0.0000 ( 16370 PWs)   bands (ev):

   -19.0046 -18.8683  -7.6110  -7.5412  -6.6426  -5.6485  -5.4692  -5.4395
     3.9749   4.3472   5.5125   5.8639

     occupation numbers 
     1.0000   1.0000   1.0000   1.0000   1.0000   1.0000   1.0000   1.0000
     0.0000   0.0000   0.0000   0.0000

          k = 0.0000 0.3849 0.0000 ( 16376 PWs)   bands (ev):

   -18.2091 -18.0951  -9.3797  -9.2915  -6.0944  -6.0610  -5.4988  -4.6306
     4.2668   4.7569   5.3386   6.4772

     occupation numbers 
     1.0000   1.0000   1.0000   1.0000   1.0000   1.0000   1.0000   1.0000
     0.0000   0.0000   0.0000   0.0000

          k = 0.0000 0.4811 0.0000 ( 16402 PWs)   bands (ev):

   -17.4215 -17.3424 -10.7996 -10.6942  -6.5047  -6.4694  -4.2530  -3.6648
     2.7189   3.4181   6.6859   7.5075

     occupation numbers 
     1.0000   1.0000   1.0000   1.0000   1.0000   1.0000   1.0000   1.0000
     0.0000   0.0000   0.0000   0.0000

          k = 0.0000-0.5774 0.0000 ( 16394 PWs)   bands (ev):

   -17.0428 -16.9966 -11.3873 -11.2747  -6.6466  -6.6108  -3.4369  -3.3879
     1.9972   2.6957   7.1593   7.5807

     occupation numbers 
     1.0000   1.0000   1.0000   1.0000   1.0000   1.0000   1.0000   1.0000
     0.0000   0.0000   0.0000   0.0000

          k = 0.0833 0.1443 0.0000 ( 16405 PWs)   bands (ev):

   -19.7641 -19.6111  -7.7172  -6.6383  -5.3175  -5.2976  -4.6142  -4.6095
     2.7203   3.2036   4.4079   5.4201

     occupation numbers 
     1.0000   1.0000   1.0000   1.0000   1.0000   1.0000   1.0000   1.0000
     0.0000   0.0000   0.0000   0.0000

          k = 0.0833 0.2406 0.0000 ( 16381 PWs)   bands (ev):

   -19.2507 -19.1086  -7.0389  -6.7894  -6.7513  -5.9607  -5.4081  -5.3840
     3.5780   3.9988   5.2597   5.8423

     occupation numbers 
     1.0000   1.0000   1.0000   1.0000   1.0000   1.0000   1.0000   1.0000
     0.0000   0.0000   0.0000   0.0000

          k = 0.0833 0.3368 0.0000 ( 16367 PWs)   bands (ev):

   -18.5321 -18.4078  -8.5258  -8.4564  -6.1601  -6.1217  -5.9714  -5.0413
     4.7834   4.8332   5.0806   6.4563

     occupation numbers 
     1.0000   1.0000   1.0000   1.0000   1.0000   1.0000   1.0000   1.0000
     0.0000   0.0000   0.0000   0.0000

          k = 0.0833 0.4330 0.0000 ( 16378 PWs)   bands (ev):

   -17.7171 -17.6208 -10.1120 -10.0203  -6.7108  -6.6676  -4.7514  -4.0076
     3.4301   4.1003   6.3122   7.2444

     occupation numbers 
     1.0000   1.0000   1.0000   1.0000   1.0000   1.0000   1.0000   1.0000
     0.0000   0.0000   0.0000   0.0000

          k = 0.0833 0.5292 0.0000 ( 16379 PWs)   bands (ev):

   -17.0787 -17.0229 -11.1546 -11.0483  -7.0001  -6.9545  -3.6282  -3.2986
     2.1871   2.9334   7.5101   8.1160

     occupation numbers 
     1.0000   1.0000   1.0000   1.0000   1.0000   1.0000   1.0000   1.0000
     0.0000   0.0000   0.0000   0.0000

          k = 0.1667 0.2887 0.0000 ( 16366 PWs)   bands (ev):

   -18.6438 -18.5162  -8.0048  -7.9822  -6.4214  -6.3913  -6.1332  -5.1833
     4.6329   4.8256   5.2819   6.4159

     occupation numbers 
     1.0000   1.0000   1.0000   1.0000   1.0000   1.0000   1.0000   1.0000
     0.0000   0.0000   0.0000   0.0000

          k = 0.1667 0.3849 0.0000 ( 16360 PWs)   bands (ev):

   -17.8842 -17.7794  -9.3601  -9.3088  -7.2922  -7.2412  -5.0217  -4.2086
     3.9916   4.6021   6.0749   6.9720

     occupation numbers 
     1.0000   1.0000   1.0000   1.0000   1.0000   1.0000   1.0000   1.0000
     0.0000   0.0000   0.0000   0.0000

          k = 0.1667 0.4811 0.0000 ( 16379 PWs)   bands (ev):

   -17.1456 -17.0756 -10.5548 -10.4721  -7.8182  -7.7528  -3.8293  -3.2926
     2.6099   3.4298   7.7459   8.5591

     occupation numbers 
     1.0000   1.0000   1.0000   1.0000   1.0000   1.0000   1.0000   1.0000
     0.0000   0.0000   0.0000   0.0000

          k = 0.1667 0.5774 0.0000 ( 16386 PWs)   bands (ev):

   -16.7976 -16.7598 -11.0627 -10.9681  -7.9910  -7.9216  -3.0828  -3.0068
     1.9485   2.8419   8.8187   9.4681

     occupation numbers 
     1.0000   1.0000   1.0000   1.0000   1.0000   1.0000   1.0000   1.0000
     0.0000   0.0000   0.0000   0.0000

          k = 0.2500 0.4330 0.0000 ( 16348 PWs)   bands (ev):

   -17.1771 -17.1015 -10.0682 -10.0478  -8.3796  -8.3073  -3.9095  -3.3058
     2.8464   3.6960   7.6859   8.3989

     occupation numbers 
     1.0000   1.0000   1.0000   1.0000   1.0000   1.0000   1.0000   1.0000
     0.0000   0.0000   0.0000   0.0000

          k = 0.2500 0.5292 0.0000 ( 16377 PWs)   bands (ev):

   -16.6542 -16.6178 -10.5972 -10.5409  -8.9970  -8.8991  -2.9452  -2.6940
     1.9288   2.9926   9.3923   9.8153

     occupation numbers 
     1.0000   1.0000   1.0000   1.0000   1.0000   1.0000   1.0000   1.0000
     0.0000   0.0000   0.0000   0.0000

          k = 0.3333 0.5774 0.0000 ( 16404 PWs)   bands (ev):

   -16.4454 -16.4432 -10.3586 -10.3564  -9.6996  -9.5464  -2.4973  -2.4950
     1.6227   2.8516   9.7783   9.7809

     occupation numbers 
     1.0000   1.0000   1.0000   1.0000   1.0000   1.0000   1.0000   1.0000
     0.0000   0.0000   0.0000   0.0000

     the Fermi energy is    -1.2565 ev

!    total energy              =     -53.70358640 Ry
     estimated scf accuracy    <          3.8E-09 Ry
     smearing contrib. (-TS)   =       0.00000000 Ry
     internal energy E=F+TS    =     -53.70358640 Ry

     The total energy is F=E-TS. E is the sum of the following terms:
     one-electron contribution =    -536.46514913 Ry
     hartree contribution      =     272.39937428 Ry
     xc contribution           =     -17.38909418 Ry
     ewald contribution        =     227.75128262 Ry

     convergence has been achieved in   7 iterations


     -----------------------------------------------
     Non-local corr. energy    =       0.20071640 Ry
     -----------------------------------------------


     Forces acting on atoms (cartesian axes, Ry/au):

     atom    1 type  1   force =     0.00000000    0.00000000    0.00011010
     atom    2 type  2   force =     0.00000000    0.00000000   -0.00048105
     atom    3 type  1   force =     0.00000000   -0.00000000    0.00022677
     atom    4 type  2   force =     0.00000000    0.00000000    0.00014418
     The non-local contrib.  to forces
     atom    1 type  1   force =     0.00000000    0.00000000   -0.00073747
     atom    2 type  2   force =    -0.00000000   -0.00000000   -0.00112423
     atom    3 type  1   force =     0.00000000    0.00000000    0.00068511
     atom    4 type  2   force =     0.00000000    0.00000000   -0.00062531
     The ionic contribution  to forces
     atom    1 type  1   force =     0.00000000   -0.00000893  -10.41880549
     atom    2 type  2   force =     0.00000001    0.00000893  -17.35825174
     atom    3 type  1   force =     0.00000773   -0.00000447   10.41239599
     atom    4 type  2   force =    -0.00000774    0.00000446   17.36466124
     The local contribution  to forces
     atom    1 type  1   force =    -0.00000000   -0.00000000   10.41972633
     atom    2 type  2   force =     0.00000000    0.00003864   17.35905526
     atom    3 type  1   force =     0.00000000    0.00000000  -10.41293042
     atom    4 type  2   force =    -0.00003346    0.00001932  -17.36407465
     The core correction contribution to forces
     atom    1 type  1   force =    -0.00000000   -0.00000000    0.00001180
     atom    2 type  2   force =    -0.00000000   -0.00000161   -0.00000288
     atom    3 type  1   force =     0.00000000   -0.00000000    0.00000315
     atom    4 type  2   force =     0.00000139   -0.00000080    0.00004749
     The Hubbard contrib.    to forces
     atom    1 type  1   force =     0.00000000    0.00000000    0.00000000
     atom    2 type  2   force =     0.00000000    0.00000000    0.00000000
     atom    3 type  1   force =     0.00000000    0.00000000    0.00000000
     atom    4 type  2   force =     0.00000000    0.00000000    0.00000000
     The SCF correction term to forces
     atom    1 type  1   force =     0.00000000    0.00000000   -0.00000000
     atom    2 type  2   force =    -0.00000000    0.00000000   -0.00000000
     atom    3 type  1   force =    -0.00000000    0.00000000    0.00007517
     atom    4 type  2   force =     0.00000000   -0.00000000    0.00013764

     Total force =     0.000269     Total SCF correction =     0.000157
     SCF correction compared to forces is large: reduce conv_thr to get better values


     Computing stress (Cartesian axis) and pressure



     -----------------------------------------------
     Non-local corr. energy    =       0.20071640 Ry
     -----------------------------------------------

          total   stress  (Ry/bohr**3)                   (kbar)     P=        4.00
   0.00003922   0.00000000   0.00000000            5.77        0.00        0.00
   0.00000000   0.00003922   0.00000000            0.00        5.77        0.00
   0.00000000   0.00000000   0.00000317            0.00        0.00        0.47

     kinetic stress (kbar)   4828.39      0.00      0.00
                                0.00   4828.39     -0.00
                                0.00     -0.00   5250.03

     local   stress (kbar)-109838.67      0.00      0.00
                                0.00-109838.67      0.00
                                0.00      0.00 110531.93

     nonloc. stress (kbar)   -796.79      0.00      0.00
                                0.00   -796.79      0.00
                                0.00      0.00   -768.51

     hartree stress (kbar)  53465.54      0.00     -0.00
                                0.00  53465.54     -0.00
                               -0.00     -0.00 -52635.41

     exc-cor stress (kbar)   -485.04     -0.00     -0.00
                               -0.00   -485.04      0.00
                               -0.00      0.00   -532.43

     corecor stress (kbar)   -541.58      0.00      0.00
                                0.00   -541.58     -0.00
                                0.00     -0.00   -529.73

     ewald   stress (kbar)  53369.55     -0.00     -0.00
                               -0.00  53369.56     -0.00
                               -0.00     -0.00 -61342.86

     hubbard stress (kbar)      0.00      0.00      0.00
                                0.00      0.00      0.00
                                0.00      0.00      0.00

     DFT-D   stress (kbar)      0.00      0.00      0.00
                                0.00      0.00      0.00
                                0.00      0.00      0.00

     XDM     stress (kbar)      0.00      0.00      0.00
                                0.00      0.00      0.00
                                0.00      0.00      0.00

     dft-nl  stress (kbar)      4.37      0.00     -0.00
                                0.00      4.37     -0.00
                               -0.00     -0.00     27.44

     TS-vdW  stress (kbar)      0.00      0.00      0.00
                                0.00      0.00      0.00
                                0.00      0.00      0.00

     MDB     stress (kbar)      0.00      0.00      0.00
                                0.00      0.00      0.00
                                0.00      0.00      0.00

     3D-RISM stress (kbar)      0.00      0.00      0.00
                                0.00      0.00      0.00
                                0.00      0.00      0.00

     Energy error            =      7.7E-07 Ry
     Gradient error          =      2.3E-04 Ry/Bohr
     Cell gradient error     =      4.7E-01 kbar

     bfgs converged in   3 scf cycles and   2 bfgs steps
     (criteria: energy <  1.0E-04 Ry, force <  1.0E-03 Ry/Bohr, cell <  5.0E-01 kbar)

     End of BFGS Geometry Optimization

     Final enthalpy           =     -53.7035864021 Ry

     File ./tmp/BN2L_AB_PBE_vdW.bfgs deleted, as requested
Begin final coordinates
     new unit-cell volume =    738.02075 a.u.^3 (   109.36339 Ang^3 )
     density =      0.72915 g/cm^3

CELL_PARAMETERS (alat=  4.74000000)
   1.000000000   0.000000000   0.000000000
  -0.500000000   0.866025404   0.000000000
   0.000000000   0.000000000   8.002080452

ATOMIC_POSITIONS (crystal)
B             0.0000000000        0.0000000000        0.0000000000    0   0   0
N             0.3333330000        0.6666660000        0.0000000000    0   0   0
B             0.0000000000        0.0000000000        0.1639060742
N             0.6666670000        0.3333330000        0.1639367809
End final coordinates



     Writing config-only to output data dir ./tmp/BN2L_AB_PBE_vdW.save/

     Final scf calculation at the relaxed structure.
     The G-vectors are recalculated for the final unit cell
     Results may differ from those at the preceding step.

     Parallelization info
     --------------------
     sticks:   dense  smooth     PW     G-vecs:    dense   smooth      PW
     Min          93      93     26                16395    16395    2566
     Max          94      94     27                16432    16432    2595
     Sum         745     745    211               131233   131233   20621

     Using Slab Decomposition



     bravais-lattice index     =            4
     lattice parameter (alat)  =       4.7400  a.u.
     unit-cell volume          =     738.0207 (a.u.)^3
     number of atoms/cell      =            4
     number of atomic types    =            2
     number of electrons       =        16.00
     number of Kohn-Sham states=           12
     kinetic-energy cutoff     =     120.0000  Ry
     charge density cutoff     =     480.0000  Ry
     scf convergence threshold =      1.0E-08
     mixing beta               =       0.7000
     number of iterations used =            8  plain     mixing
     press convergence thresh. =      5.0E-01
     Exchange-correlation= VDW-DF2-B86R
                           (   1   4  26   0   2   0   0)

     celldm(1)=   4.740000  celldm(2)=   0.000000  celldm(3)=   8.000000
     celldm(4)=   0.000000  celldm(5)=   0.000000  celldm(6)=   0.000000

     crystal axes: (cart. coord. in units of alat)
               a(1) = (   1.000000   0.000000   0.000000 )  
               a(2) = (  -0.500000   0.866025   0.000000 )  
               a(3) = (   0.000000   0.000000   8.002080 )  

     reciprocal axes: (cart. coord. in units 2 pi/alat)
               b(1) = (  1.000000  0.577350 -0.000000 )  
               b(2) = (  0.000000  1.154701  0.000000 )  
               b(3) = (  0.000000 -0.000000  0.124968 )  


     PseudoPot. # 1 for B  read from file:
     ../../../Pseudo/PBE/B.upf
     MD5 check sum: 72f82fc31bc892420d0cab7e25c88ab8
     Pseudo is Norm-conserving + core correction, Zval =  3.0
     Generated using ONCVPSP code by D. R. Hamann
     Using radial grid of 1534 points,  4 beta functions with: 
                l(1) =   0
                l(2) =   0
                l(3) =   1
                l(4) =   1

     PseudoPot. # 2 for N  read from file:
     ../../../Pseudo/PBE/N.upf
     MD5 check sum: d34365f73bb0e2ee98afc20ec3e87676
     Pseudo is Norm-conserving + core correction, Zval =  5.0
     Generated using ONCVPSP code by D. R. Hamann
     Using radial grid of 1058 points,  4 beta functions with: 
                l(1) =   0
                l(2) =   0
                l(3) =   1
                l(4) =   1

     atomic species   valence    mass     pseudopotential
        B              3.00    10.00000     B ( 1.00)
        N              5.00    14.01100     N ( 1.00)

      6 Sym. Ops. (no inversion) found


                                    s                        frac. trans.

      isym =  1     identity                                     

 cryst.   s( 1) = (     1          0          0      )
                  (     0          1          0      )
                  (     0          0          1      )

 cart.    s( 1) = (  1.0000000  0.0000000  0.0000000 )
                  (  0.0000000  1.0000000  0.0000000 )
                  (  0.0000000  0.0000000  1.0000000 )


      isym =  2     120 deg rotation - cryst. axis [0,0,1]       

 cryst.   s( 2) = (     0          1          0      )
                  (    -1         -1          0      )
                  (     0          0          1      )

 cart.    s( 2) = ( -0.5000000 -0.8660254  0.0000000 )
                  (  0.8660254 -0.5000000  0.0000000 )
                  (  0.0000000  0.0000000  1.0000000 )


      isym =  3     120 deg rotation - cryst. axis [0,0,-1]      

 cryst.   s( 3) = (    -1         -1          0      )
                  (     1          0          0      )
                  (     0          0          1      )

 cart.    s( 3) = ( -0.5000000  0.8660254  0.0000000 )
                  ( -0.8660254 -0.5000000  0.0000000 )
                  (  0.0000000  0.0000000  1.0000000 )


      isym =  4     inv. 180 deg rotation - cart. axis [1,0,0]   

 cryst.   s( 4) = (    -1          0          0      )
                  (     1          1          0      )
                  (     0          0          1      )

 cart.    s( 4) = ( -1.0000000  0.0000000  0.0000000 )
                  (  0.0000000  1.0000000  0.0000000 )
                  (  0.0000000  0.0000000  1.0000000 )


      isym =  5     inv. 180 deg rotation - cryst. axis [0,1,0]  

 cryst.   s( 5) = (     1          1          0      )
                  (     0         -1          0      )
                  (     0          0          1      )

 cart.    s( 5) = (  0.5000000  0.8660254  0.0000000 )
                  (  0.8660254 -0.5000000  0.0000000 )
                  (  0.0000000  0.0000000  1.0000000 )


      isym =  6     inv. 180 deg rotation - cryst. axis [1,1,0]  

 cryst.   s( 6) = (     0         -1          0      )
                  (    -1          0          0      )
                  (     0          0          1      )

 cart.    s( 6) = (  0.5000000 -0.8660254  0.0000000 )
                  ( -0.8660254 -0.5000000  0.0000000 )
                  (  0.0000000  0.0000000  1.0000000 )


     point group C_3v (3m)  
     there are  3 classes
     the character table:

       E     2C3   3s_v 
A_1    1.00  1.00  1.00
A_2    1.00  1.00 -1.00
E      2.00 -1.00  0.00

     the symmetry operations in each class and the name of the first element:

     E        1
          identity                                               
     2C3      2    3
          120 deg rotation - cryst. axis [0,0,1]                 
     3s_v     4    5    6
          inv. 180 deg rotation - cart. axis [1,0,0]             

   Cartesian axes

     site n.     atom                  positions (alat units)
         1           B   tau(   1) = (   0.0000000   0.0000000   0.0000000  )
         2           N   tau(   2) = (   0.0000000   0.5773497   0.0000000  )
         3           B   tau(   3) = (   0.0000000   0.0000000   1.3115896  )
         4           N   tau(   4) = (   0.5000005   0.2886748   1.3118353  )

   Crystallographic axes

     site n.     atom                  positions (cryst. coord.)
         1           B   tau(   1) = (  0.0000000  0.0000000  0.0000000  )
         2           N   tau(   2) = (  0.3333330  0.6666660  0.0000000  )
[...]
     estimated scf accuracy    <       0.00004483 Ry

     iteration #  7     ecut=   120.00 Ry     beta= 0.70
     Davidson diagonalization with overlap

---- Real-time Memory Report at c_bands before calling an iterative solver
             0 MiB given to the printing process from OS
             0 MiB allocation reported by mallinfo(arena+hblkhd)
             0 MiB available memory on the node where the printing process lives
------------------
     ethr =  2.80E-07,  avg # of iterations =  3.9


     -----------------------------------------------
     Non-local corr. energy    =       0.20071280 Ry
     -----------------------------------------------


     total cpu time spent up to now is       67.3 secs

     total energy              =     -53.70358421 Ry
     estimated scf accuracy    <       0.00001606 Ry

     iteration #  8     ecut=   120.00 Ry     beta= 0.70
     Davidson diagonalization with overlap

---- Real-time Memory Report at c_bands before calling an iterative solver
             0 MiB given to the printing process from OS
             0 MiB allocation reported by mallinfo(arena+hblkhd)
             0 MiB available memory on the node where the printing process lives
------------------
     ethr =  1.00E-07,  avg # of iterations =  2.0


     -----------------------------------------------
     Non-local corr. energy    =       0.20071532 Ry
     -----------------------------------------------


     total cpu time spent up to now is       68.4 secs

     total energy              =     -53.70358602 Ry
     estimated scf accuracy    <       0.00000072 Ry

     iteration #  9     ecut=   120.00 Ry     beta= 0.70
     Davidson diagonalization with overlap

---- Real-time Memory Report at c_bands before calling an iterative solver
             0 MiB given to the printing process from OS
             0 MiB allocation reported by mallinfo(arena+hblkhd)
             0 MiB available memory on the node where the printing process lives
------------------
     ethr =  4.49E-09,  avg # of iterations =  3.6


     -----------------------------------------------
     Non-local corr. energy    =       0.20071671 Ry
     -----------------------------------------------


     total cpu time spent up to now is       69.8 secs

     total energy              =     -53.70358642 Ry
     estimated scf accuracy    <       0.00000002 Ry

     iteration # 10     ecut=   120.00 Ry     beta= 0.70
     Davidson diagonalization with overlap

---- Real-time Memory Report at c_bands before calling an iterative solver
             0 MiB given to the printing process from OS
             0 MiB allocation reported by mallinfo(arena+hblkhd)
             0 MiB available memory on the node where the printing process lives
------------------
     ethr =  1.02E-10,  avg # of iterations =  3.9


     -----------------------------------------------
     Non-local corr. energy    =       0.20071630 Ry
     -----------------------------------------------


     total cpu time spent up to now is       71.2 secs

     total energy              =     -53.70358642 Ry
     estimated scf accuracy    <       0.00000004 Ry

     iteration # 11     ecut=   120.00 Ry     beta= 0.70
     Davidson diagonalization with overlap

---- Real-time Memory Report at c_bands before calling an iterative solver
             0 MiB given to the printing process from OS
             0 MiB allocation reported by mallinfo(arena+hblkhd)
             0 MiB available memory on the node where the printing process lives
------------------
     ethr =  1.02E-10,  avg # of iterations =  1.6


     -----------------------------------------------
     Non-local corr. energy    =       0.20071621 Ry
     -----------------------------------------------


     total cpu time spent up to now is       72.3 secs

     total energy              =     -53.70358642 Ry
     estimated scf accuracy    <       0.00000001 Ry

     iteration # 12     ecut=   120.00 Ry     beta= 0.70
     Davidson diagonalization with overlap

---- Real-time Memory Report at c_bands before calling an iterative solver
             0 MiB given to the printing process from OS
             0 MiB allocation reported by mallinfo(arena+hblkhd)
             0 MiB available memory on the node where the printing process lives
------------------
     ethr =  7.09E-11,  avg # of iterations =  2.0


     -----------------------------------------------
     Non-local corr. energy    =       0.20071657 Ry
     -----------------------------------------------


     total cpu time spent up to now is       73.4 secs

     End of self-consistent calculation

          k = 0.0000 0.0000 0.0000 ( 16399 PWs)   bands (ev):

   -20.1626 -20.0017  -8.2637  -7.1499  -3.8519  -3.8518  -3.8485  -3.8484
     2.0417   2.5740   3.7445   4.8677

     occupation numbers 
     1.0000   1.0000   1.0000   1.0000   1.0000   1.0000   1.0000   1.0000
     0.0000   0.0000   0.0000   0.0000

          k = 0.0000 0.0962 0.0000 ( 16391 PWs)   bands (ev):

   -20.0284 -19.8701  -8.0801  -6.9772  -4.4118  -4.3917  -4.1127  -4.0989
     2.2738   2.7868   3.9676   4.9972

     occupation numbers 
     1.0000   1.0000   1.0000   1.0000   1.0000   1.0000   1.0000   1.0000
     0.0000   0.0000   0.0000   0.0000

          k = 0.0000 0.1925 0.0000 ( 16394 PWs)   bands (ev):

   -19.6333 -19.4830  -7.5378  -6.4748  -5.8147  -5.7674  -4.7412  -4.7176
     2.9334   3.4060   4.6238   5.6252

     occupation numbers 
     1.0000   1.0000   1.0000   1.0000   1.0000   1.0000   1.0000   1.0000
     0.0000   0.0000   0.0000   0.0000

          k = 0.0000 0.2887 0.0000 ( 16382 PWs)   bands (ev):

   -19.0042 -18.8679  -7.6106  -7.5408  -6.6422  -5.6482  -5.4688  -5.4390
     3.9750   4.3473   5.5128   5.8642

     occupation numbers 
     1.0000   1.0000   1.0000   1.0000   1.0000   1.0000   1.0000   1.0000
     0.0000   0.0000   0.0000   0.0000

          k = 0.0000 0.3849 0.0000 ( 16376 PWs)   bands (ev):

   -18.2087 -18.0947  -9.3793  -9.2911  -6.0940  -6.0606  -5.4984  -4.6303
     4.2672   4.7572   5.3388   6.4774

     occupation numbers 
     1.0000   1.0000   1.0000   1.0000   1.0000   1.0000   1.0000   1.0000
     0.0000   0.0000   0.0000   0.0000

          k = 0.0000 0.4811 0.0000 ( 16408 PWs)   bands (ev):

   -17.4211 -17.3420 -10.7992 -10.6938  -6.5043  -6.4690  -4.2527  -3.6645
     2.7194   3.4185   6.6862   7.5080

     occupation numbers 
     1.0000   1.0000   1.0000   1.0000   1.0000   1.0000   1.0000   1.0000
     0.0000   0.0000   0.0000   0.0000

          k = 0.0000-0.5774 0.0000 ( 16394 PWs)   bands (ev):

   -17.0424 -16.9962 -11.3869 -11.2743  -6.6462  -6.6104  -3.4365  -3.3875
     1.9976   2.6961   7.1597   7.5812

     occupation numbers 
     1.0000   1.0000   1.0000   1.0000   1.0000   1.0000   1.0000   1.0000
     0.0000   0.0000   0.0000   0.0000

          k = 0.0833 0.1443 0.0000 ( 16409 PWs)   bands (ev):

   -19.7637 -19.6107  -7.7168  -6.6380  -5.3171  -5.2972  -4.6138  -4.6091
     2.7204   3.2037   4.4082   5.4203

     occupation numbers 
     1.0000   1.0000   1.0000   1.0000   1.0000   1.0000   1.0000   1.0000
     0.0000   0.0000   0.0000   0.0000

          k = 0.0833 0.2406 0.0000 ( 16389 PWs)   bands (ev):

   -19.2503 -19.1082  -7.0385  -6.7890  -6.7508  -5.9603  -5.4077  -5.3835
     3.5781   3.9988   5.2599   5.8427

     occupation numbers 
     1.0000   1.0000   1.0000   1.0000   1.0000   1.0000   1.0000   1.0000
     0.0000   0.0000   0.0000   0.0000

          k = 0.0833 0.3368 0.0000 ( 16373 PWs)   bands (ev):

   -18.5317 -18.4074  -8.5254  -8.4560  -6.1597  -6.1213  -5.9711  -5.0409
     4.7835   4.8334   5.0810   6.4563

     occupation numbers 
     1.0000   1.0000   1.0000   1.0000   1.0000   1.0000   1.0000   1.0000
     0.0000   0.0000   0.0000   0.0000

          k = 0.0833 0.4330 0.0000 ( 16390 PWs)   bands (ev):

   -17.7167 -17.6204 -10.1116 -10.0199  -6.7103  -6.6672  -4.7510  -4.0073
     3.4305   4.1006   6.3124   7.2446

     occupation numbers 
     1.0000   1.0000   1.0000   1.0000   1.0000   1.0000   1.0000   1.0000
     0.0000   0.0000   0.0000   0.0000

          k = 0.0833 0.5292 0.0000 ( 16387 PWs)   bands (ev):

   -17.0783 -17.0225 -11.1542 -11.0479  -6.9997  -6.9540  -3.6278  -3.2983
     2.1875   2.9339   7.5104   8.1164

     occupation numbers 
     1.0000   1.0000   1.0000   1.0000   1.0000   1.0000   1.0000   1.0000
     0.0000   0.0000   0.0000   0.0000

          k = 0.1667 0.2887 0.0000 ( 16370 PWs)   bands (ev):

   -18.6434 -18.5158  -8.0044  -7.9818  -6.4209  -6.3909  -6.1328  -5.1829
     4.6331   4.8257   5.2823   6.6044

     occupation numbers 
     1.0000   1.0000   1.0000   1.0000   1.0000   1.0000   1.0000   1.0000
     0.0000   0.0000   0.0000   0.0000

          k = 0.1667 0.3849 0.0000 ( 16366 PWs)   bands (ev):

   -17.8838 -17.7790  -9.3597  -9.3083  -7.2918  -7.2408  -5.0213  -4.2082
     3.9920   4.6025   6.0751   6.9722

     occupation numbers 
     1.0000   1.0000   1.0000   1.0000   1.0000   1.0000   1.0000   1.0000
     0.0000   0.0000   0.0000   0.0000

          k = 0.1667 0.4811 0.0000 ( 16381 PWs)   bands (ev):

   -17.1452 -17.0752 -10.5544 -10.4717  -7.8177  -7.7523  -3.8290  -3.2923
     2.6103   3.4302   7.7461   8.5592

     occupation numbers 
     1.0000   1.0000   1.0000   1.0000   1.0000   1.0000   1.0000   1.0000
     0.0000   0.0000   0.0000   0.0000

          k = 0.1667 0.5774 0.0000 ( 16398 PWs)   bands (ev):

   -16.7972 -16.7594 -11.0623 -10.9677  -7.9906  -7.9211  -3.0824  -3.0065
     1.9489   2.8423   8.8190   9.4685

     occupation numbers 
     1.0000   1.0000   1.0000   1.0000   1.0000   1.0000   1.0000   1.0000
     0.0000   0.0000   0.0000   0.0000

          k = 0.2500 0.4330 0.0000 ( 16354 PWs)   bands (ev):

   -17.1767 -17.1011 -10.0678 -10.0474  -8.3791  -8.3068  -3.9092  -3.3054
     2.8468   3.6964   7.6861   8.3990

     occupation numbers 
     1.0000   1.0000   1.0000   1.0000   1.0000   1.0000   1.0000   1.0000
     0.0000   0.0000   0.0000   0.0000

          k = 0.2500 0.5292 0.0000 ( 16385 PWs)   bands (ev):

   -16.6538 -16.6175 -10.5968 -10.5405  -8.9966  -8.8987  -2.9449  -2.6937
     1.9293   2.9930   9.3925   9.8154

     occupation numbers 
     1.0000   1.0000   1.0000   1.0000   1.0000   1.0000   1.0000   1.0000
     0.0000   0.0000   0.0000   0.0000

          k = 0.3333 0.5774 0.0000 ( 16416 PWs)   bands (ev):

   -16.4451 -16.4428 -10.3582 -10.3559  -9.6992  -9.5460  -2.4969  -2.4947
     1.6231   2.8521   9.7792  10.2529

     occupation numbers 
     1.0000   1.0000   1.0000   1.0000   1.0000   1.0000   1.0000   1.0000
     0.0000   0.0000   0.0000   0.0000

     the Fermi energy is    -0.9828 ev

!    total energy              =     -53.70358642 Ry
     estimated scf accuracy    <          7.9E-10 Ry
     smearing contrib. (-TS)   =       0.00000000 Ry
     internal energy E=F+TS    =     -53.70358642 Ry

     The total energy is F=E-TS. E is the sum of the following terms:
     one-electron contribution =    -536.46460460 Ry
     hartree contribution      =     272.39883682 Ry
     xc contribution           =     -17.38910126 Ry
     ewald contribution        =     227.75128262 Ry

     convergence has been achieved in  12 iterations


     -----------------------------------------------
     Non-local corr. energy    =       0.20071657 Ry
     -----------------------------------------------


     Forces acting on atoms (cartesian axes, Ry/au):

     atom    1 type  1   force =     0.00000000   -0.00000000    0.00011219
     atom    2 type  2   force =     0.00000000    0.00000000   -0.00050269
     atom    3 type  1   force =     0.00000000    0.00000000    0.00022874
     atom    4 type  2   force =     0.00000000    0.00000000    0.00016175
     The non-local contrib.  to forces
     atom    1 type  1   force =     0.00000000    0.00000000   -0.00072695
     atom    2 type  2   force =     0.00000000    0.00000000   -0.00116519
     atom    3 type  1   force =     0.00000000    0.00000000    0.00067466
     atom    4 type  2   force =    -0.00000000   -0.00000000   -0.00059434
     The ionic contribution  to forces
     atom    1 type  1   force =     0.00000000   -0.00000893  -10.41880549
     atom    2 type  2   force =     0.00000001    0.00000893  -17.35825174
     atom    3 type  1   force =     0.00000773   -0.00000447   10.41239599
     atom    4 type  2   force =    -0.00000774    0.00000446   17.36466124
     The local contribution  to forces
     atom    1 type  1   force =    -0.00000000   -0.00000000   10.41962701
     atom    2 type  2   force =    -0.00000000    0.00003864   17.35890140
     atom    3 type  1   force =     0.00000000    0.00000000  -10.41284071
     atom    4 type  2   force =    -0.00003346    0.00001932  -17.36393976
     The core correction contribution to forces
     atom    1 type  1   force =    -0.00000000   -0.00000000    0.00001095
     atom    2 type  2   force =    -0.00000000   -0.00000161   -0.00000193
     atom    3 type  1   force =     0.00000000   -0.00000000    0.00000392
     atom    4 type  2   force =     0.00000139   -0.00000080    0.00004658
     The Hubbard contrib.    to forces
     atom    1 type  1   force =     0.00000000    0.00000000    0.00000000
     atom    2 type  2   force =     0.00000000    0.00000000    0.00000000
     atom    3 type  1   force =     0.00000000    0.00000000    0.00000000
     atom    4 type  2   force =     0.00000000    0.00000000    0.00000000
     The SCF correction term to forces
     atom    1 type  1   force =    -0.00000000    0.00000000    0.00000000
     atom    2 type  2   force =     0.00000000   -0.00000000    0.00000000
     atom    3 type  1   force =     0.00000000   -0.00000000   -0.00000537
     atom    4 type  2   force =     0.00000000   -0.00000000   -0.00001222

     Total force =     0.000280     Total SCF correction =     0.000013


     Computing stress (Cartesian axis) and pressure



     -----------------------------------------------
     Non-local corr. energy    =       0.20071657 Ry
     -----------------------------------------------

          total   stress  (Ry/bohr**3)                   (kbar)     P=        4.01
   0.00003929  -0.00000000   0.00000000            5.78       -0.00        0.00
  -0.00000000   0.00003929   0.00000000           -0.00        5.78        0.00
   0.00000000   0.00000000   0.00000310            0.00        0.00        0.46

     kinetic stress (kbar)   4828.40      0.00      0.00
                                0.00   4828.40      0.00
                                0.00      0.00   5250.03

     local   stress (kbar)-109838.55      0.00      0.00
                                0.00-109838.55      0.00
                                0.00      0.00 110531.81

     nonloc. stress (kbar)   -796.79      0.00      0.00
                                0.00   -796.79      0.00
                                0.00      0.00   -768.52

     hartree stress (kbar)  53465.42     -0.00      0.00
                               -0.00  53465.42     -0.00
                                0.00     -0.00 -52635.29

     exc-cor stress (kbar)   -485.04     -0.00     -0.00
                               -0.00   -485.04      0.00
                               -0.00      0.00   -532.43

     corecor stress (kbar)   -541.58      0.00      0.00
                                0.00   -541.58     -0.00
                                0.00     -0.00   -529.73

     ewald   stress (kbar)  53369.55     -0.00     -0.00
                               -0.00  53369.56     -0.00
                               -0.00     -0.00 -61342.86

     hubbard stress (kbar)      0.00      0.00      0.00
                                0.00      0.00      0.00
                                0.00      0.00      0.00

     DFT-D   stress (kbar)      0.00      0.00      0.00
                                0.00      0.00      0.00
                                0.00      0.00      0.00

     XDM     stress (kbar)      0.00      0.00      0.00
                                0.00      0.00      0.00
                                0.00      0.00      0.00

     dft-nl  stress (kbar)      4.37      0.00     -0.00
                                0.00      4.37     -0.00
                               -0.00     -0.00     27.44

     TS-vdW  stress (kbar)      0.00      0.00      0.00
                                0.00      0.00      0.00
                                0.00      0.00      0.00

     MDB     stress (kbar)      0.00      0.00      0.00
                                0.00      0.00      0.00
                                0.00      0.00      0.00

     3D-RISM stress (kbar)      0.00      0.00      0.00
                                0.00      0.00      0.00
                                0.00      0.00      0.00


     Writing all to output data dir ./tmp/BN2L_AB_PBE_vdW.save/

     init_run     :     12.51s CPU     12.63s WALL (       2 calls)
     electrons    :     47.10s CPU     46.11s WALL (       4 calls)
     update_pot   :      3.07s CPU      3.11s WALL (       2 calls)
     forces       :      4.02s CPU      4.12s WALL (       4 calls)
     stress       :     10.53s CPU     11.18s WALL (       4 calls)

     Called by init_run:
     wfcinit      :      0.81s CPU      0.81s WALL (       2 calls)
     wfcinit:atom :      0.02s CPU      0.02s WALL (      38 calls)
     wfcinit:wfcr :      0.71s CPU      0.71s WALL (      38 calls)
     potinit      :      9.62s CPU      9.71s WALL (       2 calls)
     hinit0       :      1.62s CPU      1.63s WALL (       2 calls)

     Called by electrons:
     c_bands      :     37.08s CPU     35.39s WALL (      34 calls)
     sum_band     :      4.58s CPU      4.68s WALL (      34 calls)
     v_of_rho     :     14.41s CPU     15.05s WALL (      36 calls)
     v_h          :      0.07s CPU      0.07s WALL (      36 calls)
     v_xc         :     15.60s CPU     16.37s WALL (      44 calls)
     mix_rho      :      0.20s CPU      0.26s WALL (      34 calls)
     vdW_kernel   :      8.62s CPU      8.68s WALL (       1 calls)

     Called by c_bands:
     init_us_2    :      0.93s CPU      0.95s WALL (    1482 calls)
     init_us_2:cp :      0.93s CPU      0.94s WALL (    1482 calls)
     cegterg      :     35.75s CPU     34.02s WALL (     646 calls)

     Called by sum_band:
     sum_band:wei :      0.00s CPU      0.00s WALL (      34 calls)
     sum_band:loo :      4.45s CPU      4.54s WALL (      34 calls)
     sum_band:buf :      0.17s CPU      0.17s WALL (     646 calls)
     sum_band:ini :      0.43s CPU      0.44s WALL (     646 calls)

     Called by *egterg:
     cdiaghg      :      0.54s CPU      0.55s WALL (    2896 calls)
     cegterg:over :      1.91s CPU      1.96s WALL (    2326 calls)
     cegterg:upda :      1.59s CPU      1.23s WALL (    2326 calls)
     cegterg:last :      2.31s CPU      1.51s WALL (    1584 calls)
     h_psi        :     28.94s CPU     28.21s WALL (    3010 calls)
     g_psi        :      0.19s CPU      0.23s WALL (    2326 calls)

     Called by h_psi:
     h_psi:calbec :      2.40s CPU      2.19s WALL (    3010 calls)
     vloc_psi     :     23.28s CPU     23.79s WALL (    3010 calls)
     add_vuspsi   :      2.97s CPU      1.90s WALL (    3010 calls)

     General routines
     calbec       :      2.78s CPU      2.58s WALL (    3390 calls)
     fft          :      3.06s CPU      3.13s WALL (    2836 calls)
     ffts         :      0.03s CPU      0.03s WALL (      34 calls)
     fftw         :     22.86s CPU     23.31s WALL (   54804 calls)

     Parallel routines

     PWSCF        :   1m17.38s CPU   1m17.33s WALL


   This run was terminated on:  13:45:36   8Apr2024            

=------------------------------------------------------------------------------=
   JOB DONE.
=------------------------------------------------------------------------------=
