
     Program PWSCF v.7.2 starts on 27Mar2024 at 10:39:57 

     This program is part of the open-source Quantum ESPRESSO suite
     for quantum simulation of materials; please cite
         "P. Giannozzi et al., J. Phys.:Condens. Matter 21 395502 (2009);
         "P. Giannozzi et al., J. Phys.:Condens. Matter 29 465901 (2017);
         "P. Giannozzi et al., J. Chem. Phys. 152 154105 (2020);
          URL http://www.quantum-espresso.org", 
     in publications or presentations arising from this work. More details at
     http://www.quantum-espresso.org/quote

     Parallel version (MPI & OpenMP), running on       1 processor cores
     Number of MPI processes:                 1
     Threads/MPI process:                     1

     MPI processes distributed on     1 nodes
     0 MiB available memory on the printing compute node when the environment starts

     Waiting for input...
     Reading input from standard input

     Current dimensions of program PWSCF are:
     Max number of different atomic species (ntypx) = 10
     Max number of k-points (npk) =  40000
     Max angular momentum in pseudopotentials (lmaxx) =  4

     Subspace diagonalization in iterative solution of the eigenvalue problem:
     a serial algorithm will be used


     G-vector sticks info
     --------------------
     sticks:   dense  smooth     PW     G-vecs:    dense   smooth      PW
     Sum         121     121     37                 6307     6307    1307

     Using Slab Decomposition



     bravais-lattice index     =            4
     lattice parameter (alat)  =       4.6350  a.u.
     unit-cell volume          =     517.4056 (a.u.)^3
     number of atoms/cell      =            2
     number of atomic types    =            1
     number of electrons       =         8.00
     number of Kohn-Sham states=            8
     kinetic-energy cutoff     =      20.0000  Ry
     charge density cutoff     =      80.0000  Ry
     scf convergence threshold =      1.0E-06
     mixing beta               =       0.7000
     number of iterations used =            8  plain     mixing
     Exchange-correlation= PBE
                           (   1   4   3   4   0   0   0)

     celldm(1)=   4.635000  celldm(2)=   0.000000  celldm(3)=   6.000000
     celldm(4)=   0.000000  celldm(5)=   0.000000  celldm(6)=   0.000000

     crystal axes: (cart. coord. in units of alat)
               a(1) = (   1.000000   0.000000   0.000000 )  
               a(2) = (  -0.500000   0.866025   0.000000 )  
               a(3) = (   0.000000   0.000000   6.000000 )  

     reciprocal axes: (cart. coord. in units 2 pi/alat)
               b(1) = (  1.000000  0.577350 -0.000000 )  
               b(2) = (  0.000000  1.154701  0.000000 )  
               b(3) = (  0.000000 -0.000000  0.166667 )  


     PseudoPot. # 1 for C  read from file:
     ../../../../Pseudo/PBE/C.UPF
     MD5 check sum: 34a24e64c0a39f27c6c36b90a16ac686
     Pseudo is Norm-conserving + core correction, Zval =  4.0
     Generated using ONCVPSP code by D. R. Hamann
     Using radial grid of 1248 points,  4 beta functions with: 
                l(1) =   0
                l(2) =   0
                l(3) =   1
                l(4) =   1

     atomic species   valence    mass     pseudopotential
        C              4.00    12.01100     C ( 1.00)

     24 Sym. Ops., with inversion, found (12 have fractional translation)


                                    s                        frac. trans.

      isym =  1     identity                                     

 cryst.   s( 1) = (     1          0          0      )
                  (     0          1          0      )
                  (     0          0          1      )

 cart.    s( 1) = (  1.0000000  0.0000000  0.0000000 )
                  (  0.0000000  1.0000000  0.0000000 )
                  (  0.0000000  0.0000000  1.0000000 )


      isym =  2     180 deg rotation - cart. axis [0,0,1]        

 cryst.   s( 2) = (    -1          0          0      )    f =( -0.3333333 )
                  (     0         -1          0      )       (  0.3333333 )
                  (     0          0          1      )       (  0.0000000 )

 cart.    s( 2) = ( -1.0000000  0.0000000  0.0000000 )    f =( -0.5000000 )
                  (  0.0000000 -1.0000000  0.0000000 )       (  0.2886751 )
                  (  0.0000000  0.0000000  1.0000000 )       (  0.0000000 )


      isym =  3     180 deg rotation - cart. axis [0,1,0]        

 cryst.   s( 3) = (    -1          0          0      )
                  (     1          1          0      )
                  (     0          0         -1      )

 cart.    s( 3) = ( -1.0000000  0.0000000  0.0000000 )
                  (  0.0000000  1.0000000  0.0000000 )
                  (  0.0000000  0.0000000 -1.0000000 )


      isym =  4     180 deg rotation - cart. axis [1,0,0]        

 cryst.   s( 4) = (     1          0          0      )    f =( -0.3333333 )
                  (    -1         -1          0      )       (  0.3333333 )
                  (     0          0         -1      )       (  0.0000000 )

 cart.    s( 4) = (  1.0000000  0.0000000  0.0000000 )    f =( -0.5000000 )
                  (  0.0000000 -1.0000000  0.0000000 )       (  0.2886751 )
                  (  0.0000000  0.0000000 -1.0000000 )       (  0.0000000 )


      isym =  5      60 deg rotation - cryst. axis [0,0,1]       

 cryst.   s( 5) = (     1          1          0      )    f =( -0.3333333 )
                  (    -1          0          0      )       (  0.3333333 )
                  (     0          0          1      )       (  0.0000000 )

 cart.    s( 5) = (  0.5000000 -0.8660254  0.0000000 )    f =( -0.5000000 )
                  (  0.8660254  0.5000000  0.0000000 )       (  0.2886751 )
                  (  0.0000000  0.0000000  1.0000000 )       (  0.0000000 )


      isym =  6      60 deg rotation - cryst. axis [0,0,-1]      

 cryst.   s( 6) = (     0         -1          0      )    f =( -0.3333333 )
                  (     1          1          0      )       (  0.3333333 )
                  (     0          0          1      )       (  0.0000000 )

 cart.    s( 6) = (  0.5000000  0.8660254  0.0000000 )    f =( -0.5000000 )
                  ( -0.8660254  0.5000000  0.0000000 )       (  0.2886751 )
                  (  0.0000000  0.0000000  1.0000000 )       (  0.0000000 )


      isym =  7     120 deg rotation - cryst. axis [0,0,1]       

 cryst.   s( 7) = (     0          1          0      )
                  (    -1         -1          0      )
                  (     0          0          1      )

 cart.    s( 7) = ( -0.5000000 -0.8660254  0.0000000 )
                  (  0.8660254 -0.5000000  0.0000000 )
                  (  0.0000000  0.0000000  1.0000000 )


      isym =  8     120 deg rotation - cryst. axis [0,0,-1]      

 cryst.   s( 8) = (    -1         -1          0      )
                  (     1          0          0      )
                  (     0          0          1      )

 cart.    s( 8) = ( -0.5000000  0.8660254  0.0000000 )
                  ( -0.8660254 -0.5000000  0.0000000 )
                  (  0.0000000  0.0000000  1.0000000 )


      isym =  9     180 deg rotation - cryst. axis [1,-1,0]      

 cryst.   s( 9) = (     0         -1          0      )
                  (    -1          0          0      )
                  (     0          0         -1      )

 cart.    s( 9) = (  0.5000000 -0.8660254  0.0000000 )
                  ( -0.8660254 -0.5000000  0.0000000 )
                  (  0.0000000  0.0000000 -1.0000000 )


      isym = 10     180 deg rotation - cryst. axis [2,1,0]       

 cryst.   s(10) = (     1          1          0      )
                  (     0         -1          0      )
                  (     0          0         -1      )

 cart.    s(10) = (  0.5000000  0.8660254  0.0000000 )
                  (  0.8660254 -0.5000000  0.0000000 )
                  (  0.0000000  0.0000000 -1.0000000 )


      isym = 11     180 deg rotation - cryst. axis [0,1,0]       

 cryst.   s(11) = (    -1         -1          0      )    f =( -0.3333333 )
                  (     0          1          0      )       (  0.3333333 )
                  (     0          0         -1      )       (  0.0000000 )

 cart.    s(11) = ( -0.5000000 -0.8660254  0.0000000 )    f =( -0.5000000 )
                  ( -0.8660254  0.5000000  0.0000000 )       (  0.2886751 )
                  (  0.0000000  0.0000000 -1.0000000 )       (  0.0000000 )


      isym = 12     180 deg rotation - cryst. axis [1,1,0]       

 cryst.   s(12) = (     0          1          0      )    f =( -0.3333333 )
                  (     1          0          0      )       (  0.3333333 )
                  (     0          0         -1      )       (  0.0000000 )

 cart.    s(12) = ( -0.5000000  0.8660254  0.0000000 )    f =( -0.5000000 )
                  (  0.8660254  0.5000000  0.0000000 )       (  0.2886751 )
                  (  0.0000000  0.0000000 -1.0000000 )       (  0.0000000 )


      isym = 13     inversion                                    

 cryst.   s(13) = (    -1          0          0      )    f =( -0.3333333 )
                  (     0         -1          0      )       (  0.3333333 )
                  (     0          0         -1      )       (  0.0000000 )

 cart.    s(13) = ( -1.0000000  0.0000000  0.0000000 )    f =( -0.5000000 )
                  (  0.0000000 -1.0000000  0.0000000 )       (  0.2886751 )
                  (  0.0000000  0.0000000 -1.0000000 )       (  0.0000000 )


      isym = 14     inv. 180 deg rotation - cart. axis [0,0,1]   

 cryst.   s(14) = (     1          0          0      )
                  (     0          1          0      )
                  (     0          0         -1      )

 cart.    s(14) = (  1.0000000  0.0000000  0.0000000 )
                  (  0.0000000  1.0000000  0.0000000 )
                  (  0.0000000  0.0000000 -1.0000000 )


      isym = 15     inv. 180 deg rotation - cart. axis [0,1,0]   

 cryst.   s(15) = (     1          0          0      )    f =( -0.3333333 )
                  (    -1         -1          0      )       (  0.3333333 )
                  (     0          0          1      )       (  0.0000000 )

 cart.    s(15) = (  1.0000000  0.0000000  0.0000000 )    f =( -0.5000000 )
                  (  0.0000000 -1.0000000  0.0000000 )       (  0.2886751 )
                  (  0.0000000  0.0000000  1.0000000 )       (  0.0000000 )


      isym = 16     inv. 180 deg rotation - cart. axis [1,0,0]   

 cryst.   s(16) = (    -1          0          0      )
                  (     1          1          0      )
                  (     0          0          1      )

 cart.    s(16) = ( -1.0000000  0.0000000  0.0000000 )
                  (  0.0000000  1.0000000  0.0000000 )
                  (  0.0000000  0.0000000  1.0000000 )


      isym = 17     inv.  60 deg rotation - cryst. axis [0,0,1]  

 cryst.   s(17) = (    -1         -1          0      )
                  (     1          0          0      )
                  (     0          0         -1      )

 cart.    s(17) = ( -0.5000000  0.8660254  0.0000000 )
                  ( -0.8660254 -0.5000000  0.0000000 )
                  (  0.0000000  0.0000000 -1.0000000 )


      isym = 18     inv.  60 deg rotation - cryst. axis [0,0,-1] 

 cryst.   s(18) = (     0          1          0      )
                  (    -1         -1          0      )
                  (     0          0         -1      )

 cart.    s(18) = ( -0.5000000 -0.8660254  0.0000000 )
                  (  0.8660254 -0.5000000  0.0000000 )
                  (  0.0000000  0.0000000 -1.0000000 )


      isym = 19     inv. 120 deg rotation - cryst. axis [0,0,1]  

 cryst.   s(19) = (     0         -1          0      )    f =( -0.3333333 )
                  (     1          1          0      )       (  0.3333333 )
                  (     0          0         -1      )       (  0.0000000 )

 cart.    s(19) = (  0.5000000  0.8660254  0.0000000 )    f =( -0.5000000 )
                  ( -0.8660254  0.5000000  0.0000000 )       (  0.2886751 )
                  (  0.0000000  0.0000000 -1.0000000 )       (  0.0000000 )


      isym = 20     inv. 120 deg rotation - cryst. axis [0,0,-1] 

 cryst.   s(20) = (     1          1          0      )    f =( -0.3333333 )
                  (    -1          0          0      )       (  0.3333333 )
                  (     0          0         -1      )       (  0.0000000 )

 cart.    s(20) = (  0.5000000 -0.8660254  0.0000000 )    f =( -0.5000000 )
                  (  0.8660254  0.5000000  0.0000000 )       (  0.2886751 )
                  (  0.0000000  0.0000000 -1.0000000 )       (  0.0000000 )


      isym = 21     inv. 180 deg rotation - cryst. axis [1,-1,0] 

 cryst.   s(21) = (     0          1          0      )    f =( -0.3333333 )
                  (     1          0          0      )       (  0.3333333 )
                  (     0          0          1      )       (  0.0000000 )

 cart.    s(21) = ( -0.5000000  0.8660254  0.0000000 )    f =( -0.5000000 )
                  (  0.8660254  0.5000000  0.0000000 )       (  0.2886751 )
                  (  0.0000000  0.0000000  1.0000000 )       (  0.0000000 )


      isym = 22     inv. 180 deg rotation - cryst. axis [2,1,0]  

 cryst.   s(22) = (    -1         -1          0      )    f =( -0.3333333 )
                  (     0          1          0      )       (  0.3333333 )
                  (     0          0          1      )       (  0.0000000 )

 cart.    s(22) = ( -0.5000000 -0.8660254  0.0000000 )    f =( -0.5000000 )
                  ( -0.8660254  0.5000000  0.0000000 )       (  0.2886751 )
                  (  0.0000000  0.0000000  1.0000000 )       (  0.0000000 )


      isym = 23     inv. 180 deg rotation - cryst. axis [0,1,0]  

 cryst.   s(23) = (     1          1          0      )
                  (     0         -1          0      )
                  (     0          0          1      )

 cart.    s(23) = (  0.5000000  0.8660254  0.0000000 )
                  (  0.8660254 -0.5000000  0.0000000 )
                  (  0.0000000  0.0000000  1.0000000 )


      isym = 24     inv. 180 deg rotation - cryst. axis [1,1,0]  

 cryst.   s(24) = (     0         -1          0      )
                  (    -1          0          0      )
                  (     0          0          1      )

 cart.    s(24) = (  0.5000000 -0.8660254  0.0000000 )
                  ( -0.8660254 -0.5000000  0.0000000 )
                  (  0.0000000  0.0000000  1.0000000 )


     point group D_6h(6/mmm)
     there are 12 classes
     the character table:

       E     2C6   2C3   C2    3C2'  3C2'' i     2S3   2S6   s_h   3s_d  3s_v 
A_1g   1.00  1.00  1.00  1.00  1.00  1.00  1.00  1.00  1.00  1.00  1.00  1.00
A_2g   1.00  1.00  1.00  1.00 -1.00 -1.00  1.00  1.00  1.00  1.00 -1.00 -1.00
B_1g   1.00 -1.00  1.00 -1.00  1.00 -1.00  1.00 -1.00  1.00 -1.00  1.00 -1.00
B_2g   1.00 -1.00  1.00 -1.00 -1.00  1.00  1.00 -1.00  1.00 -1.00 -1.00  1.00
E_1g   2.00  1.00 -1.00 -2.00  0.00  0.00  2.00  1.00 -1.00 -2.00  0.00  0.00
E_2g   2.00 -1.00 -1.00  2.00  0.00  0.00  2.00 -1.00 -1.00  2.00  0.00  0.00
A_1u   1.00  1.00  1.00  1.00  1.00  1.00 -1.00 -1.00 -1.00 -1.00 -1.00 -1.00
A_2u   1.00  1.00  1.00  1.00 -1.00 -1.00 -1.00 -1.00 -1.00 -1.00  1.00  1.00
B_1u   1.00 -1.00  1.00 -1.00  1.00 -1.00 -1.00  1.00 -1.00  1.00 -1.00  1.00
B_2u   1.00 -1.00  1.00 -1.00 -1.00  1.00 -1.00  1.00 -1.00  1.00  1.00 -1.00
E_1u   2.00  1.00 -1.00 -2.00  0.00  0.00 -2.00 -1.00  1.00  2.00  0.00  0.00
E_2u   2.00 -1.00 -1.00  2.00  0.00  0.00 -2.00  1.00  1.00 -2.00  0.00  0.00

     the symmetry operations in each class and the name of the first element:

     E        1
          identity                                               
     2C6      5    6
           60 deg rotation - cryst. axis [0,0,1]                 
     2C3      7    8
          120 deg rotation - cryst. axis [0,0,1]                 
     C2       2
          180 deg rotation - cart. axis [0,0,1]                  
     3C2'     4   12   11
          180 deg rotation - cart. axis [1,0,0]                  
     3C2''    3    9   10
          180 deg rotation - cart. axis [0,1,0]                  
     i       13
          inversion                                              
     2S3     17   18
          inv.  60 deg rotation - cryst. axis [0,0,1]            
     2S6     19   20
          inv. 120 deg rotation - cryst. axis [0,0,1]            
     s_h     14
          inv. 180 deg rotation - cart. axis [0,0,1]             
     3s_d    16   24   23
          inv. 180 deg rotation - cart. axis [1,0,0]             
     3s_v    15   21   22
          inv. 180 deg rotation - cart. axis [0,1,0]             

   Cartesian axes

     site n.     atom                  positions (alat units)
         1           C   tau(   1) = (   0.0000000   0.0000000   0.0000000  )
         2           C   tau(   2) = (  -0.0000000   0.5773503   0.0000000  )

   Crystallographic axes

     site n.     atom                  positions (cryst. coord.)
         1           C   tau(   1) = (  0.0000000  0.0000000  0.0000000  )
         2           C   tau(   2) = (  0.3333333  0.6666667  0.0000000  )

     number of k points=    48  Marzari-Vanderbilt smearing, width (Ry)=  0.0050
                       cart. coord. in units 2pi/alat
        k(    1) = (   0.0000000   0.0000000   0.0000000), wk =   0.0045351
        k(    2) = (   0.0000000   0.0549857   0.0000000), wk =   0.0272109
        k(    3) = (   0.0000000   0.1099715   0.0000000), wk =   0.0272109
        k(    4) = (   0.0000000   0.1649572   0.0000000), wk =   0.0272109
        k(    5) = (   0.0000000   0.2199430   0.0000000), wk =   0.0272109
        k(    6) = (   0.0000000   0.2749287   0.0000000), wk =   0.0272109
        k(    7) = (   0.0000000   0.3299144   0.0000000), wk =   0.0272109
        k(    8) = (   0.0000000   0.3849002   0.0000000), wk =   0.0272109
        k(    9) = (   0.0000000   0.4398859   0.0000000), wk =   0.0272109
        k(   10) = (   0.0000000   0.4948717   0.0000000), wk =   0.0272109
        k(   11) = (   0.0000000   0.5498574   0.0000000), wk =   0.0272109
        k(   12) = (   0.0476190   0.0824786   0.0000000), wk =   0.0272109
        k(   13) = (   0.0476190   0.1374643   0.0000000), wk =   0.0544218
        k(   14) = (   0.0476190   0.1924501   0.0000000), wk =   0.0544218
        k(   15) = (   0.0476190   0.2474358   0.0000000), wk =   0.0544218
        k(   16) = (   0.0476190   0.3024216   0.0000000), wk =   0.0544218
        k(   17) = (   0.0476190   0.3574073   0.0000000), wk =   0.0544218
        k(   18) = (   0.0476190   0.4123930   0.0000000), wk =   0.0544218
        k(   19) = (   0.0476190   0.4673788   0.0000000), wk =   0.0544218
        k(   20) = (   0.0476190   0.5223645   0.0000000), wk =   0.0544218
        k(   21) = (   0.0476190   0.5773503   0.0000000), wk =   0.0272109
        k(   22) = (   0.0952381   0.1649572   0.0000000), wk =   0.0272109
        k(   23) = (   0.0952381   0.2199430   0.0000000), wk =   0.0544218
        k(   24) = (   0.0952381   0.2749287   0.0000000), wk =   0.0544218
        k(   25) = (   0.0952381   0.3299144   0.0000000), wk =   0.0544218
        k(   26) = (   0.0952381   0.3849002   0.0000000), wk =   0.0544218
        k(   27) = (   0.0952381   0.4398859   0.0000000), wk =   0.0544218
        k(   28) = (   0.0952381   0.4948717   0.0000000), wk =   0.0544218
        k(   29) = (   0.0952381   0.5498574   0.0000000), wk =   0.0544218
        k(   30) = (   0.1428571   0.2474358   0.0000000), wk =   0.0272109
        k(   31) = (   0.1428571   0.3024216   0.0000000), wk =   0.0544218
        k(   32) = (   0.1428571   0.3574073   0.0000000), wk =   0.0544218
        k(   33) = (   0.1428571   0.4123930   0.0000000), wk =   0.0544218
        k(   34) = (   0.1428571   0.4673788   0.0000000), wk =   0.0544218
        k(   35) = (   0.1428571   0.5223645   0.0000000), wk =   0.0544218
        k(   36) = (   0.1428571   0.5773503   0.0000000), wk =   0.0272109
        k(   37) = (   0.1904762   0.3299144   0.0000000), wk =   0.0272109
        k(   38) = (   0.1904762   0.3849002   0.0000000), wk =   0.0544218
        k(   39) = (   0.1904762   0.4398859   0.0000000), wk =   0.0544218
        k(   40) = (   0.1904762   0.4948717   0.0000000), wk =   0.0544218
        k(   41) = (   0.1904762   0.5498574   0.0000000), wk =   0.0544218
        k(   42) = (   0.2380952   0.4123930   0.0000000), wk =   0.0272109
        k(   43) = (   0.2380952   0.4673788   0.0000000), wk =   0.0544218
        k(   44) = (   0.2380952   0.5223645   0.0000000), wk =   0.0544218
        k(   45) = (   0.2380952   0.5773503   0.0000000), wk =   0.0272109
        k(   46) = (   0.2857143   0.4948717   0.0000000), wk =   0.0272109
        k(   47) = (   0.2857143   0.5498574   0.0000000), wk =   0.0544218
        k(   48) = (   0.3333333   0.5773503   0.0000000), wk =   0.0090703

                       cryst. coord.
        k(    1) = (   0.0000000   0.0000000   0.0000000), wk =   0.0045351
        k(    2) = (   0.0000000   0.0476190   0.0000000), wk =   0.0272109
        k(    3) = (   0.0000000   0.0952381   0.0000000), wk =   0.0272109
        k(    4) = (   0.0000000   0.1428571   0.0000000), wk =   0.0272109
        k(    5) = (   0.0000000   0.1904762   0.0000000), wk =   0.0272109
        k(    6) = (   0.0000000   0.2380952   0.0000000), wk =   0.0272109
        k(    7) = (   0.0000000   0.2857143   0.0000000), wk =   0.0272109
        k(    8) = (   0.0000000   0.3333333   0.0000000), wk =   0.0272109
        k(    9) = (   0.0000000   0.3809524   0.0000000), wk =   0.0272109
        k(   10) = (   0.0000000   0.4285714   0.0000000), wk =   0.0272109
        k(   11) = (   0.0000000   0.4761905   0.0000000), wk =   0.0272109
        k(   12) = (   0.0476190   0.0476190   0.0000000), wk =   0.0272109
        k(   13) = (   0.0476190   0.0952381   0.0000000), wk =   0.0544218
        k(   14) = (   0.0476190   0.1428571   0.0000000), wk =   0.0544218
        k(   15) = (   0.0476190   0.1904762   0.0000000), wk =   0.0544218
        k(   16) = (   0.0476190   0.2380952   0.0000000), wk =   0.0544218
        k(   17) = (   0.0476190   0.2857143   0.0000000), wk =   0.0544218
        k(   18) = (   0.0476190   0.3333333   0.0000000), wk =   0.0544218
        k(   19) = (   0.0476190   0.3809524   0.0000000), wk =   0.0544218
        k(   20) = (   0.0476190   0.4285714   0.0000000), wk =   0.0544218
        k(   21) = (   0.0476190   0.4761905   0.0000000), wk =   0.0272109
        k(   22) = (   0.0952381   0.0952381   0.0000000), wk =   0.0272109
        k(   23) = (   0.0952381   0.1428571   0.0000000), wk =   0.0544218
        k(   24) = (   0.0952381   0.1904762   0.0000000), wk =   0.0544218
        k(   25) = (   0.0952381   0.2380952   0.0000000), wk =   0.0544218
        k(   26) = (   0.0952381   0.2857143   0.0000000), wk =   0.0544218
        k(   27) = (   0.0952381   0.3333333   0.0000000), wk =   0.0544218
        k(   28) = (   0.0952381   0.3809524   0.0000000), wk =   0.0544218
        k(   29) = (   0.0952381   0.4285714   0.0000000), wk =   0.0544218
        k(   30) = (   0.1428571   0.1428571   0.0000000), wk =   0.0272109
        k(   31) = (   0.1428571   0.1904762   0.0000000), wk =   0.0544218
        k(   32) = (   0.1428571   0.2380952   0.0000000), wk =   0.0544218
        k(   33) = (   0.1428571   0.2857143   0.0000000), wk =   0.0544218
        k(   34) = (   0.1428571   0.3333333   0.0000000), wk =   0.0544218
        k(   35) = (   0.1428571   0.3809524   0.0000000), wk =   0.0544218
        k(   36) = (   0.1428571   0.4285714   0.0000000), wk =   0.0272109
        k(   37) = (   0.1904762   0.1904762   0.0000000), wk =   0.0272109
        k(   38) = (   0.1904762   0.2380952   0.0000000), wk =   0.0544218
        k(   39) = (   0.1904762   0.2857143   0.0000000), wk =   0.0544218
        k(   40) = (   0.1904762   0.3333333   0.0000000), wk =   0.0544218
        k(   41) = (   0.1904762   0.3809524   0.0000000), wk =   0.0544218
        k(   42) = (   0.2380952   0.2380952   0.0000000), wk =   0.0272109
        k(   43) = (   0.2380952   0.2857143   0.0000000), wk =   0.0544218
        k(   44) = (   0.2380952   0.3333333   0.0000000), wk =   0.0544218
        k(   45) = (   0.2380952   0.3809524   0.0000000), wk =   0.0272109
        k(   46) = (   0.2857143   0.2857143   0.0000000), wk =   0.0272109
        k(   47) = (   0.2857143   0.3333333   0.0000000), wk =   0.0544218
        k(   48) = (   0.3333333   0.3333333   0.0000000), wk =   0.0090703

     Dense  grid:     6307 G-vectors     FFT dimensions: (  15,  15,  80)

     Dynamical RAM for                 wfc:       0.10 MB

     Dynamical RAM for     wfc (w. buffer):       4.67 MB

     Dynamical RAM for           str. fact:       0.10 MB

     Dynamical RAM for           local pot:       0.00 MB

     Dynamical RAM for          nlocal pot:       0.19 MB

     Dynamical RAM for                qrad:       0.21 MB

     Dynamical RAM for          rho,v,vnew:       0.70 MB

     Dynamical RAM for               rhoin:       0.23 MB

     Dynamical RAM for            rho*nmix:       1.54 MB

     Dynamical RAM for           G-vectors:       0.41 MB

     Dynamical RAM for          h,s,v(r/c):       0.01 MB

     Dynamical RAM for          <psi|beta>:       0.00 MB

     Dynamical RAM for                 psi:       0.19 MB

     Dynamical RAM for                hpsi:       0.19 MB

     Dynamical RAM for      wfcinit/wfcrot:       0.19 MB

     Estimated static dynamical RAM per process >       7.39 MB

     Estimated max dynamical RAM per process >       9.32 MB

     Check: negative core charge=   -0.000070

     Initial potential from superposition of free atoms

     starting charge       7.9999, renormalised to       8.0000

     negative rho (up, down):  8.198E-03 0.000E+00
     Starting wfcs are    8 randomized atomic wfcs

     total cpu time spent up to now is        0.5 secs

     Self-consistent Calculation

     iteration #  1     ecut=    20.00 Ry     beta= 0.70
     Davidson diagonalization with overlap

---- Real-time Memory Report at c_bands before calling an iterative solver
             0 MiB given to the printing process from OS
             0 MiB allocation reported by mallinfo(arena+hblkhd)
             0 MiB available memory on the node where the printing process lives
------------------
     ethr =  1.00E-02,  avg # of iterations =  7.3

     negative rho (up, down):  2.156E-03 0.000E+00

     total cpu time spent up to now is        0.9 secs

     total energy              =     -23.41353623 Ry
     estimated scf accuracy    <       0.12000932 Ry

     iteration #  2     ecut=    20.00 Ry     beta= 0.70
     Davidson diagonalization with overlap

---- Real-time Memory Report at c_bands before calling an iterative solver
             0 MiB given to the printing process from OS
             0 MiB allocation reported by mallinfo(arena+hblkhd)
             0 MiB available memory on the node where the printing process lives
------------------
     ethr =  1.50E-03,  avg # of iterations =  3.9

     negative rho (up, down):  2.678E-04 0.000E+00

     total cpu time spent up to now is        1.2 secs

     total energy              =     -23.42375663 Ry
     estimated scf accuracy    <       0.00403354 Ry

     iteration #  3     ecut=    20.00 Ry     beta= 0.70
     Davidson diagonalization with overlap

---- Real-time Memory Report at c_bands before calling an iterative solver
             0 MiB given to the printing process from OS
             0 MiB allocation reported by mallinfo(arena+hblkhd)
             0 MiB available memory on the node where the printing process lives
------------------
     ethr =  5.04E-05,  avg # of iterations =  8.4

     total cpu time spent up to now is        1.6 secs

     total energy              =     -23.42389483 Ry
     estimated scf accuracy    <       0.00017036 Ry

     iteration #  4     ecut=    20.00 Ry     beta= 0.70
     Davidson diagonalization with overlap

---- Real-time Memory Report at c_bands before calling an iterative solver
             0 MiB given to the printing process from OS
             0 MiB allocation reported by mallinfo(arena+hblkhd)
             0 MiB available memory on the node where the printing process lives
------------------
     ethr =  2.13E-06,  avg # of iterations =  5.3

     total cpu time spent up to now is        1.9 secs

     End of self-consistent calculation

          k = 0.0000 0.0000 0.0000 (   801 PWs)   bands (ev):

   -21.7525  -9.3584  -4.4212  -4.4212   0.8177   1.5457   1.8627   4.0067

     occupation numbers 
     1.0000   1.0000   1.0000   1.0000   0.0000   0.0000   0.0000   0.0000

          k = 0.0000 0.0550 0.0000 (   795 PWs)   bands (ev):

   -21.6907  -9.2867  -4.6264  -4.5251   0.8928   1.6209   1.9375   4.0813

     occupation numbers 
     1.0000   1.0000   1.0000   1.0000   0.0000   0.0000   0.0000   0.0000

          k = 0.0000 0.1100 0.0000 (   795 PWs)   bands (ev):

   -21.5243  -9.1067  -5.2748  -4.8586   1.1178   1.8448   2.1613   4.3005

     occupation numbers 
     1.0000   1.0000   1.0000   1.0000   0.0000   0.0000   0.0000   0.0000

          k = 0.0000 0.1650 0.0000 (   793 PWs)   bands (ev):

   -21.2346  -8.7788  -6.2522  -5.3121   1.4929   2.2195   2.5342   4.6688

     occupation numbers 
     1.0000   1.0000   1.0000   1.0000   0.0000   0.0000   0.0000   0.0000

          k = 0.0000 0.2199 0.0000 (   780 PWs)   bands (ev):

   -20.8501  -8.2940  -7.3578  -5.8284   2.0166   2.7446   3.0547   5.1850

     occupation numbers 
     1.0000   1.0000   1.0000   1.0000   0.0000   0.0000   0.0000   0.0000

          k = 0.0000 0.2749 0.0000 (   776 PWs)   bands (ev):

   -20.3621  -8.5911  -7.7200  -6.3926   2.6902   3.4154   3.7239   5.8231

     occupation numbers 
     1.0000   1.0000   1.0000   1.0000   0.0000   0.0000   0.0000   0.0000

          k = 0.0000 0.3299 0.0000 (   766 PWs)   bands (ev):

   -19.7512  -9.8744  -7.0200  -6.8658   3.5132   4.2212   4.5421   5.4572

     occupation numbers 
     1.0000   1.0000   1.0000   1.0000   0.0000   0.0000   0.0000   0.0000

          k = 0.0000 0.3849 0.0000 (   776 PWs)   bands (ev):

   -19.0801 -11.2585  -7.2895  -6.2283   3.9054   4.4832   5.2489   5.5028

     occupation numbers 
     1.0000   1.0000   1.0000   1.0000   0.0000   0.0000   0.0000   0.0000

          k = 0.0000 0.4399 0.0000 (   782 PWs)   bands (ev):

   -18.2730 -12.5975  -7.6534  -5.3680   2.5046   5.5994   6.0743   6.3527

     occupation numbers 
     1.0000   1.0000   1.0000   1.0000   0.0000   0.0000   0.0000   0.0000

          k = 0.0000 0.4949 0.0000 (   792 PWs)   bands (ev):

   -17.3989 -13.8788  -7.8900  -4.5318   1.2626   5.8974   6.8718   7.6148

     occupation numbers 
     1.0000   1.0000   1.0000   1.0000   0.0000   0.0000   0.0000   0.0000

          k = 0.0000 0.5499 0.0000 (   782 PWs)   bands (ev):

   -16.5194 -14.9205  -7.9756  -3.8967   0.4881   5.8538   8.2793   9.0243

     occupation numbers 
     1.0000   1.0000   1.0000   1.0000   0.0000   0.0000   0.0000   0.0000

          k = 0.0476 0.0825 0.0000 (   791 PWs)   bands (ev):

   -21.5761  -9.1636  -5.0160  -4.7431   1.0429   1.7704   2.0867   4.2278

     occupation numbers 
     1.0000   1.0000   1.0000   1.0000   0.0000   0.0000   0.0000   0.0000

          k = 0.0476 0.1375 0.0000 (   795 PWs)   bands (ev):

   -21.3503  -8.9089  -5.8319  -5.2300   1.3428   2.0696   2.3850   4.5216

     occupation numbers 
     1.0000   1.0000   1.0000   1.0000   0.0000   0.0000   0.0000   0.0000

          k = 0.0476 0.1925 0.0000 (   790 PWs)   bands (ev):

   -21.0181  -8.5041  -6.8249  -5.7548   1.7921   2.5195   2.8316   4.9644

     occupation numbers 
     1.0000   1.0000   1.0000   1.0000   0.0000   0.0000   0.0000   0.0000

          k = 0.0476 0.2474 0.0000 (   783 PWs)   bands (ev):

   -20.5808  -7.9891  -7.9769  -6.3077   2.3910   3.1177   3.4268   5.5470

     occupation numbers 
     1.0000   1.0000   1.0000   1.0000   0.0000   0.0000   0.0000   0.0000

          k = 0.0476 0.3024 0.0000 (   778 PWs)   bands (ev):

   -20.0435  -9.2637  -7.3376  -6.8167   3.1388   3.8602   4.1698   6.0135

     occupation numbers 
     1.0000   1.0000   1.0000   1.0000   0.0000   0.0000   0.0000   0.0000

          k = 0.0476 0.3574 0.0000 (   775 PWs)   bands (ev):

   -19.4002 -10.5613  -7.2751  -6.5884   4.0355   4.5169   4.8939   5.0607

     occupation numbers 
     1.0000   1.0000   1.0000   1.0000   0.0000   0.0000   0.0000   0.0000

          k = 0.0476 0.4124 0.0000 (   775 PWs)   bands (ev):

   -18.6450 -11.9207  -7.6466  -5.7536   3.1894   5.0804   5.8299   6.0917

     occupation numbers 
     1.0000   1.0000   1.0000   1.0000   0.0000   0.0000   0.0000   0.0000

          k = 0.0476 0.4674 0.0000 (   779 PWs)   bands (ev):

   -17.7991 -13.2203  -7.9292  -4.8877   1.8602   6.2215   6.3129   7.0173

     occupation numbers 
     1.0000   1.0000   1.0000   1.0000   0.0000   0.0000   0.0000   0.0000

          k = 0.0476 0.5224 0.0000 (   786 PWs)   bands (ev):

   -16.8974 -14.4077  -8.1108  -4.1228   0.7887   6.1344   7.6131   8.3505

     occupation numbers 
     1.0000   1.0000   1.0000   1.0000   0.0000   0.0000   0.0000   0.0000

          k = 0.0476 0.5774 0.0000 (   784 PWs)   bands (ev):

   -16.2549 -15.1422  -8.1829  -3.7521   0.3523   6.1092   9.0707   9.1098

     occupation numbers 
     1.0000   1.0000   1.0000   1.0000   0.0000   0.0000   0.0000   0.0000

          k = 0.0952 0.1650 0.0000 (   797 PWs)   bands (ev):

   -21.0657  -8.5864  -6.5849  -5.8379   1.7178   2.4438   2.7580   4.8890

     occupation numbers 
     1.0000   1.0000   1.0000   1.0000   0.0000   0.0000   0.0000   0.0000

          k = 0.0952 0.2199 0.0000 (   789 PWs)   bands (ev):

   -20.7109  -8.1212  -7.4832  -6.4451   2.2407   2.9679   3.2771   5.4031

     occupation numbers 
     1.0000   1.0000   1.0000   1.0000   0.0000   0.0000   0.0000   0.0000

          k = 0.0952 0.2749 0.0000 (   783 PWs)   bands (ev):

   -20.2287  -8.6308  -7.5337  -7.0467   2.9139   3.6397   3.9462   6.0434

     occupation numbers 
     1.0000   1.0000   1.0000   1.0000   0.0000   0.0000   0.0000   0.0000

          k = 0.0952 0.3299 0.0000 (   782 PWs)   bands (ev):

   -19.6398  -9.9170  -7.5729  -6.8418   3.7361   4.4439   4.7636   5.2601

     occupation numbers 
     1.0000   1.0000   1.0000   1.0000   0.0000   0.0000   0.0000   0.0000

          k = 0.0952 0.3849 0.0000 (   783 PWs)   bands (ev):

   -18.9320 -11.1957  -8.0167  -6.0475   3.7604   4.7073   5.4497   5.7288

     occupation numbers 
     1.0000   1.0000   1.0000   1.0000   0.0000   0.0000   0.0000   0.0000

          k = 0.0952 0.4399 0.0000 (   781 PWs)   bands (ev):

   -18.1189 -12.4986  -8.3452  -5.1748   2.4124   5.8259   6.5601   6.8322

     occupation numbers 
     1.0000   1.0000   1.0000   1.0000   0.0000   0.0000   0.0000   0.0000

          k = 0.0952 0.4949 0.0000 (   775 PWs)   bands (ev):

   -17.2266 -13.7285  -8.5511  -4.3191   1.2381   6.9569   7.1017   7.8166

     occupation numbers 
     1.0000   1.0000   1.0000   1.0000   0.0000   0.0000   0.0000   0.0000

          k = 0.0952 0.5499 0.0000 (   777 PWs)   bands (ev):

   -16.3556 -14.7827  -8.6864  -3.6873   0.4276   6.8836   8.4980   9.2027

     occupation numbers 
     1.0000   1.0000   1.0000   1.0000   0.0000   0.0000   0.0000   0.0000

          k = 0.1429 0.2474 0.0000 (   785 PWs)   bands (ev):

   -20.2818  -8.3172  -7.5906  -7.2364   2.8392   3.5663   3.8721   5.9890

     occupation numbers 
     1.0000   1.0000   1.0000   1.0000   0.0000   0.0000   0.0000   0.0000

          k = 0.1429 0.3024 0.0000 (   782 PWs)   bands (ev):

   -19.7426  -9.3631  -7.9517  -6.9592   3.5871   4.3099   4.6157   5.5572

     occupation numbers 
     1.0000   1.0000   1.0000   1.0000   0.0000   0.0000   0.0000   0.0000

          k = 0.1429 0.3574 0.0000 (   782 PWs)   bands (ev):

   -19.0959 -10.5613  -8.5135  -6.2168   4.2556   4.4835   5.2138   5.5072

     occupation numbers 
     1.0000   1.0000   1.0000   1.0000   0.0000   0.0000   0.0000   0.0000

          k = 0.1429 0.4124 0.0000 (   776 PWs)   bands (ev):

   -18.3407 -11.7517  -8.8982  -5.3909   2.9276   5.5280   6.2474   6.5456

     occupation numbers 
     1.0000   1.0000   1.0000   1.0000   0.0000   0.0000   0.0000   0.0000

          k = 0.1429 0.4674 0.0000 (   778 PWs)   bands (ev):

   -17.5059 -12.9792  -9.2256  -4.5109   1.6825   6.7178   7.4227   7.7261

     occupation numbers 
     1.0000   1.0000   1.0000   1.0000   0.0000   0.0000   0.0000   0.0000

          k = 0.1429 0.5224 0.0000 (   776 PWs)   bands (ev):

   -16.5863 -14.1388  -9.4354  -3.7141   0.6803   8.0400   8.0996   8.7163

     occupation numbers 
     1.0000   1.0000   1.0000   1.0000   0.0000   0.0000   0.0000   0.0000

          k = 0.1429 0.5774 0.0000 (   776 PWs)   bands (ev):

   -15.9556 -14.8589  -9.4843  -3.3432   0.2419   8.0432   9.4964   9.5446

     occupation numbers 
     1.0000   1.0000   1.0000   1.0000   0.0000   0.0000   0.0000   0.0000

          k = 0.1905 0.3299 0.0000 (   775 PWs)   bands (ev):

   -19.1627 -10.1547  -8.8055  -6.2726   4.4083   4.4574   5.1272   5.4324

     occupation numbers 
     1.0000   1.0000   1.0000   1.0000   0.0000   0.0000   0.0000   0.0000

          k = 0.1905 0.3849 0.0000 (   781 PWs)   bands (ev):

   -18.4634 -11.1766  -9.5038  -5.4949   3.2510   5.3782   6.0852   6.3970

     occupation numbers 
     1.0000   1.0000   1.0000   1.0000   0.0000   0.0000   0.0000   0.0000

          k = 0.1905 0.4399 0.0000 (   781 PWs)   bands (ev):

   -17.6549 -12.2691  -9.9569  -4.6403   2.0520   6.4951   7.1762   7.5077

     occupation numbers 
     1.0000   1.0000   1.0000   1.0000   0.0000   0.0000   0.0000   0.0000

          k = 0.1905 0.4949 0.0000 (   784 PWs)   bands (ev):

   -16.7919 -13.4057 -10.2813  -3.7638   0.9438   7.7541   8.3649   8.7588

     occupation numbers 
     1.0000   1.0000   1.0000   1.0000   0.0000   0.0000   0.0000   0.0000

          k = 0.1905 0.5499 0.0000 (   782 PWs)   bands (ev):

   -15.9257 -14.3953 -10.4024  -3.1129   0.1835   9.1482   9.4248   9.4355

     occupation numbers 
     1.0000   1.0000   1.0000   1.0000   0.0000   0.0000   0.0000   0.0000

          k = 0.2381 0.4124 0.0000 (   787 PWs)   bands (ev):

   -17.7260 -11.9075 -10.3816  -4.6848   2.1929   6.4198   7.0910   7.4325

     occupation numbers 
     1.0000   1.0000   1.0000   1.0000   0.0000   0.0000   0.0000   0.0000

          k = 0.2381 0.4674 0.0000 (   779 PWs)   bands (ev):

   -16.8897 -12.7543 -10.9210  -3.8025   1.1680   7.6053   8.1702   8.6115

     occupation numbers 
     1.0000   1.0000   1.0000   1.0000   0.0000   0.0000   0.0000   0.0000

          k = 0.2381 0.5224 0.0000 (   778 PWs)   bands (ev):

   -16.0023 -13.7271 -11.2189  -2.9683   0.2356   8.9270   9.0037   9.9260

     occupation numbers 
     1.0000   1.0000   1.0000   1.0000   0.0000   0.0000   0.0000   0.0000

          k = 0.2381 0.5774 0.0000 (   780 PWs)   bands (ev):

   -15.3728 -14.3937 -11.3326  -2.5250  -0.2333   9.1786  10.3252  10.3950

     occupation numbers 
     1.0000   1.0000   1.0000   1.0000   0.0000   0.0000   0.0000   0.0000

          k = 0.2857 0.4949 0.0000 (   777 PWs)   bands (ev):

   -16.0386 -13.3352 -11.6685  -2.9123   0.2622   8.8362   8.8527   9.8522

     occupation numbers 
     1.0000   1.0000   1.0000   1.0000   0.0000   0.0000   0.0000   0.0000

          k = 0.2857 0.5499 0.0000 (   770 PWs)   bands (ev):

   -15.1887 -14.0119 -12.0176  -2.1208  -0.5158   8.8532  10.2127  11.2051

     occupation numbers 
     1.0000   1.0000   1.0000   1.0000   0.0000   0.0000   0.0000   0.0000

          k = 0.3333 0.5774 0.0000 (   771 PWs)   bands (ev):

   -14.4855 -14.4855 -12.3752  -1.3129  -1.3129   8.7239  11.4431  11.4434

     occupation numbers 
     1.0000   1.0000   1.0000   0.5000   0.5000   0.0000   0.0000   0.0000

     the Fermi energy is    -1.3034 ev

!    total energy              =     -23.42390523 Ry
     estimated scf accuracy    <       0.00000037 Ry
     smearing contrib. (-TS)   =      -0.00001488 Ry
     internal energy E=F+TS    =     -23.42389034 Ry

     The total energy is F=E-TS. E is the sum of the following terms:
     one-electron contribution =    -153.72592574 Ry
     hartree contribution      =      78.30539361 Ry
     xc contribution           =      -8.44609429 Ry
     ewald contribution        =      60.44273608 Ry

     convergence has been achieved in   4 iterations

     Forces acting on atoms (cartesian axes, Ry/au):

     atom    1 type  1   force =     0.00000000    0.00000000    0.00000000
     atom    2 type  1   force =    -0.00000000   -0.00000000    0.00000000
     The non-local contrib.  to forces
     atom    1 type  1   force =     0.00000000   -0.00000000    0.00000000
     atom    2 type  1   force =     0.00000000    0.00000000    0.00000000
     The ionic contribution  to forces
     atom    1 type  1   force =    -0.00000001    0.00000000   -0.00000000
     atom    2 type  1   force =     0.00000001   -0.00000000   -0.00000000
     The local contribution  to forces
     atom    1 type  1   force =     0.00000000   -0.00000000    0.00000000
     atom    2 type  1   force =     0.00000000   -0.00000000   -0.00000000
     The core correction contribution to forces
     atom    1 type  1   force =     0.00000000   -0.00000000    0.00000000
     atom    2 type  1   force =    -0.00000000    0.00000000    0.00000000
     The Hubbard contrib.    to forces
     atom    1 type  1   force =     0.00000000    0.00000000    0.00000000
     atom    2 type  1   force =     0.00000000    0.00000000    0.00000000
     The SCF correction term to forces
     atom    1 type  1   force =    -0.00000000    0.00000000    0.00000000
     atom    2 type  1   force =     0.00000000   -0.00000000   -0.00000000

     Total force =     0.000000     Total SCF correction =     0.000000


     Computing stress (Cartesian axis) and pressure

          total   stress  (Ry/bohr**3)                   (kbar)     P=     -173.66
  -0.00091399  -0.00000000   0.00000000         -134.45       -0.00        0.00
  -0.00000000  -0.00091399  -0.00000000           -0.00     -134.45       -0.00
   0.00000000  -0.00000000  -0.00171362            0.00       -0.00     -252.08

     kinetic stress (kbar)   2771.80      0.00     -0.00
                                0.00   2771.80      0.00
                               -0.00      0.00   3046.91

     local   stress (kbar) -46995.32      0.00      0.00
                                0.00 -46995.32     -0.00
                                0.00     -0.00  47810.65

     nonloc. stress (kbar)   -113.09      0.00      0.00
                                0.00   -113.09      0.00
                                0.00      0.00    -68.34

     hartree stress (kbar)  22058.38     -0.00     -0.00
                               -0.00  22058.38      0.00
                               -0.00      0.00 -21853.52

     exc-cor stress (kbar)   -249.04     -0.00     -0.00
                               -0.00   -249.04      0.00
                               -0.00      0.00   -276.73

     corecor stress (kbar)   -440.68      0.00     -0.00
                                0.00   -440.68     -0.00
                               -0.00     -0.00   -428.68

     ewald   stress (kbar)  22833.51     -0.00     -0.00
                               -0.00  22833.51     -0.00
                               -0.00     -0.00 -28482.36

     hubbard stress (kbar)      0.00      0.00      0.00
                                0.00      0.00      0.00
                                0.00      0.00      0.00

     DFT-D   stress (kbar)      0.00      0.00      0.00
                                0.00      0.00      0.00
                                0.00      0.00      0.00

     XDM     stress (kbar)      0.00      0.00      0.00
                                0.00      0.00      0.00
                                0.00      0.00      0.00

     dft-nl  stress (kbar)      0.00      0.00      0.00
                                0.00      0.00      0.00
                                0.00      0.00      0.00

     TS-vdW  stress (kbar)      0.00      0.00      0.00
                                0.00      0.00      0.00
                                0.00      0.00      0.00

     MDB     stress (kbar)      0.00      0.00      0.00
                                0.00      0.00      0.00
                                0.00      0.00      0.00

     3D-RISM stress (kbar)      0.00      0.00      0.00
                                0.00      0.00      0.00
                                0.00      0.00      0.00


     Writing all to output data dir ./tmp/graphene_PBE.save/

     init_run     :      0.45s CPU      0.45s WALL (       1 calls)
     electrons    :      1.62s CPU      1.38s WALL (       1 calls)
     forces       :      0.03s CPU      0.03s WALL (       1 calls)
     stress       :      0.19s CPU      0.19s WALL (       1 calls)

     Called by init_run:
     wfcinit      :      0.21s CPU      0.20s WALL (       1 calls)
     wfcinit:atom :      0.00s CPU      0.00s WALL (      48 calls)
     wfcinit:wfcr :      0.19s CPU      0.19s WALL (      48 calls)
     potinit      :      0.01s CPU      0.01s WALL (       1 calls)
     hinit0       :      0.24s CPU      0.24s WALL (       1 calls)

     Called by electrons:
     c_bands      :      1.50s CPU      1.25s WALL (       4 calls)
     sum_band     :      0.10s CPU      0.11s WALL (       4 calls)
     v_of_rho     :      0.02s CPU      0.02s WALL (       5 calls)
     v_h          :      0.00s CPU      0.00s WALL (       5 calls)
     v_xc         :      0.03s CPU      0.03s WALL (       7 calls)
     mix_rho      :      0.00s CPU      0.00s WALL (       4 calls)

     Called by c_bands:
     init_us_2    :      0.04s CPU      0.04s WALL (     528 calls)
     init_us_2:cp :      0.04s CPU      0.04s WALL (     528 calls)
     cegterg      :      1.45s CPU      1.20s WALL (     192 calls)

     Called by sum_band:
     sum_band:wei :      0.00s CPU      0.00s WALL (       4 calls)
     sum_band:loo :      0.10s CPU      0.10s WALL (       4 calls)
     sum_band:buf :      0.00s CPU      0.00s WALL (     192 calls)
     sum_band:ini :      0.01s CPU      0.01s WALL (     192 calls)

     Called by *egterg:
     cdiaghg      :      0.09s CPU      0.10s WALL (    1392 calls)
     cegterg:over :      0.09s CPU      0.09s WALL (    1200 calls)
     cegterg:upda :      0.19s CPU      0.09s WALL (    1200 calls)
     cegterg:last :      0.13s CPU      0.05s WALL (     588 calls)
     h_psi        :      1.07s CPU      0.99s WALL (    1440 calls)
     g_psi        :      0.01s CPU      0.02s WALL (    1200 calls)

     Called by h_psi:
     h_psi:calbec :      0.05s CPU      0.06s WALL (    1440 calls)
     vloc_psi     :      0.81s CPU      0.84s WALL (    1440 calls)
     add_vuspsi   :      0.19s CPU      0.07s WALL (    1440 calls)

     General routines
     calbec       :      0.07s CPU      0.07s WALL (    1680 calls)
     fft          :      0.22s CPU      0.23s WALL (      74 calls)
     ffts         :      0.00s CPU      0.00s WALL (       4 calls)
     fftw         :      0.70s CPU      0.72s WALL (   12966 calls)

     Parallel routines

     PWSCF        :      2.34s CPU      2.13s WALL


   This run was terminated on:  10:40: 0  27Mar2024            

=------------------------------------------------------------------------------=
   JOB DONE.
=------------------------------------------------------------------------------=
