
     Program PWSCF v.7.2 starts on  3Apr2024 at 21:59:13 

     This program is part of the open-source Quantum ESPRESSO suite
     for quantum simulation of materials; please cite
         "P. Giannozzi et al., J. Phys.:Condens. Matter 21 395502 (2009);
         "P. Giannozzi et al., J. Phys.:Condens. Matter 29 465901 (2017);
         "P. Giannozzi et al., J. Chem. Phys. 152 154105 (2020);
          URL http://www.quantum-espresso.org", 
     in publications or presentations arising from this work. More details at
     http://www.quantum-espresso.org/quote

     Parallel version (MPI & OpenMP), running on       8 processor cores
     Number of MPI processes:                 8
     Threads/MPI process:                     1

     MPI processes distributed on     1 nodes
     0 MiB available memory on the printing compute node when the environment starts

     Waiting for input...
     Reading input from standard input

     Current dimensions of program PWSCF are:
     Max number of different atomic species (ntypx) = 10
     Max number of k-points (npk) =  40000
     Max angular momentum in pseudopotentials (lmaxx) =  4

     Atomic positions and unit cell read from directory:
     ./tmp/graphene_PBE.save/
     Atomic positions from file used, from input discarded


     R & G space division:  proc/nbgrp/npool/nimage =       8
     Subspace diagonalization in iterative solution of the eigenvalue problem:
     a serial algorithm will be used


     Parallelization info
     --------------------
     sticks:   dense  smooth     PW     G-vecs:    dense   smooth      PW
     Min          45      45     13                 4117     4117     699
     Max          46      46     14                 4134     4134     720
     Sum         361     361    109                33017    33017    5693

     Using Slab Decomposition



     bravais-lattice index     =            4
     lattice parameter (alat)  =       4.6598  a.u.
     unit-cell volume          =     525.7476 (a.u.)^3
     number of atoms/cell      =            2
     number of atomic types    =            1
     number of electrons       =         8.00
     number of Kohn-Sham states=           10
     kinetic-energy cutoff     =      60.0000  Ry
     charge density cutoff     =     240.0000  Ry
     Exchange-correlation= PBE
                           (   1   4   3   4   0   0   0)

     celldm(1)=   4.664000  celldm(2)=   0.000000  celldm(3)=   6.000000
     celldm(4)=   0.000000  celldm(5)=   0.000000  celldm(6)=   0.000000

     crystal axes: (cart. coord. in units of alat)
               a(1) = (   1.000000   0.000000   0.000000 )  
               a(2) = (  -0.500000   0.866025   0.000000 )  
               a(3) = (   0.000000   0.000000   6.000000 )  

     reciprocal axes: (cart. coord. in units 2 pi/alat)
               b(1) = (  1.000000  0.577350 -0.000000 )  
               b(2) = (  0.000000  1.154701  0.000000 )  
               b(3) = (  0.000000 -0.000000  0.166667 )  


     PseudoPot. # 1 for C  read from file:
     ../../../Pseudo/PBE/C.upf
     MD5 check sum: 34a24e64c0a39f27c6c36b90a16ac686
     Pseudo is Norm-conserving + core correction, Zval =  4.0
     Generated using ONCVPSP code by D. R. Hamann
     Using radial grid of 1248 points,  4 beta functions with: 
                l(1) =   0
                l(2) =   0
                l(3) =   1
                l(4) =   1

     atomic species   valence    mass     pseudopotential
        C              4.00    12.01100     C ( 1.00)

     24 Sym. Ops., with inversion, found (12 have fractional translation)


                                    s                        frac. trans.

      isym =  1     identity                                     

 cryst.   s( 1) = (     1          0          0      )
                  (     0          1          0      )
                  (     0          0          1      )

 cart.    s( 1) = (  1.0000000  0.0000000  0.0000000 )
                  (  0.0000000  1.0000000  0.0000000 )
                  (  0.0000000  0.0000000  1.0000000 )


      isym =  2     180 deg rotation - cart. axis [0,0,1]        

 cryst.   s( 2) = (    -1          0          0      )    f =( -0.3333333 )
                  (     0         -1          0      )       (  0.3333333 )
                  (     0          0          1      )       (  0.0000000 )

 cart.    s( 2) = ( -1.0000000  0.0000000  0.0000000 )    f =( -0.5000000 )
                  (  0.0000000 -1.0000000  0.0000000 )       (  0.2886751 )
                  (  0.0000000  0.0000000  1.0000000 )       (  0.0000000 )


      isym =  3     180 deg rotation - cart. axis [0,1,0]        

 cryst.   s( 3) = (    -1          0          0      )
                  (     1          1          0      )
                  (     0          0         -1      )

 cart.    s( 3) = ( -1.0000000  0.0000000  0.0000000 )
                  (  0.0000000  1.0000000  0.0000000 )
                  (  0.0000000  0.0000000 -1.0000000 )


      isym =  4     180 deg rotation - cart. axis [1,0,0]        

 cryst.   s( 4) = (     1          0          0      )    f =( -0.3333333 )
                  (    -1         -1          0      )       (  0.3333333 )
                  (     0          0         -1      )       (  0.0000000 )

 cart.    s( 4) = (  1.0000000  0.0000000  0.0000000 )    f =( -0.5000000 )
                  (  0.0000000 -1.0000000  0.0000000 )       (  0.2886751 )
                  (  0.0000000  0.0000000 -1.0000000 )       (  0.0000000 )


      isym =  5      60 deg rotation - cryst. axis [0,0,1]       

 cryst.   s( 5) = (     1          1          0      )    f =( -0.3333333 )
                  (    -1          0          0      )       (  0.3333333 )
                  (     0          0          1      )       (  0.0000000 )

 cart.    s( 5) = (  0.5000000 -0.8660254  0.0000000 )    f =( -0.5000000 )
                  (  0.8660254  0.5000000  0.0000000 )       (  0.2886751 )
                  (  0.0000000  0.0000000  1.0000000 )       (  0.0000000 )


      isym =  6      60 deg rotation - cryst. axis [0,0,-1]      

 cryst.   s( 6) = (     0         -1          0      )    f =( -0.3333333 )
                  (     1          1          0      )       (  0.3333333 )
                  (     0          0          1      )       (  0.0000000 )

 cart.    s( 6) = (  0.5000000  0.8660254  0.0000000 )    f =( -0.5000000 )
                  ( -0.8660254  0.5000000  0.0000000 )       (  0.2886751 )
                  (  0.0000000  0.0000000  1.0000000 )       (  0.0000000 )


      isym =  7     120 deg rotation - cryst. axis [0,0,1]       

 cryst.   s( 7) = (     0          1          0      )
                  (    -1         -1          0      )
                  (     0          0          1      )

 cart.    s( 7) = ( -0.5000000 -0.8660254  0.0000000 )
                  (  0.8660254 -0.5000000  0.0000000 )
                  (  0.0000000  0.0000000  1.0000000 )


      isym =  8     120 deg rotation - cryst. axis [0,0,-1]      

 cryst.   s( 8) = (    -1         -1          0      )
                  (     1          0          0      )
                  (     0          0          1      )

 cart.    s( 8) = ( -0.5000000  0.8660254  0.0000000 )
                  ( -0.8660254 -0.5000000  0.0000000 )
                  (  0.0000000  0.0000000  1.0000000 )


      isym =  9     180 deg rotation - cryst. axis [1,-1,0]      

 cryst.   s( 9) = (     0         -1          0      )
                  (    -1          0          0      )
                  (     0          0         -1      )

 cart.    s( 9) = (  0.5000000 -0.8660254  0.0000000 )
                  ( -0.8660254 -0.5000000  0.0000000 )
                  (  0.0000000  0.0000000 -1.0000000 )


      isym = 10     180 deg rotation - cryst. axis [2,1,0]       

 cryst.   s(10) = (     1          1          0      )
                  (     0         -1          0      )
                  (     0          0         -1      )

 cart.    s(10) = (  0.5000000  0.8660254  0.0000000 )
                  (  0.8660254 -0.5000000  0.0000000 )
                  (  0.0000000  0.0000000 -1.0000000 )


      isym = 11     180 deg rotation - cryst. axis [0,1,0]       

 cryst.   s(11) = (    -1         -1          0      )    f =( -0.3333333 )
                  (     0          1          0      )       (  0.3333333 )
                  (     0          0         -1      )       (  0.0000000 )

 cart.    s(11) = ( -0.5000000 -0.8660254  0.0000000 )    f =( -0.5000000 )
                  ( -0.8660254  0.5000000  0.0000000 )       (  0.2886751 )
                  (  0.0000000  0.0000000 -1.0000000 )       (  0.0000000 )


      isym = 12     180 deg rotation - cryst. axis [1,1,0]       

 cryst.   s(12) = (     0          1          0      )    f =( -0.3333333 )
                  (     1          0          0      )       (  0.3333333 )
                  (     0          0         -1      )       (  0.0000000 )

 cart.    s(12) = ( -0.5000000  0.8660254  0.0000000 )    f =( -0.5000000 )
                  (  0.8660254  0.5000000  0.0000000 )       (  0.2886751 )
                  (  0.0000000  0.0000000 -1.0000000 )       (  0.0000000 )


      isym = 13     inversion                                    

 cryst.   s(13) = (    -1          0          0      )    f =( -0.3333333 )
                  (     0         -1          0      )       (  0.3333333 )
                  (     0          0         -1      )       (  0.0000000 )

 cart.    s(13) = ( -1.0000000  0.0000000  0.0000000 )    f =( -0.5000000 )
                  (  0.0000000 -1.0000000  0.0000000 )       (  0.2886751 )
                  (  0.0000000  0.0000000 -1.0000000 )       (  0.0000000 )


      isym = 14     inv. 180 deg rotation - cart. axis [0,0,1]   

 cryst.   s(14) = (     1          0          0      )
                  (     0          1          0      )
                  (     0          0         -1      )

 cart.    s(14) = (  1.0000000  0.0000000  0.0000000 )
                  (  0.0000000  1.0000000  0.0000000 )
                  (  0.0000000  0.0000000 -1.0000000 )


      isym = 15     inv. 180 deg rotation - cart. axis [0,1,0]   

 cryst.   s(15) = (     1          0          0      )    f =( -0.3333333 )
                  (    -1         -1          0      )       (  0.3333333 )
                  (     0          0          1      )       (  0.0000000 )

 cart.    s(15) = (  1.0000000  0.0000000  0.0000000 )    f =( -0.5000000 )
                  (  0.0000000 -1.0000000  0.0000000 )       (  0.2886751 )
                  (  0.0000000  0.0000000  1.0000000 )       (  0.0000000 )


      isym = 16     inv. 180 deg rotation - cart. axis [1,0,0]   

 cryst.   s(16) = (    -1          0          0      )
                  (     1          1          0      )
                  (     0          0          1      )

 cart.    s(16) = ( -1.0000000  0.0000000  0.0000000 )
                  (  0.0000000  1.0000000  0.0000000 )
                  (  0.0000000  0.0000000  1.0000000 )


      isym = 17     inv.  60 deg rotation - cryst. axis [0,0,1]  

 cryst.   s(17) = (    -1         -1          0      )
                  (     1          0          0      )
                  (     0          0         -1      )

 cart.    s(17) = ( -0.5000000  0.8660254  0.0000000 )
                  ( -0.8660254 -0.5000000  0.0000000 )
                  (  0.0000000  0.0000000 -1.0000000 )


      isym = 18     inv.  60 deg rotation - cryst. axis [0,0,-1] 

 cryst.   s(18) = (     0          1          0      )
                  (    -1         -1          0      )
                  (     0          0         -1      )

 cart.    s(18) = ( -0.5000000 -0.8660254  0.0000000 )
                  (  0.8660254 -0.5000000  0.0000000 )
                  (  0.0000000  0.0000000 -1.0000000 )


      isym = 19     inv. 120 deg rotation - cryst. axis [0,0,1]  

 cryst.   s(19) = (     0         -1          0      )    f =( -0.3333333 )
                  (     1          1          0      )       (  0.3333333 )
                  (     0          0         -1      )       (  0.0000000 )

 cart.    s(19) = (  0.5000000  0.8660254  0.0000000 )    f =( -0.5000000 )
                  ( -0.8660254  0.5000000  0.0000000 )       (  0.2886751 )
                  (  0.0000000  0.0000000 -1.0000000 )       (  0.0000000 )


      isym = 20     inv. 120 deg rotation - cryst. axis [0,0,-1] 

 cryst.   s(20) = (     1          1          0      )    f =( -0.3333333 )
                  (    -1          0          0      )       (  0.3333333 )
                  (     0          0         -1      )       (  0.0000000 )

 cart.    s(20) = (  0.5000000 -0.8660254  0.0000000 )    f =( -0.5000000 )
                  (  0.8660254  0.5000000  0.0000000 )       (  0.2886751 )
                  (  0.0000000  0.0000000 -1.0000000 )       (  0.0000000 )


      isym = 21     inv. 180 deg rotation - cryst. axis [1,-1,0] 

 cryst.   s(21) = (     0          1          0      )    f =( -0.3333333 )
                  (     1          0          0      )       (  0.3333333 )
                  (     0          0          1      )       (  0.0000000 )

 cart.    s(21) = ( -0.5000000  0.8660254  0.0000000 )    f =( -0.5000000 )
                  (  0.8660254  0.5000000  0.0000000 )       (  0.2886751 )
                  (  0.0000000  0.0000000  1.0000000 )       (  0.0000000 )


      isym = 22     inv. 180 deg rotation - cryst. axis [2,1,0]  

 cryst.   s(22) = (    -1         -1          0      )    f =( -0.3333333 )
                  (     0          1          0      )       (  0.3333333 )
                  (     0          0          1      )       (  0.0000000 )

 cart.    s(22) = ( -0.5000000 -0.8660254  0.0000000 )    f =( -0.5000000 )
                  ( -0.8660254  0.5000000  0.0000000 )       (  0.2886751 )
                  (  0.0000000  0.0000000  1.0000000 )       (  0.0000000 )


      isym = 23     inv. 180 deg rotation - cryst. axis [0,1,0]  

 cryst.   s(23) = (     1          1          0      )
                  (     0         -1          0      )
                  (     0          0          1      )

 cart.    s(23) = (  0.5000000  0.8660254  0.0000000 )
                  (  0.8660254 -0.5000000  0.0000000 )
                  (  0.0000000  0.0000000  1.0000000 )


      isym = 24     inv. 180 deg rotation - cryst. axis [1,1,0]  

 cryst.   s(24) = (     0         -1          0      )
                  (    -1          0          0      )
                  (     0          0          1      )

 cart.    s(24) = (  0.5000000 -0.8660254  0.0000000 )
                  ( -0.8660254 -0.5000000  0.0000000 )
                  (  0.0000000  0.0000000  1.0000000 )


     point group D_6h(6/mmm)
     there are 12 classes
     the character table:

       E     2C6   2C3   C2    3C2'  3C2'' i     2S3   2S6   s_h   3s_d  3s_v 
A_1g   1.00  1.00  1.00  1.00  1.00  1.00  1.00  1.00  1.00  1.00  1.00  1.00
A_2g   1.00  1.00  1.00  1.00 -1.00 -1.00  1.00  1.00  1.00  1.00 -1.00 -1.00
B_1g   1.00 -1.00  1.00 -1.00  1.00 -1.00  1.00 -1.00  1.00 -1.00  1.00 -1.00
B_2g   1.00 -1.00  1.00 -1.00 -1.00  1.00  1.00 -1.00  1.00 -1.00 -1.00  1.00
E_1g   2.00  1.00 -1.00 -2.00  0.00  0.00  2.00  1.00 -1.00 -2.00  0.00  0.00
E_2g   2.00 -1.00 -1.00  2.00  0.00  0.00  2.00 -1.00 -1.00  2.00  0.00  0.00
A_1u   1.00  1.00  1.00  1.00  1.00  1.00 -1.00 -1.00 -1.00 -1.00 -1.00 -1.00
A_2u   1.00  1.00  1.00  1.00 -1.00 -1.00 -1.00 -1.00 -1.00 -1.00  1.00  1.00
B_1u   1.00 -1.00  1.00 -1.00  1.00 -1.00 -1.00  1.00 -1.00  1.00 -1.00  1.00
B_2u   1.00 -1.00  1.00 -1.00 -1.00  1.00 -1.00  1.00 -1.00  1.00  1.00 -1.00
E_1u   2.00  1.00 -1.00 -2.00  0.00  0.00 -2.00 -1.00  1.00  2.00  0.00  0.00
E_2u   2.00 -1.00 -1.00  2.00  0.00  0.00 -2.00  1.00  1.00 -2.00  0.00  0.00

     the symmetry operations in each class and the name of the first element:

     E        1
          identity                                               
     2C6      5    6
           60 deg rotation - cryst. axis [0,0,1]                 
     2C3      7    8
          120 deg rotation - cryst. axis [0,0,1]                 
     C2       2
          180 deg rotation - cart. axis [0,0,1]                  
     3C2'     4   12   11
          180 deg rotation - cart. axis [1,0,0]                  
     3C2''    3    9   10
          180 deg rotation - cart. axis [0,1,0]                  
     i       13
          inversion                                              
     2S3     17   18
          inv.  60 deg rotation - cryst. axis [0,0,1]            
     2S6     19   20
          inv. 120 deg rotation - cryst. axis [0,0,1]            
     s_h     14
          inv. 180 deg rotation - cart. axis [0,0,1]             
     3s_d    16   24   23
          inv. 180 deg rotation - cart. axis [1,0,0]             
     3s_v    15   21   22
          inv. 180 deg rotation - cart. axis [0,1,0]             

   Cartesian axes

     site n.     atom                  positions (alat units)
         1           C   tau(   1) = (   0.0000000   0.0000000   0.0000000  )
         2           C   tau(   2) = (  -0.0000000   0.5773503   0.0000000  )

   Crystallographic axes

     site n.     atom                  positions (cryst. coord.)
         1           C   tau(   1) = (  0.0000000  0.0000000  0.0000000  )
         2           C   tau(   2) = (  0.3333333  0.6666667  0.0000000  )

     number of k points=   234  Marzari-Vanderbilt smearing, width (Ry)=  0.0050
                       cart. coord. in units 2pi/alat
        k(    1) = (   0.0000000   0.0000000   0.0000000), wk =   0.0008000
        k(    2) = (   0.0000000   0.0230940   0.0000000), wk =   0.0048000
        k(    3) = (   0.0000000   0.0461880   0.0000000), wk =   0.0048000
        k(    4) = (   0.0000000   0.0692820   0.0000000), wk =   0.0048000
        k(    5) = (   0.0000000   0.0923760   0.0000000), wk =   0.0048000
        k(    6) = (   0.0000000   0.1154701   0.0000000), wk =   0.0048000
        k(    7) = (   0.0000000   0.1385641   0.0000000), wk =   0.0048000
        k(    8) = (   0.0000000   0.1616581   0.0000000), wk =   0.0048000
        k(    9) = (   0.0000000   0.1847521   0.0000000), wk =   0.0048000
        k(   10) = (   0.0000000   0.2078461   0.0000000), wk =   0.0048000
        k(   11) = (   0.0000000   0.2309401   0.0000000), wk =   0.0048000
        k(   12) = (   0.0000000   0.2540341   0.0000000), wk =   0.0048000
        k(   13) = (   0.0000000   0.2771281   0.0000000), wk =   0.0048000
        k(   14) = (   0.0000000   0.3002221   0.0000000), wk =   0.0048000
        k(   15) = (   0.0000000   0.3233162   0.0000000), wk =   0.0048000
        k(   16) = (   0.0000000   0.3464102   0.0000000), wk =   0.0048000
        k(   17) = (   0.0000000   0.3695042   0.0000000), wk =   0.0048000
        k(   18) = (   0.0000000   0.3925982   0.0000000), wk =   0.0048000
        k(   19) = (   0.0000000   0.4156922   0.0000000), wk =   0.0048000
        k(   20) = (   0.0000000   0.4387862   0.0000000), wk =   0.0048000
        k(   21) = (   0.0000000   0.4618802   0.0000000), wk =   0.0048000
        k(   22) = (   0.0000000   0.4849742   0.0000000), wk =   0.0048000
        k(   23) = (   0.0000000   0.5080682   0.0000000), wk =   0.0048000
        k(   24) = (   0.0000000   0.5311622   0.0000000), wk =   0.0048000
        k(   25) = (   0.0000000   0.5542563   0.0000000), wk =   0.0048000
        k(   26) = (   0.0000000  -0.5773503   0.0000000), wk =   0.0024000
        k(   27) = (   0.0200000   0.0346410   0.0000000), wk =   0.0048000
        k(   28) = (   0.0200000   0.0577350   0.0000000), wk =   0.0096000
        k(   29) = (   0.0200000   0.0808290   0.0000000), wk =   0.0096000
        k(   30) = (   0.0200000   0.1039230   0.0000000), wk =   0.0096000
        k(   31) = (   0.0200000   0.1270171   0.0000000), wk =   0.0096000
        k(   32) = (   0.0200000   0.1501111   0.0000000), wk =   0.0096000
        k(   33) = (   0.0200000   0.1732051   0.0000000), wk =   0.0096000
        k(   34) = (   0.0200000   0.1962991   0.0000000), wk =   0.0096000
        k(   35) = (   0.0200000   0.2193931   0.0000000), wk =   0.0096000
        k(   36) = (   0.0200000   0.2424871   0.0000000), wk =   0.0096000
        k(   37) = (   0.0200000   0.2655811   0.0000000), wk =   0.0096000
        k(   38) = (   0.0200000   0.2886751   0.0000000), wk =   0.0096000
        k(   39) = (   0.0200000   0.3117691   0.0000000), wk =   0.0096000
        k(   40) = (   0.0200000   0.3348632   0.0000000), wk =   0.0096000
        k(   41) = (   0.0200000   0.3579572   0.0000000), wk =   0.0096000
        k(   42) = (   0.0200000   0.3810512   0.0000000), wk =   0.0096000
        k(   43) = (   0.0200000   0.4041452   0.0000000), wk =   0.0096000
        k(   44) = (   0.0200000   0.4272392   0.0000000), wk =   0.0096000
        k(   45) = (   0.0200000   0.4503332   0.0000000), wk =   0.0096000
        k(   46) = (   0.0200000   0.4734272   0.0000000), wk =   0.0096000
        k(   47) = (   0.0200000   0.4965212   0.0000000), wk =   0.0096000
        k(   48) = (   0.0200000   0.5196152   0.0000000), wk =   0.0096000
        k(   49) = (   0.0200000   0.5427093   0.0000000), wk =   0.0096000
        k(   50) = (   0.0200000   0.5658033   0.0000000), wk =   0.0096000
        k(   51) = (   0.0400000   0.0692820   0.0000000), wk =   0.0048000
        k(   52) = (   0.0400000   0.0923760   0.0000000), wk =   0.0096000
        k(   53) = (   0.0400000   0.1154701   0.0000000), wk =   0.0096000
        k(   54) = (   0.0400000   0.1385641   0.0000000), wk =   0.0096000
        k(   55) = (   0.0400000   0.1616581   0.0000000), wk =   0.0096000
        k(   56) = (   0.0400000   0.1847521   0.0000000), wk =   0.0096000
        k(   57) = (   0.0400000   0.2078461   0.0000000), wk =   0.0096000
        k(   58) = (   0.0400000   0.2309401   0.0000000), wk =   0.0096000
        k(   59) = (   0.0400000   0.2540341   0.0000000), wk =   0.0096000
        k(   60) = (   0.0400000   0.2771281   0.0000000), wk =   0.0096000
        k(   61) = (   0.0400000   0.3002221   0.0000000), wk =   0.0096000
        k(   62) = (   0.0400000   0.3233162   0.0000000), wk =   0.0096000
        k(   63) = (   0.0400000   0.3464102   0.0000000), wk =   0.0096000
        k(   64) = (   0.0400000   0.3695042   0.0000000), wk =   0.0096000
        k(   65) = (   0.0400000   0.3925982   0.0000000), wk =   0.0096000
        k(   66) = (   0.0400000   0.4156922   0.0000000), wk =   0.0096000
        k(   67) = (   0.0400000   0.4387862   0.0000000), wk =   0.0096000
        k(   68) = (   0.0400000   0.4618802   0.0000000), wk =   0.0096000
        k(   69) = (   0.0400000   0.4849742   0.0000000), wk =   0.0096000
        k(   70) = (   0.0400000   0.5080682   0.0000000), wk =   0.0096000
        k(   71) = (   0.0400000   0.5311622   0.0000000), wk =   0.0096000
        k(   72) = (   0.0400000   0.5542563   0.0000000), wk =   0.0096000
        k(   73) = (   0.0400000   0.5773503   0.0000000), wk =   0.0048000
        k(   74) = (   0.0600000   0.1039230   0.0000000), wk =   0.0048000
        k(   75) = (   0.0600000   0.1270171   0.0000000), wk =   0.0096000
        k(   76) = (   0.0600000   0.1501111   0.0000000), wk =   0.0096000
        k(   77) = (   0.0600000   0.1732051   0.0000000), wk =   0.0096000
        k(   78) = (   0.0600000   0.1962991   0.0000000), wk =   0.0096000
        k(   79) = (   0.0600000   0.2193931   0.0000000), wk =   0.0096000
        k(   80) = (   0.0600000   0.2424871   0.0000000), wk =   0.0096000
        k(   81) = (   0.0600000   0.2655811   0.0000000), wk =   0.0096000
        k(   82) = (   0.0600000   0.2886751   0.0000000), wk =   0.0096000
        k(   83) = (   0.0600000   0.3117691   0.0000000), wk =   0.0096000
        k(   84) = (   0.0600000   0.3348632   0.0000000), wk =   0.0096000
        k(   85) = (   0.0600000   0.3579572   0.0000000), wk =   0.0096000
        k(   86) = (   0.0600000   0.3810512   0.0000000), wk =   0.0096000
        k(   87) = (   0.0600000   0.4041452   0.0000000), wk =   0.0096000
        k(   88) = (   0.0600000   0.4272392   0.0000000), wk =   0.0096000
        k(   89) = (   0.0600000   0.4503332   0.0000000), wk =   0.0096000
        k(   90) = (   0.0600000   0.4734272   0.0000000), wk =   0.0096000
        k(   91) = (   0.0600000   0.4965212   0.0000000), wk =   0.0096000
        k(   92) = (   0.0600000   0.5196152   0.0000000), wk =   0.0096000
        k(   93) = (   0.0600000   0.5427093   0.0000000), wk =   0.0096000
        k(   94) = (   0.0600000   0.5658033   0.0000000), wk =   0.0096000
        k(   95) = (   0.0800000   0.1385641   0.0000000), wk =   0.0048000
        k(   96) = (   0.0800000   0.1616581   0.0000000), wk =   0.0096000
        k(   97) = (   0.0800000   0.1847521   0.0000000), wk =   0.0096000
        k(   98) = (   0.0800000   0.2078461   0.0000000), wk =   0.0096000
        k(   99) = (   0.0800000   0.2309401   0.0000000), wk =   0.0096000
        k(  100) = (   0.0800000   0.2540341   0.0000000), wk =   0.0096000
        k(  101) = (   0.0800000   0.2771281   0.0000000), wk =   0.0096000
        k(  102) = (   0.0800000   0.3002221   0.0000000), wk =   0.0096000
        k(  103) = (   0.0800000   0.3233162   0.0000000), wk =   0.0096000
        k(  104) = (   0.0800000   0.3464102   0.0000000), wk =   0.0096000
        k(  105) = (   0.0800000   0.3695042   0.0000000), wk =   0.0096000
        k(  106) = (   0.0800000   0.3925982   0.0000000), wk =   0.0096000
        k(  107) = (   0.0800000   0.4156922   0.0000000), wk =   0.0096000
        k(  108) = (   0.0800000   0.4387862   0.0000000), wk =   0.0096000
        k(  109) = (   0.0800000   0.4618802   0.0000000), wk =   0.0096000
        k(  110) = (   0.0800000   0.4849742   0.0000000), wk =   0.0096000
        k(  111) = (   0.0800000   0.5080682   0.0000000), wk =   0.0096000
        k(  112) = (   0.0800000   0.5311622   0.0000000), wk =   0.0096000
        k(  113) = (   0.0800000   0.5542563   0.0000000), wk =   0.0096000
        k(  114) = (   0.0800000   0.5773503   0.0000000), wk =   0.0048000
        k(  115) = (   0.1000000   0.1732051   0.0000000), wk =   0.0048000
        k(  116) = (   0.1000000   0.1962991   0.0000000), wk =   0.0096000
        k(  117) = (   0.1000000   0.2193931   0.0000000), wk =   0.0096000
        k(  118) = (   0.1000000   0.2424871   0.0000000), wk =   0.0096000
        k(  119) = (   0.1000000   0.2655811   0.0000000), wk =   0.0096000
        k(  120) = (   0.1000000   0.2886751   0.0000000), wk =   0.0096000
        k(  121) = (   0.1000000   0.3117691   0.0000000), wk =   0.0096000
        k(  122) = (   0.1000000   0.3348632   0.0000000), wk =   0.0096000
        k(  123) = (   0.1000000   0.3579572   0.0000000), wk =   0.0096000
        k(  124) = (   0.1000000   0.3810512   0.0000000), wk =   0.0096000
        k(  125) = (   0.1000000   0.4041452   0.0000000), wk =   0.0096000
        k(  126) = (   0.1000000   0.4272392   0.0000000), wk =   0.0096000
        k(  127) = (   0.1000000   0.4503332   0.0000000), wk =   0.0096000
        k(  128) = (   0.1000000   0.4734272   0.0000000), wk =   0.0096000
        k(  129) = (   0.1000000   0.4965212   0.0000000), wk =   0.0096000
        k(  130) = (   0.1000000   0.5196152   0.0000000), wk =   0.0096000
        k(  131) = (   0.1000000   0.5427093   0.0000000), wk =   0.0096000
        k(  132) = (   0.1000000   0.5658033   0.0000000), wk =   0.0096000
        k(  133) = (   0.1200000   0.2078461   0.0000000), wk =   0.0048000
        k(  134) = (   0.1200000   0.2309401   0.0000000), wk =   0.0096000
        k(  135) = (   0.1200000   0.2540341   0.0000000), wk =   0.0096000
        k(  136) = (   0.1200000   0.2771281   0.0000000), wk =   0.0096000
        k(  137) = (   0.1200000   0.3002221   0.0000000), wk =   0.0096000
        k(  138) = (   0.1200000   0.3233162   0.0000000), wk =   0.0096000
        k(  139) = (   0.1200000   0.3464102   0.0000000), wk =   0.0096000
        k(  140) = (   0.1200000   0.3695042   0.0000000), wk =   0.0096000
        k(  141) = (   0.1200000   0.3925982   0.0000000), wk =   0.0096000
        k(  142) = (   0.1200000   0.4156922   0.0000000), wk =   0.0096000
        k(  143) = (   0.1200000   0.4387862   0.0000000), wk =   0.0096000
        k(  144) = (   0.1200000   0.4618802   0.0000000), wk =   0.0096000
        k(  145) = (   0.1200000   0.4849742   0.0000000), wk =   0.0096000
        k(  146) = (   0.1200000   0.5080682   0.0000000), wk =   0.0096000
        k(  147) = (   0.1200000   0.5311622   0.0000000), wk =   0.0096000
        k(  148) = (   0.1200000   0.5542563   0.0000000), wk =   0.0096000
        k(  149) = (   0.1200000   0.5773503   0.0000000), wk =   0.0048000
        k(  150) = (   0.1400000   0.2424871   0.0000000), wk =   0.0048000
        k(  151) = (   0.1400000   0.2655811   0.0000000), wk =   0.0096000
        k(  152) = (   0.1400000   0.2886751   0.0000000), wk =   0.0096000
        k(  153) = (   0.1400000   0.3117691   0.0000000), wk =   0.0096000
        k(  154) = (   0.1400000   0.3348632   0.0000000), wk =   0.0096000
        k(  155) = (   0.1400000   0.3579572   0.0000000), wk =   0.0096000
        k(  156) = (   0.1400000   0.3810512   0.0000000), wk =   0.0096000
        k(  157) = (   0.1400000   0.4041452   0.0000000), wk =   0.0096000
        k(  158) = (   0.1400000   0.4272392   0.0000000), wk =   0.0096000
        k(  159) = (   0.1400000   0.4503332   0.0000000), wk =   0.0096000
        k(  160) = (   0.1400000   0.4734272   0.0000000), wk =   0.0096000
        k(  161) = (   0.1400000   0.4965212   0.0000000), wk =   0.0096000
        k(  162) = (   0.1400000   0.5196152   0.0000000), wk =   0.0096000
        k(  163) = (   0.1400000   0.5427093   0.0000000), wk =   0.0096000
        k(  164) = (   0.1400000   0.5658033   0.0000000), wk =   0.0096000
        k(  165) = (   0.1600000   0.2771281   0.0000000), wk =   0.0048000
        k(  166) = (   0.1600000   0.3002221   0.0000000), wk =   0.0096000
        k(  167) = (   0.1600000   0.3233162   0.0000000), wk =   0.0096000
        k(  168) = (   0.1600000   0.3464102   0.0000000), wk =   0.0096000
        k(  169) = (   0.1600000   0.3695042   0.0000000), wk =   0.0096000
        k(  170) = (   0.1600000   0.3925982   0.0000000), wk =   0.0096000
        k(  171) = (   0.1600000   0.4156922   0.0000000), wk =   0.0096000
        k(  172) = (   0.1600000   0.4387862   0.0000000), wk =   0.0096000
        k(  173) = (   0.1600000   0.4618802   0.0000000), wk =   0.0096000
        k(  174) = (   0.1600000   0.4849742   0.0000000), wk =   0.0096000
        k(  175) = (   0.1600000   0.5080682   0.0000000), wk =   0.0096000
        k(  176) = (   0.1600000   0.5311622   0.0000000), wk =   0.0096000
        k(  177) = (   0.1600000   0.5542563   0.0000000), wk =   0.0096000
        k(  178) = (   0.1600000   0.5773503   0.0000000), wk =   0.0048000
        k(  179) = (   0.1800000   0.3117691   0.0000000), wk =   0.0048000
        k(  180) = (   0.1800000   0.3348632   0.0000000), wk =   0.0096000
        k(  181) = (   0.1800000   0.3579572   0.0000000), wk =   0.0096000
        k(  182) = (   0.1800000   0.3810512   0.0000000), wk =   0.0096000
        k(  183) = (   0.1800000   0.4041452   0.0000000), wk =   0.0096000
        k(  184) = (   0.1800000   0.4272392   0.0000000), wk =   0.0096000
        k(  185) = (   0.1800000   0.4503332   0.0000000), wk =   0.0096000
        k(  186) = (   0.1800000   0.4734272   0.0000000), wk =   0.0096000
        k(  187) = (   0.1800000   0.4965212   0.0000000), wk =   0.0096000
        k(  188) = (   0.1800000   0.5196152   0.0000000), wk =   0.0096000
        k(  189) = (   0.1800000   0.5427093   0.0000000), wk =   0.0096000
        k(  190) = (   0.1800000   0.5658033   0.0000000), wk =   0.0096000
        k(  191) = (   0.2000000   0.3464102   0.0000000), wk =   0.0048000
        k(  192) = (   0.2000000   0.3695042   0.0000000), wk =   0.0096000
        k(  193) = (   0.2000000   0.3925982   0.0000000), wk =   0.0096000
        k(  194) = (   0.2000000   0.4156922   0.0000000), wk =   0.0096000
        k(  195) = (   0.2000000   0.4387862   0.0000000), wk =   0.0096000
        k(  196) = (   0.2000000   0.4618802   0.0000000), wk =   0.0096000
        k(  197) = (   0.2000000   0.4849742   0.0000000), wk =   0.0096000
        k(  198) = (   0.2000000   0.5080682   0.0000000), wk =   0.0096000
        k(  199) = (   0.2000000   0.5311622   0.0000000), wk =   0.0096000
        k(  200) = (   0.2000000   0.5542563   0.0000000), wk =   0.0096000
        k(  201) = (   0.2000000   0.5773503   0.0000000), wk =   0.0048000
        k(  202) = (   0.2200000   0.3810512   0.0000000), wk =   0.0048000
        k(  203) = (   0.2200000   0.4041452   0.0000000), wk =   0.0096000
        k(  204) = (   0.2200000   0.4272392   0.0000000), wk =   0.0096000
        k(  205) = (   0.2200000   0.4503332   0.0000000), wk =   0.0096000
        k(  206) = (   0.2200000   0.4734272   0.0000000), wk =   0.0096000
        k(  207) = (   0.2200000   0.4965212   0.0000000), wk =   0.0096000
        k(  208) = (   0.2200000   0.5196152   0.0000000), wk =   0.0096000
        k(  209) = (   0.2200000   0.5427093   0.0000000), wk =   0.0096000
        k(  210) = (   0.2200000   0.5658033   0.0000000), wk =   0.0096000
        k(  211) = (   0.2400000   0.4156922   0.0000000), wk =   0.0048000
        k(  212) = (   0.2400000   0.4387862   0.0000000), wk =   0.0096000
        k(  213) = (   0.2400000   0.4618802   0.0000000), wk =   0.0096000
        k(  214) = (   0.2400000   0.4849742   0.0000000), wk =   0.0096000
        k(  215) = (   0.2400000   0.5080682   0.0000000), wk =   0.0096000
        k(  216) = (   0.2400000   0.5311622   0.0000000), wk =   0.0096000
        k(  217) = (   0.2400000   0.5542563   0.0000000), wk =   0.0096000
        k(  218) = (   0.2400000   0.5773503   0.0000000), wk =   0.0048000
        k(  219) = (   0.2600000   0.4503332   0.0000000), wk =   0.0048000
        k(  220) = (   0.2600000   0.4734272   0.0000000), wk =   0.0096000
        k(  221) = (   0.2600000   0.4965212   0.0000000), wk =   0.0096000
        k(  222) = (   0.2600000   0.5196152   0.0000000), wk =   0.0096000
        k(  223) = (   0.2600000   0.5427093   0.0000000), wk =   0.0096000
        k(  224) = (   0.2600000   0.5658033   0.0000000), wk =   0.0096000
        k(  225) = (   0.2800000   0.4849742   0.0000000), wk =   0.0048000
        k(  226) = (   0.2800000   0.5080682   0.0000000), wk =   0.0096000
        k(  227) = (   0.2800000   0.5311622   0.0000000), wk =   0.0096000
        k(  228) = (   0.2800000   0.5542563   0.0000000), wk =   0.0096000
        k(  229) = (   0.2800000   0.5773503   0.0000000), wk =   0.0048000
        k(  230) = (   0.3000000   0.5196152   0.0000000), wk =   0.0048000
        k(  231) = (   0.3000000   0.5427093   0.0000000), wk =   0.0096000
        k(  232) = (   0.3000000   0.5658033   0.0000000), wk =   0.0096000
        k(  233) = (   0.3200000   0.5542563   0.0000000), wk =   0.0048000
        k(  234) = (   0.3200000   0.5773503   0.0000000), wk =   0.0048000

                       cryst. coord.
        k(    1) = (   0.0000000   0.0000000   0.0000000), wk =   0.0008000
        k(    2) = (   0.0000000   0.0200000   0.0000000), wk =   0.0048000
        k(    3) = (   0.0000000   0.0400000   0.0000000), wk =   0.0048000
        k(    4) = (   0.0000000   0.0600000   0.0000000), wk =   0.0048000
        k(    5) = (   0.0000000   0.0800000   0.0000000), wk =   0.0048000
        k(    6) = (   0.0000000   0.1000000   0.0000000), wk =   0.0048000
        k(    7) = (   0.0000000   0.1200000   0.0000000), wk =   0.0048000
        k(    8) = (   0.0000000   0.1400000   0.0000000), wk =   0.0048000
        k(    9) = (   0.0000000   0.1600000   0.0000000), wk =   0.0048000
        k(   10) = (   0.0000000   0.1800000   0.0000000), wk =   0.0048000
        k(   11) = (   0.0000000   0.2000000   0.0000000), wk =   0.0048000
        k(   12) = (   0.0000000   0.2200000   0.0000000), wk =   0.0048000
        k(   13) = (   0.0000000   0.2400000   0.0000000), wk =   0.0048000
        k(   14) = (   0.0000000   0.2600000   0.0000000), wk =   0.0048000
        k(   15) = (   0.0000000   0.2800000   0.0000000), wk =   0.0048000
        k(   16) = (   0.0000000   0.3000000   0.0000000), wk =   0.0048000
        k(   17) = (   0.0000000   0.3200000   0.0000000), wk =   0.0048000
        k(   18) = (   0.0000000   0.3400000   0.0000000), wk =   0.0048000
        k(   19) = (   0.0000000   0.3600000   0.0000000), wk =   0.0048000
        k(   20) = (   0.0000000   0.3800000   0.0000000), wk =   0.0048000
        k(   21) = (   0.0000000   0.4000000   0.0000000), wk =   0.0048000
        k(   22) = (   0.0000000   0.4200000   0.0000000), wk =   0.0048000
        k(   23) = (   0.0000000   0.4400000   0.0000000), wk =   0.0048000
        k(   24) = (   0.0000000   0.4600000   0.0000000), wk =   0.0048000
        k(   25) = (   0.0000000   0.4800000   0.0000000), wk =   0.0048000
        k(   26) = (   0.0000000  -0.5000000   0.0000000), wk =   0.0024000
        k(   27) = (   0.0200000   0.0200000   0.0000000), wk =   0.0048000
        k(   28) = (   0.0200000   0.0400000   0.0000000), wk =   0.0096000
        k(   29) = (   0.0200000   0.0600000   0.0000000), wk =   0.0096000
        k(   30) = (   0.0200000   0.0800000   0.0000000), wk =   0.0096000
        k(   31) = (   0.0200000   0.1000000   0.0000000), wk =   0.0096000
        k(   32) = (   0.0200000   0.1200000   0.0000000), wk =   0.0096000
        k(   33) = (   0.0200000   0.1400000   0.0000000), wk =   0.0096000
        k(   34) = (   0.0200000   0.1600000   0.0000000), wk =   0.0096000
        k(   35) = (   0.0200000   0.1800000   0.0000000), wk =   0.0096000
        k(   36) = (   0.0200000   0.2000000   0.0000000), wk =   0.0096000
        k(   37) = (   0.0200000   0.2200000   0.0000000), wk =   0.0096000
        k(   38) = (   0.0200000   0.2400000   0.0000000), wk =   0.0096000
        k(   39) = (   0.0200000   0.2600000   0.0000000), wk =   0.0096000
        k(   40) = (   0.0200000   0.2800000   0.0000000), wk =   0.0096000
        k(   41) = (   0.0200000   0.3000000   0.0000000), wk =   0.0096000
        k(   42) = (   0.0200000   0.3200000   0.0000000), wk =   0.0096000
        k(   43) = (   0.0200000   0.3400000   0.0000000), wk =   0.0096000
        k(   44) = (   0.0200000   0.3600000   0.0000000), wk =   0.0096000
        k(   45) = (   0.0200000   0.3800000   0.0000000), wk =   0.0096000
        k(   46) = (   0.0200000   0.4000000   0.0000000), wk =   0.0096000
        k(   47) = (   0.0200000   0.4200000   0.0000000), wk =   0.0096000
        k(   48) = (   0.0200000   0.4400000   0.0000000), wk =   0.0096000
        k(   49) = (   0.0200000   0.4600000   0.0000000), wk =   0.0096000
        k(   50) = (   0.0200000   0.4800000   0.0000000), wk =   0.0096000
        k(   51) = (   0.0400000   0.0400000   0.0000000), wk =   0.0048000
        k(   52) = (   0.0400000   0.0600000   0.0000000), wk =   0.0096000
        k(   53) = (   0.0400000   0.0800000   0.0000000), wk =   0.0096000
        k(   54) = (   0.0400000   0.1000000   0.0000000), wk =   0.0096000
        k(   55) = (   0.0400000   0.1200000   0.0000000), wk =   0.0096000
        k(   56) = (   0.0400000   0.1400000   0.0000000), wk =   0.0096000
        k(   57) = (   0.0400000   0.1600000   0.0000000), wk =   0.0096000
        k(   58) = (   0.0400000   0.1800000   0.0000000), wk =   0.0096000
        k(   59) = (   0.0400000   0.2000000   0.0000000), wk =   0.0096000
        k(   60) = (   0.0400000   0.2200000   0.0000000), wk =   0.0096000
        k(   61) = (   0.0400000   0.2400000   0.0000000), wk =   0.0096000
        k(   62) = (   0.0400000   0.2600000   0.0000000), wk =   0.0096000
        k(   63) = (   0.0400000   0.2800000   0.0000000), wk =   0.0096000
        k(   64) = (   0.0400000   0.3000000   0.0000000), wk =   0.0096000
        k(   65) = (   0.0400000   0.3200000   0.0000000), wk =   0.0096000
        k(   66) = (   0.0400000   0.3400000   0.0000000), wk =   0.0096000
        k(   67) = (   0.0400000   0.3600000   0.0000000), wk =   0.0096000
        k(   68) = (   0.0400000   0.3800000   0.0000000), wk =   0.0096000
        k(   69) = (   0.0400000   0.4000000   0.0000000), wk =   0.0096000
        k(   70) = (   0.0400000   0.4200000   0.0000000), wk =   0.0096000
        k(   71) = (   0.0400000   0.4400000   0.0000000), wk =   0.0096000
        k(   72) = (   0.0400000   0.4600000   0.0000000), wk =   0.0096000
        k(   73) = (   0.0400000   0.4800000   0.0000000), wk =   0.0048000
        k(   74) = (   0.0600000   0.0600000   0.0000000), wk =   0.0048000
        k(   75) = (   0.0600000   0.0800000   0.0000000), wk =   0.0096000
        k(   76) = (   0.0600000   0.1000000   0.0000000), wk =   0.0096000
        k(   77) = (   0.0600000   0.1200000   0.0000000), wk =   0.0096000
        k(   78) = (   0.0600000   0.1400000   0.0000000), wk =   0.0096000
        k(   79) = (   0.0600000   0.1600000   0.0000000), wk =   0.0096000
        k(   80) = (   0.0600000   0.1800000   0.0000000), wk =   0.0096000
        k(   81) = (   0.0600000   0.2000000   0.0000000), wk =   0.0096000
        k(   82) = (   0.0600000   0.2200000   0.0000000), wk =   0.0096000
        k(   83) = (   0.0600000   0.2400000   0.0000000), wk =   0.0096000
        k(   84) = (   0.0600000   0.2600000   0.0000000), wk =   0.0096000
        k(   85) = (   0.0600000   0.2800000   0.0000000), wk =   0.0096000
        k(   86) = (   0.0600000   0.3000000   0.0000000), wk =   0.0096000
        k(   87) = (   0.0600000   0.3200000   0.0000000), wk =   0.0096000
        k(   88) = (   0.0600000   0.3400000   0.0000000), wk =   0.0096000
        k(   89) = (   0.0600000   0.3600000   0.0000000), wk =   0.0096000
        k(   90) = (   0.0600000   0.3800000   0.0000000), wk =   0.0096000
        k(   91) = (   0.0600000   0.4000000   0.0000000), wk =   0.0096000
        k(   92) = (   0.0600000   0.4200000   0.0000000), wk =   0.0096000
        k(   93) = (   0.0600000   0.4400000   0.0000000), wk =   0.0096000
        k(   94) = (   0.0600000   0.4600000   0.0000000), wk =   0.0096000
        k(   95) = (   0.0800000   0.0800000   0.0000000), wk =   0.0048000
        k(   96) = (   0.0800000   0.1000000   0.0000000), wk =   0.0096000
        k(   97) = (   0.0800000   0.1200000   0.0000000), wk =   0.0096000
        k(   98) = (   0.0800000   0.1400000   0.0000000), wk =   0.0096000
        k(   99) = (   0.0800000   0.1600000   0.0000000), wk =   0.0096000
        k(  100) = (   0.0800000   0.1800000   0.0000000), wk =   0.0096000
        k(  101) = (   0.0800000   0.2000000   0.0000000), wk =   0.0096000
        k(  102) = (   0.0800000   0.2200000   0.0000000), wk =   0.0096000
        k(  103) = (   0.0800000   0.2400000   0.0000000), wk =   0.0096000
        k(  104) = (   0.0800000   0.2600000   0.0000000), wk =   0.0096000
        k(  105) = (   0.0800000   0.2800000   0.0000000), wk =   0.0096000
        k(  106) = (   0.0800000   0.3000000   0.0000000), wk =   0.0096000
        k(  107) = (   0.0800000   0.3200000   0.0000000), wk =   0.0096000
        k(  108) = (   0.0800000   0.3400000   0.0000000), wk =   0.0096000
        k(  109) = (   0.0800000   0.3600000   0.0000000), wk =   0.0096000
        k(  110) = (   0.0800000   0.3800000   0.0000000), wk =   0.0096000
        k(  111) = (   0.0800000   0.4000000   0.0000000), wk =   0.0096000
        k(  112) = (   0.0800000   0.4200000   0.0000000), wk =   0.0096000
        k(  113) = (   0.0800000   0.4400000   0.0000000), wk =   0.0096000
        k(  114) = (   0.0800000   0.4600000   0.0000000), wk =   0.0048000
        k(  115) = (   0.1000000   0.1000000   0.0000000), wk =   0.0048000
        k(  116) = (   0.1000000   0.1200000   0.0000000), wk =   0.0096000
        k(  117) = (   0.1000000   0.1400000   0.0000000), wk =   0.0096000
        k(  118) = (   0.1000000   0.1600000   0.0000000), wk =   0.0096000
        k(  119) = (   0.1000000   0.1800000   0.0000000), wk =   0.0096000
        k(  120) = (   0.1000000   0.2000000   0.0000000), wk =   0.0096000
        k(  121) = (   0.1000000   0.2200000   0.0000000), wk =   0.0096000
        k(  122) = (   0.1000000   0.2400000   0.0000000), wk =   0.0096000
        k(  123) = (   0.1000000   0.2600000   0.0000000), wk =   0.0096000
        k(  124) = (   0.1000000   0.2800000   0.0000000), wk =   0.0096000
        k(  125) = (   0.1000000   0.3000000   0.0000000), wk =   0.0096000
        k(  126) = (   0.1000000   0.3200000   0.0000000), wk =   0.0096000
        k(  127) = (   0.1000000   0.3400000   0.0000000), wk =   0.0096000
        k(  128) = (   0.1000000   0.3600000   0.0000000), wk =   0.0096000
        k(  129) = (   0.1000000   0.3800000   0.0000000), wk =   0.0096000
        k(  130) = (   0.1000000   0.4000000   0.0000000), wk =   0.0096000
        k(  131) = (   0.1000000   0.4200000   0.0000000), wk =   0.0096000
        k(  132) = (   0.1000000   0.4400000   0.0000000), wk =   0.0096000
        k(  133) = (   0.1200000   0.1200000   0.0000000), wk =   0.0048000
        k(  134) = (   0.1200000   0.1400000   0.0000000), wk =   0.0096000
        k(  135) = (   0.1200000   0.1600000   0.0000000), wk =   0.0096000
        k(  136) = (   0.1200000   0.1800000   0.0000000), wk =   0.0096000
        k(  137) = (   0.1200000   0.2000000   0.0000000), wk =   0.0096000
        k(  138) = (   0.1200000   0.2200000   0.0000000), wk =   0.0096000
        k(  139) = (   0.1200000   0.2400000   0.0000000), wk =   0.0096000
        k(  140) = (   0.1200000   0.2600000   0.0000000), wk =   0.0096000
        k(  141) = (   0.1200000   0.2800000   0.0000000), wk =   0.0096000
        k(  142) = (   0.1200000   0.3000000   0.0000000), wk =   0.0096000
        k(  143) = (   0.1200000   0.3200000   0.0000000), wk =   0.0096000
        k(  144) = (   0.1200000   0.3400000   0.0000000), wk =   0.0096000
        k(  145) = (   0.1200000   0.3600000   0.0000000), wk =   0.0096000
        k(  146) = (   0.1200000   0.3800000   0.0000000), wk =   0.0096000
        k(  147) = (   0.1200000   0.4000000   0.0000000), wk =   0.0096000
        k(  148) = (   0.1200000   0.4200000   0.0000000), wk =   0.0096000
        k(  149) = (   0.1200000   0.4400000   0.0000000), wk =   0.0048000
        k(  150) = (   0.1400000   0.1400000   0.0000000), wk =   0.0048000
        k(  151) = (   0.1400000   0.1600000   0.0000000), wk =   0.0096000
        k(  152) = (   0.1400000   0.1800000   0.0000000), wk =   0.0096000
        k(  153) = (   0.1400000   0.2000000   0.0000000), wk =   0.0096000
        k(  154) = (   0.1400000   0.2200000   0.0000000), wk =   0.0096000
        k(  155) = (   0.1400000   0.2400000   0.0000000), wk =   0.0096000
        k(  156) = (   0.1400000   0.2600000   0.0000000), wk =   0.0096000
        k(  157) = (   0.1400000   0.2800000   0.0000000), wk =   0.0096000
        k(  158) = (   0.1400000   0.3000000   0.0000000), wk =   0.0096000
        k(  159) = (   0.1400000   0.3200000   0.0000000), wk =   0.0096000
        k(  160) = (   0.1400000   0.3400000   0.0000000), wk =   0.0096000
        k(  161) = (   0.1400000   0.3600000   0.0000000), wk =   0.0096000
        k(  162) = (   0.1400000   0.3800000   0.0000000), wk =   0.0096000
        k(  163) = (   0.1400000   0.4000000   0.0000000), wk =   0.0096000
        k(  164) = (   0.1400000   0.4200000   0.0000000), wk =   0.0096000
        k(  165) = (   0.1600000   0.1600000   0.0000000), wk =   0.0048000
        k(  166) = (   0.1600000   0.1800000   0.0000000), wk =   0.0096000
        k(  167) = (   0.1600000   0.2000000   0.0000000), wk =   0.0096000
        k(  168) = (   0.1600000   0.2200000   0.0000000), wk =   0.0096000
        k(  169) = (   0.1600000   0.2400000   0.0000000), wk =   0.0096000
        k(  170) = (   0.1600000   0.2600000   0.0000000), wk =   0.0096000
        k(  171) = (   0.1600000   0.2800000   0.0000000), wk =   0.0096000
        k(  172) = (   0.1600000   0.3000000   0.0000000), wk =   0.0096000
        k(  173) = (   0.1600000   0.3200000   0.0000000), wk =   0.0096000
        k(  174) = (   0.1600000   0.3400000   0.0000000), wk =   0.0096000
        k(  175) = (   0.1600000   0.3600000   0.0000000), wk =   0.0096000
        k(  176) = (   0.1600000   0.3800000   0.0000000), wk =   0.0096000
        k(  177) = (   0.1600000   0.4000000   0.0000000), wk =   0.0096000
        k(  178) = (   0.1600000   0.4200000   0.0000000), wk =   0.0048000
        k(  179) = (   0.1800000   0.1800000   0.0000000), wk =   0.0048000
        k(  180) = (   0.1800000   0.2000000   0.0000000), wk =   0.0096000
        k(  181) = (   0.1800000   0.2200000   0.0000000), wk =   0.0096000
        k(  182) = (   0.1800000   0.2400000   0.0000000), wk =   0.0096000
        k(  183) = (   0.1800000   0.2600000   0.0000000), wk =   0.0096000
        k(  184) = (   0.1800000   0.2800000   0.0000000), wk =   0.0096000
        k(  185) = (   0.1800000   0.3000000   0.0000000), wk =   0.0096000
        k(  186) = (   0.1800000   0.3200000   0.0000000), wk =   0.0096000
        k(  187) = (   0.1800000   0.3400000   0.0000000), wk =   0.0096000
        k(  188) = (   0.1800000   0.3600000   0.0000000), wk =   0.0096000
        k(  189) = (   0.1800000   0.3800000   0.0000000), wk =   0.0096000
        k(  190) = (   0.1800000   0.4000000   0.0000000), wk =   0.0096000
        k(  191) = (   0.2000000   0.2000000   0.0000000), wk =   0.0048000
        k(  192) = (   0.2000000   0.2200000   0.0000000), wk =   0.0096000
        k(  193) = (   0.2000000   0.2400000   0.0000000), wk =   0.0096000
        k(  194) = (   0.2000000   0.2600000   0.0000000), wk =   0.0096000
        k(  195) = (   0.2000000   0.2800000   0.0000000), wk =   0.0096000
        k(  196) = (   0.2000000   0.3000000   0.0000000), wk =   0.0096000
        k(  197) = (   0.2000000   0.3200000   0.0000000), wk =   0.0096000
        k(  198) = (   0.2000000   0.3400000   0.0000000), wk =   0.0096000
        k(  199) = (   0.2000000   0.3600000   0.0000000), wk =   0.0096000
        k(  200) = (   0.2000000   0.3800000   0.0000000), wk =   0.0096000
        k(  201) = (   0.2000000   0.4000000   0.0000000), wk =   0.0048000
        k(  202) = (   0.2200000   0.2200000   0.0000000), wk =   0.0048000
        k(  203) = (   0.2200000   0.2400000   0.0000000), wk =   0.0096000
        k(  204) = (   0.2200000   0.2600000   0.0000000), wk =   0.0096000
        k(  205) = (   0.2200000   0.2800000   0.0000000), wk =   0.0096000
        k(  206) = (   0.2200000   0.3000000   0.0000000), wk =   0.0096000
        k(  207) = (   0.2200000   0.3200000   0.0000000), wk =   0.0096000
        k(  208) = (   0.2200000   0.3400000   0.0000000), wk =   0.0096000
        k(  209) = (   0.2200000   0.3600000   0.0000000), wk =   0.0096000
        k(  210) = (   0.2200000   0.3800000   0.0000000), wk =   0.0096000
        k(  211) = (   0.2400000   0.2400000   0.0000000), wk =   0.0048000
        k(  212) = (   0.2400000   0.2600000   0.0000000), wk =   0.0096000
        k(  213) = (   0.2400000   0.2800000   0.0000000), wk =   0.0096000
        k(  214) = (   0.2400000   0.3000000   0.0000000), wk =   0.0096000
        k(  215) = (   0.2400000   0.3200000   0.0000000), wk =   0.0096000
        k(  216) = (   0.2400000   0.3400000   0.0000000), wk =   0.0096000
        k(  217) = (   0.2400000   0.3600000   0.0000000), wk =   0.0096000
        k(  218) = (   0.2400000   0.3800000   0.0000000), wk =   0.0048000
        k(  219) = (   0.2600000   0.2600000   0.0000000), wk =   0.0048000
        k(  220) = (   0.2600000   0.2800000   0.0000000), wk =   0.0096000
        k(  221) = (   0.2600000   0.3000000   0.0000000), wk =   0.0096000
        k(  222) = (   0.2600000   0.3200000   0.0000000), wk =   0.0096000
        k(  223) = (   0.2600000   0.3400000   0.0000000), wk =   0.0096000
        k(  224) = (   0.2600000   0.3600000   0.0000000), wk =   0.0096000
        k(  225) = (   0.2800000   0.2800000   0.0000000), wk =   0.0048000
        k(  226) = (   0.2800000   0.3000000   0.0000000), wk =   0.0096000
        k(  227) = (   0.2800000   0.3200000   0.0000000), wk =   0.0096000
        k(  228) = (   0.2800000   0.3400000   0.0000000), wk =   0.0096000
        k(  229) = (   0.2800000   0.3600000   0.0000000), wk =   0.0048000
        k(  230) = (   0.3000000   0.3000000   0.0000000), wk =   0.0048000
        k(  231) = (   0.3000000   0.3200000   0.0000000), wk =   0.0096000
        k(  232) = (   0.3000000   0.3400000   0.0000000), wk =   0.0096000
        k(  233) = (   0.3200000   0.3200000   0.0000000), wk =   0.0048000
        k(  234) = (   0.3200000   0.3400000   0.0000000), wk =   0.0048000

     Dense  grid:    33017 G-vectors     FFT dimensions: (  24,  24, 144)

     Dynamical RAM for                 wfc:       0.08 MB

     Dynamical RAM for     wfc (w. buffer):       0.08 MB

     Dynamical RAM for           str. fact:       0.06 MB

     Dynamical RAM for           local pot:       0.00 MB

     Dynamical RAM for          nlocal pot:       0.13 MB

     Dynamical RAM for                qrad:       0.36 MB

     Dynamical RAM for          rho,v,vnew:       0.43 MB

     Dynamical RAM for           G-vectors:       0.27 MB

     Dynamical RAM for          h,s,v(r/c):       0.02 MB

     Dynamical RAM for          <psi|beta>:       0.00 MB

     Dynamical RAM for                 psi:       0.16 MB

     Dynamical RAM for                hpsi:       0.16 MB

     Dynamical RAM for      wfcinit/wfcrot:       0.16 MB

     Estimated static dynamical RAM per process >       1.84 MB

     Estimated max dynamical RAM per process >       2.17 MB

     Estimated total dynamical RAM >      17.38 MB

     The potential is recalculated from file :
     ./tmp/graphene_PBE.save/charge-density

     Starting wfcs are    8 randomized atomic wfcs +    2 random wfcs

     Band Structure Calculation
     Davidson diagonalization with overlap

     Computing kpt #:     1  of   234
     total cpu time spent up to now is        0.5 secs

     Computing kpt #:     2  of   234
     total cpu time spent up to now is        0.5 secs

     Computing kpt #:     3  of   234
     total cpu time spent up to now is        0.6 secs

     Computing kpt #:     4  of   234
     total cpu time spent up to now is        0.7 secs

     Computing kpt #:     5  of   234
     total cpu time spent up to now is        0.7 secs

     Computing kpt #:     6  of   234
     total cpu time spent up to now is        0.8 secs

     Computing kpt #:     7  of   234
     total cpu time spent up to now is        0.9 secs

     Computing kpt #:     8  of   234
     total cpu time spent up to now is        0.9 secs

     Computing kpt #:     9  of   234
     total cpu time spent up to now is        1.0 secs

     Computing kpt #:    10  of   234
     total cpu time spent up to now is        1.1 secs

     Computing kpt #:    11  of   234
     total cpu time spent up to now is        1.2 secs

     Computing kpt #:    12  of   234
     total cpu time spent up to now is        1.3 secs

     Computing kpt #:    13  of   234
     total cpu time spent up to now is        1.4 secs

     Computing kpt #:    14  of   234
     total cpu time spent up to now is        1.5 secs

     Computing kpt #:    15  of   234
     total cpu time spent up to now is        1.5 secs

     Computing kpt #:    16  of   234
     total cpu time spent up to now is        1.6 secs

     Computing kpt #:    17  of   234
     total cpu time spent up to now is        1.7 secs

     Computing kpt #:    18  of   234
     total cpu time spent up to now is        1.7 secs

     Computing kpt #:    19  of   234
     total cpu time spent up to now is        1.8 secs

     Computing kpt #:    20  of   234
     total cpu time spent up to now is        1.8 secs

     Computing kpt #:    21  of   234
     total cpu time spent up to now is        1.9 secs

     Computing kpt #:    22  of   234
     total cpu time spent up to now is        2.0 secs

     Computing kpt #:    23  of   234
     total cpu time spent up to now is        2.0 secs

     Computing kpt #:    24  of   234
     total cpu time spent up to now is        2.1 secs

     Computing kpt #:    25  of   234
     total cpu time spent up to now is        2.2 secs

     Computing kpt #:    26  of   234
     total cpu time spent up to now is        2.2 secs

     Computing kpt #:    27  of   234
     total cpu time spent up to now is        2.3 secs

     Computing kpt #:    28  of   234
     total cpu time spent up to now is        2.4 secs

     Computing kpt #:    29  of   234
     total cpu time spent up to now is        2.5 secs

     Computing kpt #:    30  of   234
     total cpu time spent up to now is        2.6 secs

     Computing kpt #:    31  of   234
     total cpu time spent up to now is        2.7 secs

     Computing kpt #:    32  of   234
     total cpu time spent up to now is        2.8 secs

     Computing kpt #:    33  of   234
     total cpu time spent up to now is        2.9 secs

     Computing kpt #:    34  of   234
     total cpu time spent up to now is        3.0 secs

     Computing kpt #:    35  of   234
     total cpu time spent up to now is        3.1 secs

     Computing kpt #:    36  of   234
     total cpu time spent up to now is        3.1 secs

     Computing kpt #:    37  of   234
     total cpu time spent up to now is        3.2 secs

     Computing kpt #:    38  of   234
     total cpu time spent up to now is        3.3 secs

     Computing kpt #:    39  of   234
     total cpu time spent up to now is        3.4 secs

     Computing kpt #:    40  of   234
     total cpu time spent up to now is        3.5 secs

     Computing kpt #:    41  of   234
     total cpu time spent up to now is        3.5 secs

     Computing kpt #:    42  of   234
     total cpu time spent up to now is        3.6 secs

     Computing kpt #:    43  of   234
     total cpu time spent up to now is        3.7 secs

     Computing kpt #:    44  of   234
     total cpu time spent up to now is        3.7 secs

     Computing kpt #:    45  of   234
     total cpu time spent up to now is        3.8 secs

     Computing kpt #:    46  of   234
     total cpu time spent up to now is        3.8 secs

     Computing kpt #:    47  of   234
     total cpu time spent up to now is        3.9 secs

     Computing kpt #:    48  of   234
     total cpu time spent up to now is        4.0 secs

     Computing kpt #:    49  of   234
     total cpu time spent up to now is        4.0 secs

     Computing kpt #:    50  of   234
     total cpu time spent up to now is        4.1 secs

     Computing kpt #:    51  of   234
     total cpu time spent up to now is        4.2 secs

     Computing kpt #:    52  of   234
     total cpu time spent up to now is        4.3 secs

     Computing kpt #:    53  of   234
     total cpu time spent up to now is        4.4 secs

     Computing kpt #:    54  of   234
     total cpu time spent up to now is        4.5 secs

     Computing kpt #:    55  of   234
     total cpu time spent up to now is        4.6 secs

     Computing kpt #:    56  of   234
     total cpu time spent up to now is        4.7 secs

     Computing kpt #:    57  of   234
     total cpu time spent up to now is        4.8 secs

     Computing kpt #:    58  of   234
     total cpu time spent up to now is        4.9 secs

     Computing kpt #:    59  of   234
     total cpu time spent up to now is        5.0 secs

     Computing kpt #:    60  of   234
     total cpu time spent up to now is        5.0 secs

     Computing kpt #:    61  of   234
     total cpu time spent up to now is        5.1 secs

     Computing kpt #:    62  of   234
     total cpu time spent up to now is        5.2 secs

     Computing kpt #:    63  of   234
     total cpu time spent up to now is        5.2 secs

     Computing kpt #:    64  of   234
     total cpu time spent up to now is        5.3 secs

     Computing kpt #:    65  of   234
     total cpu time spent up to now is        5.4 secs

     Computing kpt #:    66  of   234
     total cpu time spent up to now is        5.4 secs

     Computing kpt #:    67  of   234
     total cpu time spent up to now is        5.5 secs

     Computing kpt #:    68  of   234
     total cpu time spent up to now is        5.6 secs

     Computing kpt #:    69  of   234
     total cpu time spent up to now is        5.6 secs

     Computing kpt #:    70  of   234
     total cpu time spent up to now is        5.7 secs

     Computing kpt #:    71  of   234
     total cpu time spent up to now is        5.8 secs

     Computing kpt #:    72  of   234
     total cpu time spent up to now is        5.8 secs

     Computing kpt #:    73  of   234
     total cpu time spent up to now is        5.9 secs

     Computing kpt #:    74  of   234
     total cpu time spent up to now is        6.0 secs

     Computing kpt #:    75  of   234
     total cpu time spent up to now is        6.0 secs

     Computing kpt #:    76  of   234
     total cpu time spent up to now is        6.1 secs

     Computing kpt #:    77  of   234
     total cpu time spent up to now is        6.2 secs

     Computing kpt #:    78  of   234
     total cpu time spent up to now is        6.3 secs

     Computing kpt #:    79  of   234
     total cpu time spent up to now is        6.4 secs

     Computing kpt #:    80  of   234
     total cpu time spent up to now is        6.5 secs

     Computing kpt #:    81  of   234
     total cpu time spent up to now is        6.6 secs

     Computing kpt #:    82  of   234
     total cpu time spent up to now is        6.7 secs

     Computing kpt #:    83  of   234
     total cpu time spent up to now is        6.8 secs

     Computing kpt #:    84  of   234
     total cpu time spent up to now is        6.8 secs

     Computing kpt #:    85  of   234
     total cpu time spent up to now is        6.9 secs

     Computing kpt #:    86  of   234
     total cpu time spent up to now is        6.9 secs

     Computing kpt #:    87  of   234
     total cpu time spent up to now is        7.0 secs

     Computing kpt #:    88  of   234
     total cpu time spent up to now is        7.0 secs

     Computing kpt #:    89  of   234
     total cpu time spent up to now is        7.1 secs

     Computing kpt #:    90  of   234
     total cpu time spent up to now is        7.2 secs

     Computing kpt #:    91  of   234
     total cpu time spent up to now is        7.2 secs

     Computing kpt #:    92  of   234
     total cpu time spent up to now is        7.3 secs

     Computing kpt #:    93  of   234
     total cpu time spent up to now is        7.4 secs

     Computing kpt #:    94  of   234
     total cpu time spent up to now is        7.5 secs

     Computing kpt #:    95  of   234
     total cpu time spent up to now is        7.5 secs

     Computing kpt #:    96  of   234
     total cpu time spent up to now is        7.6 secs

     Computing kpt #:    97  of   234
     total cpu time spent up to now is        7.7 secs

     Computing kpt #:    98  of   234
     total cpu time spent up to now is        7.8 secs

     Computing kpt #:    99  of   234
     total cpu time spent up to now is        7.9 secs

     Computing kpt #:   100  of   234
     total cpu time spent up to now is        8.0 secs

     Computing kpt #:   101  of   234
     total cpu time spent up to now is        8.0 secs

     Computing kpt #:   102  of   234
     total cpu time spent up to now is        8.1 secs

     Computing kpt #:   103  of   234
     total cpu time spent up to now is        8.2 secs

     Computing kpt #:   104  of   234
     total cpu time spent up to now is        8.2 secs

     Computing kpt #:   105  of   234
     total cpu time spent up to now is        8.3 secs

     Computing kpt #:   106  of   234
     total cpu time spent up to now is        8.3 secs

     Computing kpt #:   107  of   234
     total cpu time spent up to now is        8.4 secs

     Computing kpt #:   108  of   234
     total cpu time spent up to now is        8.5 secs

     Computing kpt #:   109  of   234
     total cpu time spent up to now is        8.6 secs

     Computing kpt #:   110  of   234
     total cpu time spent up to now is        8.6 secs

     Computing kpt #:   111  of   234
     total cpu time spent up to now is        8.7 secs

     Computing kpt #:   112  of   234
     total cpu time spent up to now is        8.8 secs

     Computing kpt #:   113  of   234
     total cpu time spent up to now is        8.8 secs

     Computing kpt #:   114  of   234
     total cpu time spent up to now is        8.9 secs

     Computing kpt #:   115  of   234
     total cpu time spent up to now is        9.0 secs

     Computing kpt #:   116  of   234
     total cpu time spent up to now is        9.0 secs

     Computing kpt #:   117  of   234
     total cpu time spent up to now is        9.1 secs

     Computing kpt #:   118  of   234
     total cpu time spent up to now is        9.2 secs

     Computing kpt #:   119  of   234
     total cpu time spent up to now is        9.3 secs

     Computing kpt #:   120  of   234
     total cpu time spent up to now is        9.4 secs

     Computing kpt #:   121  of   234
     total cpu time spent up to now is        9.5 secs

     Computing kpt #:   122  of   234
     total cpu time spent up to now is        9.6 secs

     Computing kpt #:   123  of   234
     total cpu time spent up to now is        9.6 secs

     Computing kpt #:   124  of   234
     total cpu time spent up to now is        9.7 secs

     Computing kpt #:   125  of   234
     total cpu time spent up to now is        9.7 secs

     Computing kpt #:   126  of   234
     total cpu time spent up to now is        9.8 secs

     Computing kpt #:   127  of   234
     total cpu time spent up to now is        9.8 secs

     Computing kpt #:   128  of   234
     total cpu time spent up to now is        9.9 secs

     Computing kpt #:   129  of   234
     total cpu time spent up to now is        9.9 secs

     Computing kpt #:   130  of   234
     total cpu time spent up to now is        9.9 secs

     Computing kpt #:   131  of   234
     total cpu time spent up to now is       10.0 secs

     Computing kpt #:   132  of   234
     total cpu time spent up to now is       10.1 secs

     Computing kpt #:   133  of   234
     total cpu time spent up to now is       10.1 secs

     Computing kpt #:   134  of   234
     total cpu time spent up to now is       10.2 secs

     Computing kpt #:   135  of   234
     total cpu time spent up to now is       10.3 secs

     Computing kpt #:   136  of   234
     total cpu time spent up to now is       10.4 secs

     Computing kpt #:   137  of   234
     total cpu time spent up to now is       10.5 secs

     Computing kpt #:   138  of   234
     total cpu time spent up to now is       10.6 secs

     Computing kpt #:   139  of   234
     total cpu time spent up to now is       10.6 secs

     Computing kpt #:   140  of   234
     total cpu time spent up to now is       10.7 secs

     Computing kpt #:   141  of   234
     total cpu time spent up to now is       10.7 secs

     Computing kpt #:   142  of   234
     total cpu time spent up to now is       10.8 secs

     Computing kpt #:   143  of   234
     total cpu time spent up to now is       10.8 secs

     Computing kpt #:   144  of   234
     total cpu time spent up to now is       10.9 secs

     Computing kpt #:   145  of   234
     total cpu time spent up to now is       11.0 secs

     Computing kpt #:   146  of   234
     total cpu time spent up to now is       11.0 secs

     Computing kpt #:   147  of   234
     total cpu time spent up to now is       11.1 secs

     Computing kpt #:   148  of   234
     total cpu time spent up to now is       11.2 secs

     Computing kpt #:   149  of   234
     total cpu time spent up to now is       11.2 secs

     Computing kpt #:   150  of   234
     total cpu time spent up to now is       11.3 secs

     Computing kpt #:   151  of   234
     total cpu time spent up to now is       11.4 secs

     Computing kpt #:   152  of   234
     total cpu time spent up to now is       11.5 secs

     Computing kpt #:   153  of   234
     total cpu time spent up to now is       11.5 secs

     Computing kpt #:   154  of   234
     total cpu time spent up to now is       11.6 secs

     Computing kpt #:   155  of   234
     total cpu time spent up to now is       11.6 secs

     Computing kpt #:   156  of   234
     total cpu time spent up to now is       11.7 secs

     Computing kpt #:   157  of   234
     total cpu time spent up to now is       11.7 secs

     Computing kpt #:   158  of   234
     total cpu time spent up to now is       11.8 secs

     Computing kpt #:   159  of   234
     total cpu time spent up to now is       11.9 secs

     Computing kpt #:   160  of   234
     total cpu time spent up to now is       11.9 secs

     Computing kpt #:   161  of   234
     total cpu time spent up to now is       12.0 secs

     Computing kpt #:   162  of   234
     total cpu time spent up to now is       12.0 secs

     Computing kpt #:   163  of   234
     total cpu time spent up to now is       12.1 secs

     Computing kpt #:   164  of   234
     total cpu time spent up to now is       12.2 secs

     Computing kpt #:   165  of   234
     total cpu time spent up to now is       12.3 secs

     Computing kpt #:   166  of   234
     total cpu time spent up to now is       12.4 secs

     Computing kpt #:   167  of   234
     total cpu time spent up to now is       12.4 secs

     Computing kpt #:   168  of   234
     total cpu time spent up to now is       12.5 secs

     Computing kpt #:   169  of   234
     total cpu time spent up to now is       12.5 secs

     Computing kpt #:   170  of   234
     total cpu time spent up to now is       12.6 secs

     Computing kpt #:   171  of   234
     total cpu time spent up to now is       12.6 secs

     Computing kpt #:   172  of   234
     total cpu time spent up to now is       12.7 secs

     Computing kpt #:   173  of   234
     total cpu time spent up to now is       12.8 secs

     Computing kpt #:   174  of   234
     total cpu time spent up to now is       12.8 secs

     Computing kpt #:   175  of   234
     total cpu time spent up to now is       12.9 secs

     Computing kpt #:   176  of   234
     total cpu time spent up to now is       13.0 secs

     Computing kpt #:   177  of   234
     total cpu time spent up to now is       13.0 secs

     Computing kpt #:   178  of   234
     total cpu time spent up to now is       13.1 secs

     Computing kpt #:   179  of   234
     total cpu time spent up to now is       13.2 secs

     Computing kpt #:   180  of   234
     total cpu time spent up to now is       13.2 secs

     Computing kpt #:   181  of   234
     total cpu time spent up to now is       13.3 secs

     Computing kpt #:   182  of   234
     total cpu time spent up to now is       13.3 secs

     Computing kpt #:   183  of   234
     total cpu time spent up to now is       13.4 secs

     Computing kpt #:   184  of   234
     total cpu time spent up to now is       13.5 secs

     Computing kpt #:   185  of   234
     total cpu time spent up to now is       13.5 secs

     Computing kpt #:   186  of   234
     total cpu time spent up to now is       13.6 secs

     Computing kpt #:   187  of   234
     total cpu time spent up to now is       13.6 secs

     Computing kpt #:   188  of   234
     total cpu time spent up to now is       13.7 secs

     Computing kpt #:   189  of   234
     total cpu time spent up to now is       13.8 secs

     Computing kpt #:   190  of   234
     total cpu time spent up to now is       13.8 secs

     Computing kpt #:   191  of   234
     total cpu time spent up to now is       13.9 secs

     Computing kpt #:   192  of   234
     total cpu time spent up to now is       14.0 secs

     Computing kpt #:   193  of   234
     total cpu time spent up to now is       14.0 secs

     Computing kpt #:   194  of   234
     total cpu time spent up to now is       14.1 secs

     Computing kpt #:   195  of   234
     total cpu time spent up to now is       14.2 secs

     Computing kpt #:   196  of   234
     total cpu time spent up to now is       14.2 secs

     Computing kpt #:   197  of   234
     total cpu time spent up to now is       14.3 secs

     Computing kpt #:   198  of   234
     total cpu time spent up to now is       14.4 secs

     Computing kpt #:   199  of   234
     total cpu time spent up to now is       14.5 secs

     Computing kpt #:   200  of   234
     total cpu time spent up to now is       14.6 secs

     Computing kpt #:   201  of   234
     total cpu time spent up to now is       14.6 secs

     Computing kpt #:   202  of   234
     total cpu time spent up to now is       14.7 secs

     Computing kpt #:   203  of   234
     total cpu time spent up to now is       14.8 secs

     Computing kpt #:   204  of   234
     total cpu time spent up to now is       14.8 secs

     Computing kpt #:   205  of   234
     total cpu time spent up to now is       14.9 secs

     Computing kpt #:   206  of   234
     total cpu time spent up to now is       15.0 secs

     Computing kpt #:   207  of   234
     total cpu time spent up to now is       15.0 secs

     Computing kpt #:   208  of   234
     total cpu time spent up to now is       15.1 secs

     Computing kpt #:   209  of   234
     total cpu time spent up to now is       15.2 secs

     Computing kpt #:   210  of   234
     total cpu time spent up to now is       15.3 secs

     Computing kpt #:   211  of   234
     total cpu time spent up to now is       15.4 secs

     Computing kpt #:   212  of   234
     total cpu time spent up to now is       15.4 secs

     Computing kpt #:   213  of   234
     total cpu time spent up to now is       15.5 secs

     Computing kpt #:   214  of   234
     total cpu time spent up to now is       15.6 secs

     Computing kpt #:   215  of   234
     total cpu time spent up to now is       15.7 secs

     Computing kpt #:   216  of   234
     total cpu time spent up to now is       15.8 secs

     Computing kpt #:   217  of   234
     total cpu time spent up to now is       15.8 secs

     Computing kpt #:   218  of   234
     total cpu time spent up to now is       15.9 secs

     Computing kpt #:   219  of   234
     total cpu time spent up to now is       16.0 secs

     Computing kpt #:   220  of   234
     total cpu time spent up to now is       16.1 secs

     Computing kpt #:   221  of   234
     total cpu time spent up to now is       16.1 secs

     Computing kpt #:   222  of   234
     total cpu time spent up to now is       16.2 secs

     Computing kpt #:   223  of   234
     total cpu time spent up to now is       16.3 secs

     Computing kpt #:   224  of   234
     total cpu time spent up to now is       16.4 secs

     Computing kpt #:   225  of   234
     total cpu time spent up to now is       16.5 secs

     Computing kpt #:   226  of   234
     total cpu time spent up to now is       16.6 secs

     Computing kpt #:   227  of   234
     total cpu time spent up to now is       16.7 secs

     Computing kpt #:   228  of   234
     total cpu time spent up to now is       16.7 secs

     Computing kpt #:   229  of   234
     total cpu time spent up to now is       16.8 secs

     Computing kpt #:   230  of   234
     total cpu time spent up to now is       16.9 secs

     Computing kpt #:   231  of   234
     total cpu time spent up to now is       17.0 secs

     Computing kpt #:   232  of   234
     total cpu time spent up to now is       17.1 secs

     Computing kpt #:   233  of   234
     total cpu time spent up to now is       17.2 secs

     Computing kpt #:   234  of   234
     total cpu time spent up to now is       17.3 secs

     ethr =  5.00E-06,  avg # of iterations = 23.8

     total cpu time spent up to now is       17.3 secs

     End of band structure calculation

          k = 0.0000 0.0000 0.0000 (  4101 PWs)   bands (ev):

   -21.2338  -9.3125  -4.7366  -4.7366   1.5684   2.4761   3.0022   4.9298
     5.7757   6.7163

     occupation numbers 
     1.0000   1.0000   1.0000   1.0000   0.0000   0.0000   0.0000   0.0000
     0.0000   0.0000

          k = 0.0000 0.0231 0.0000 (  4101 PWs)   bands (ev):

   -21.2244  -9.3012  -4.7762  -4.7576   1.5812   2.4890   3.0153   4.9426
     5.7882   6.7226

     occupation numbers 
     1.0000   1.0000   1.0000   1.0000   0.0000   0.0000   0.0000   0.0000
     0.0000   0.0000

          k = 0.0000 0.0462 0.0000 (  4114 PWs)   bands (ev):

   -21.1961  -9.2672  -4.8949  -4.8196   1.6198   2.5278   3.0545   4.9812
     5.8257   6.7397

     occupation numbers 
     1.0000   1.0000   1.0000   1.0000   0.0000   0.0000   0.0000   0.0000
     0.0000   0.0000

          k = 0.0000 0.0693 0.0000 (  4120 PWs)   bands (ev):

   -21.1489  -9.2108  -5.0852  -4.9196   1.6840   2.5926   3.1198   5.0454
     5.8882   6.7626

     occupation numbers 
     1.0000   1.0000   1.0000   1.0000   0.0000   0.0000   0.0000   0.0000
     0.0000   0.0000

          k = 0.0000 0.0924 0.0000 (  4122 PWs)   bands (ev):

   -21.0829  -9.1316  -5.3430  -5.0528   1.7739   2.6832   3.2113   5.1353
     5.9754   6.7855

     occupation numbers 
     1.0000   1.0000   1.0000   1.0000   0.0000   0.0000   0.0000   0.0000
     0.0000   0.0000

          k = 0.0000 0.1155 0.0000 (  4122 PWs)   bands (ev):

   -20.9980  -9.0301  -5.6596  -5.2136   1.8895   2.7996   3.3289   5.2508
     6.0870   6.8027

     occupation numbers 
     1.0000   1.0000   1.0000   1.0000   0.0000   0.0000   0.0000   0.0000
     0.0000   0.0000

          k = 0.0000 0.1386 0.0000 (  4132 PWs)   bands (ev):

   -20.8945  -8.9064  -6.0267  -5.3964   2.0308   2.9417   3.4726   5.3918
     6.2217   6.8081

     occupation numbers 
     1.0000   1.0000   1.0000   1.0000   0.0000   0.0000   0.0000   0.0000
     0.0000   0.0000

          k = 0.0000 0.1617 0.0000 (  4122 PWs)   bands (ev):

   -20.7721  -8.7602  -6.4366  -5.5950   2.1977   3.1097   3.6425   5.5582
     6.3750   6.8064

     occupation numbers 
     1.0000   1.0000   1.0000   1.0000   0.0000   0.0000   0.0000   0.0000
     0.0000   0.0000

          k = 0.0000 0.1848 0.0000 (  4122 PWs)   bands (ev):

   -20.6312  -8.5927  -6.8807  -5.8042   2.3903   3.3032   3.8385   5.7495
     6.5284   6.8126

     occupation numbers 
     1.0000   1.0000   1.0000   1.0000   0.0000   0.0000   0.0000   0.0000
     0.0000   0.0000

          k = 0.0000 0.2078 0.0000 (  4128 PWs)   bands (ev):

   -20.4719  -8.4036  -7.3531  -6.0190   2.6085   3.5220   4.0605   5.9646
     6.6080   6.9023

     occupation numbers 
     1.0000   1.0000   1.0000   1.0000   0.0000   0.0000   0.0000   0.0000
     0.0000   0.0000

          k = 0.0000 0.2309 0.0000 (  4124 PWs)   bands (ev):

   -20.2940  -8.1935  -7.8467  -6.2353   2.8523   3.7659   4.3087   6.1985
     6.5888   6.9104

     occupation numbers 
     1.0000   1.0000   1.0000   1.0000   0.0000   0.0000   0.0000   0.0000
     0.0000   0.0000

          k = 0.0000 0.2540 0.0000 (  4132 PWs)   bands (ev):

   -20.0979  -8.3562  -7.9633  -6.4496   3.1215   4.0339   4.5828   6.3100
     6.5324   6.5623

     occupation numbers 
     1.0000   1.0000   1.0000   1.0000   0.0000   0.0000   0.0000   0.0000
[...]
     0.0000   0.0000

          k = 0.1600 0.4619 0.0000 (  4136 PWs)   bands (ev):

   -17.1344 -12.7651  -9.5679  -4.6618   1.2359   7.2781   8.1223   8.2691
     8.8592  10.3399

     occupation numbers 
     1.0000   1.0000   1.0000   1.0000   0.0000   0.0000   0.0000   0.0000
     0.0000   0.0000

          k = 0.1600 0.4850 0.0000 (  4136 PWs)   bands (ev):

   -16.7820 -13.2210  -9.6634  -4.3244   0.8062   7.7806   8.2397   8.5957
     9.3886  10.6955

     occupation numbers 
     1.0000   1.0000   1.0000   1.0000   0.0000   0.0000   0.0000   0.0000
     0.0000   0.0000

          k = 0.1600 0.5081 0.0000 (  4126 PWs)   bands (ev):

   -16.4233 -13.6618  -9.7372  -4.0103   0.4206   8.1426   8.3777   9.0647
     9.9450  10.9701

     occupation numbers 
     1.0000   1.0000   1.0000   1.0000   0.0000   0.0000   0.0000   0.0000
     0.0000   0.0000

          k = 0.1600 0.5312 0.0000 (  4134 PWs)   bands (ev):

   -16.0696 -14.0751  -9.7899  -3.7441   0.1016   8.1490   8.8983   9.5029
    10.5252  11.1267

     occupation numbers 
     1.0000   1.0000   1.0000   1.0000   0.0000   0.0000   0.0000   0.0000
     0.0000   0.0000

          k = 0.1600 0.5543 0.0000 (  4134 PWs)   bands (ev):

   -15.7567 -14.4241  -9.8213  -3.5591  -0.1151   8.1379   9.4605   9.8513
    10.6391  11.1750

     occupation numbers 
     1.0000   1.0000   1.0000   1.0000   0.0000   0.0000   0.0000   0.0000
     0.0000   0.0000

          k = 0.1600 0.5774 0.0000 (  4124 PWs)   bands (ev):

   -15.6060 -14.5866  -9.8316  -3.4915  -0.1929   8.1336   9.9559   9.9955
    10.1413  11.1750

     occupation numbers 
     1.0000   1.0000   1.0000   1.0000   0.0000   0.0000   0.0000   0.0000
     0.0000   0.0000

          k = 0.1800 0.3118 0.0000 (  4108 PWs)   bands (ev):

   -18.9707  -9.9603  -8.5463  -6.6523   4.1133   4.6849   5.5912   6.1779
     8.0004   8.6336

     occupation numbers 
     1.0000   1.0000   1.0000   1.0000   0.0000   0.0000   0.0000   0.0000
     0.0000   0.0000

          k = 0.1800 0.3349 0.0000 (  4116 PWs)   bands (ev):

   -18.7149 -10.3302  -8.8471  -6.3606   3.6627   5.0422   5.9435   6.5434
     8.3411   8.8487

     occupation numbers 
     1.0000   1.0000   1.0000   1.0000   0.0000   0.0000   0.0000   0.0000
     0.0000   0.0000

          k = 0.1800 0.3580 0.0000 (  4128 PWs)   bands (ev):

   -18.4423 -10.7273  -9.1138  -6.0529   3.2037   5.4243   6.3188   6.9348
     8.7006   8.9424

     occupation numbers 
     1.0000   1.0000   1.0000   1.0000   0.0000   0.0000   0.0000   0.0000
     0.0000   0.0000

          k = 0.1800 0.3811 0.0000 (  4120 PWs)   bands (ev):

   -18.1534 -11.1468  -9.3449  -5.7307   2.7406   5.8308   6.7160   7.3518
     8.9514   9.0757

     occupation numbers 
     1.0000   1.0000   1.0000   1.0000   0.0000   0.0000   0.0000   0.0000
     0.0000   0.0000

          k = 0.1800 0.4041 0.0000 (  4119 PWs)   bands (ev):

   -17.8487 -11.5834  -9.5428  -5.3964   2.2759   6.2615   7.1331   7.7941
     8.9215   9.4610

     occupation numbers 
     1.0000   1.0000   1.0000   1.0000   0.0000   0.0000   0.0000   0.0000
     0.0000   0.0000

          k = 0.1800 0.4272 0.0000 (  4127 PWs)   bands (ev):

   -17.5290 -12.0305  -9.7106  -5.0530   1.8147   6.7158   7.5676   8.2602
     8.8784   9.8470

     occupation numbers 
     1.0000   1.0000   1.0000   1.0000   0.0000   0.0000   0.0000   0.0000
     0.0000   0.0000

          k = 0.1800 0.4503 0.0000 (  4123 PWs)   bands (ev):

   -17.1952 -12.4808  -9.8504  -4.7056   1.3632   7.1928   8.0150   8.7229
     8.8617  10.2174

     occupation numbers 
     1.0000   1.0000   1.0000   1.0000   0.0000   0.0000   0.0000   0.0000
     0.0000   0.0000

          k = 0.1800 0.4734 0.0000 (  4126 PWs)   bands (ev):

   -16.8493 -12.9292  -9.9649  -4.3608   0.9292   7.6910   8.4675   8.7720
     9.2883  10.5463

     occupation numbers 
     1.0000   1.0000   1.0000   1.0000   0.0000   0.0000   0.0000   0.0000
     0.0000   0.0000

          k = 0.1800 0.4965 0.0000 (  4122 PWs)   bands (ev):

   -16.4947 -13.3691 -10.0550  -4.0301   0.5266   8.2049   8.7439   8.9108
     9.8289  10.8073

     occupation numbers 
     1.0000   1.0000   1.0000   1.0000   0.0000   0.0000   0.0000   0.0000
     0.0000   0.0000

          k = 0.1800 0.5196 0.0000 (  4126 PWs)   bands (ev):

   -16.1381 -13.7913 -10.1222  -3.7326   0.1735   8.6344   8.8249   9.3174
    10.3962  11.0028

     occupation numbers 
     1.0000   1.0000   1.0000   1.0000   0.0000   0.0000   0.0000   0.0000
     0.0000   0.0000

          k = 0.1800 0.5427 0.0000 (  4128 PWs)   bands (ev):

   -15.7990 -14.1750 -10.1664  -3.4972  -0.0994   8.6641   9.3303   9.6403
    10.9650  11.0700

     occupation numbers 
     1.0000   1.0000   1.0000   1.0000   0.0000   0.0000   0.0000   0.0000
     0.0000   0.0000

          k = 0.1800 0.5658 0.0000 (  4126 PWs)   bands (ev):

   -15.5447 -14.4517 -10.1885  -3.3631  -0.2521   8.6582   9.8204   9.8845
    10.4908  11.3148

     occupation numbers 
     1.0000   1.0000   1.0000   1.0000   0.0000   0.0000   0.0000   0.0000
     0.0000   0.0000

          k = 0.2000 0.3464 0.0000 (  4136 PWs)   bands (ev):

   -18.4515 -10.6584  -9.1764  -6.0624   3.2293   5.4116   6.3043   6.9219
     8.6860   9.1783

     occupation numbers 
     1.0000   1.0000   1.0000   1.0000   0.0000   0.0000   0.0000   0.0000
     0.0000   0.0000

          k = 0.2000 0.3695 0.0000 (  4134 PWs)   bands (ev):

   -18.1717 -11.0132  -9.4697  -5.7487   2.7896   5.8056   6.6867   7.3261
     9.0456   9.3809

     occupation numbers 
     1.0000   1.0000   1.0000   1.0000   0.0000   0.0000   0.0000   0.0000
     0.0000   0.0000

          k = 0.2000 0.3926 0.0000 (  4136 PWs)   bands (ev):

   -17.8758 -11.3961  -9.7224  -5.4215   2.3456   6.2237   7.0886   7.7559
     9.4137   9.4441

     occupation numbers 
     1.0000   1.0000   1.0000   1.0000   0.0000   0.0000   0.0000   0.0000
     0.0000   0.0000

          k = 0.2000 0.4157 0.0000 (  4122 PWs)   bands (ev):

   -17.5644 -11.8018  -9.9345  -5.0831   1.9013   6.6657   7.5068   8.2110
     9.4331   9.7797

     occupation numbers 
     1.0000   1.0000   1.0000   1.0000   0.0000   0.0000   0.0000   0.0000
     0.0000   0.0000

          k = 0.2000 0.4388 0.0000 (  4114 PWs)   bands (ev):

   -17.2388 -12.2231 -10.1097  -4.7373   1.4607   7.1307   7.9362   8.6902
     9.3962  10.1260

     occupation numbers 
     1.0000   1.0000   1.0000   1.0000   0.0000   0.0000   0.0000   0.0000
     0.0000   0.0000

          k = 0.2000 0.4619 0.0000 (  4118 PWs)   bands (ev):

   -16.9002 -12.6525 -10.2521  -4.3897   1.0307   7.6177   8.3675   9.1795
     9.3683  10.4278

     occupation numbers 
     1.0000   1.0000   1.0000   1.0000   0.0000   0.0000   0.0000   0.0000
     0.0000   0.0000

          k = 0.2000 0.4850 0.0000 (  4121 PWs)   bands (ev):

   -16.5513 -13.0818 -10.3652  -4.0483   0.6206   8.1249   8.7842   9.2950
     9.7426  10.6691

     occupation numbers 
     1.0000   1.0000   1.0000   1.0000   0.0000   0.0000   0.0000   0.0000
     0.0000   0.0000

          k = 0.2000 0.5081 0.0000 (  4120 PWs)   bands (ev):

   -16.1963 -13.5029 -10.4509  -3.7277   0.2453   8.6475   9.1574   9.2692
    10.2934  10.8736

     occupation numbers 
     1.0000   1.0000   1.0000   1.0000   0.0000   0.0000   0.0000   0.0000
     0.0000   0.0000

          k = 0.2000 0.5312 0.0000 (  4116 PWs)   bands (ev):

   -15.8467 -13.9015 -10.5110  -3.4510  -0.0706   9.1268   9.3080   9.4464
    10.8691  11.0989

     occupation numbers 
     1.0000   1.0000   1.0000   1.0000   0.0000   0.0000   0.0000   0.0000
     0.0000   0.0000

          k = 0.2000 0.5543 0.0000 (  4120 PWs)   bands (ev):

   -15.5372 -14.2412 -10.5470  -3.2549  -0.2910   9.1973   9.6194   9.7740
    10.8998  11.3645

     occupation numbers 
     1.0000   1.0000   1.0000   1.0000   0.0000   0.0000   0.0000   0.0000
     0.0000   0.0000

          k = 0.2000 0.5774 0.0000 (  4112 PWs)   bands (ev):

   -15.3879 -14.4004 -10.5588  -3.1821  -0.3719   9.1968   9.6749  10.2319
    10.4502  11.5253

     occupation numbers 
     1.0000   1.0000   1.0000   1.0000   0.0000   0.0000   0.0000   0.0000
     0.0000   0.0000

          k = 0.2200 0.3811 0.0000 (  4126 PWs)   bands (ev):

   -17.8847 -11.3228  -9.7930  -5.4297   2.3698   6.2112   7.0736   7.7431
     9.3977   9.7443

     occupation numbers 
     1.0000   1.0000   1.0000   1.0000   0.0000   0.0000   0.0000   0.0000
     0.0000   0.0000

          k = 0.2200 0.4041 0.0000 (  4126 PWs)   bands (ev):

   -17.5822 -11.6611 -10.0737  -5.0981   1.9461   6.6406   7.4760   8.1856
     9.7454   9.9268

     occupation numbers 
     1.0000   1.0000   1.0000   1.0000   0.0000   0.0000   0.0000   0.0000
     0.0000   0.0000

          k = 0.2200 0.4272 0.0000 (  4119 PWs)   bands (ev):

   -17.2650 -12.0274 -10.3076  -4.7567   1.5221   7.0932   7.8879   8.6533
     9.9523  10.0695

     occupation numbers 
     1.0000   1.0000   1.0000   1.0000   0.0000   0.0000   0.0000   0.0000
     0.0000   0.0000

          k = 0.2200 0.4503 0.0000 (  4115 PWs)   bands (ev):

   -16.9343 -12.4164 -10.4968  -4.4095   1.1026   7.5681   8.2986   9.1450
     9.9228  10.3454

     occupation numbers 
     1.0000   1.0000   1.0000   1.0000   0.0000   0.0000   0.0000   0.0000
     0.0000   0.0000

          k = 0.2200 0.4734 0.0000 (  4111 PWs)   bands (ev):

   -16.5922 -12.8189 -10.6460  -4.0628   0.6945   8.0639   8.6893   9.6513
     9.8919  10.5647

     occupation numbers 
     1.0000   1.0000   1.0000   1.0000   0.0000   0.0000   0.0000   0.0000
     0.0000   0.0000

          k = 0.2200 0.4965 0.0000 (  4108 PWs)   bands (ev):

   -16.2416 -13.2251 -10.7602  -3.7265   0.3088   8.5783   9.0291   9.8244
    10.2214  10.7658

     occupation numbers 
     1.0000   1.0000   1.0000   1.0000   0.0000   0.0000   0.0000   0.0000
     0.0000   0.0000

          k = 0.2200 0.5196 0.0000 (  4116 PWs)   bands (ev):

   -15.8896 -13.6234 -10.8428  -3.4185  -0.0376   9.1056   9.2815   9.8008
    10.7807  11.0143

     occupation numbers 
     1.0000   1.0000   1.0000   1.0000   0.0000   0.0000   0.0000   0.0000
     0.0000   0.0000

          k = 0.2200 0.5427 0.0000 (  4116 PWs)   bands (ev):

   -15.5546 -13.9907 -10.8966  -3.1686  -0.3134   9.4314   9.6079   9.8185
    11.2564  11.3398

     occupation numbers 
     1.0000   1.0000   1.0000   1.0000   0.0000   0.0000   0.0000   0.0000
     0.0000   0.0000

          k = 0.2200 0.5658 0.0000 (  4116 PWs)   bands (ev):

   -15.3024 -14.2599 -10.9229  -3.0221  -0.4728   9.4961   9.7323  10.2140
    10.7996  11.6643

     occupation numbers 
     1.0000   1.0000   1.0000   1.0000   0.0000   0.0000   0.0000   0.0000
     0.0000   0.0000

          k = 0.2400 0.4157 0.0000 (  4110 PWs)   bands (ev):

   -17.2737 -11.9504 -10.3854  -4.7631   1.5433   7.0807   7.8716   8.6407
    10.0504  10.3225

     occupation numbers 
     1.0000   1.0000   1.0000   1.0000   0.0000   0.0000   0.0000   0.0000
     0.0000   0.0000

          k = 0.2400 0.4388 0.0000 (  4114 PWs)   bands (ev):

   -16.9514 -12.2699 -10.6482  -4.4197   1.1402   7.5432   8.2634   9.1206
    10.3031  10.4598

     occupation numbers 
     1.0000   1.0000   1.0000   1.0000   0.0000   0.0000   0.0000   0.0000
     0.0000   0.0000

          k = 0.2400 0.4619 0.0000 (  4111 PWs)   bands (ev):

   -16.6169 -12.6176 -10.8591  -4.0719   0.7420   8.0268   8.6303   9.6242
    10.4420  10.5000

     occupation numbers 
     1.0000   1.0000   1.0000   1.0000   0.0000   0.0000   0.0000   0.0000
     0.0000   0.0000

          k = 0.2400 0.4850 0.0000 (  4102 PWs)   bands (ev):

   -16.2724 -12.9861 -11.0210  -3.7270   0.3554   8.5297   8.9390  10.1428
    10.4090  10.6894

     occupation numbers 
     1.0000   1.0000   1.0000   1.0000   0.0000   0.0000   0.0000   0.0000
     0.0000   0.0000

          k = 0.2400 0.5081 0.0000 (  4107 PWs)   bands (ev):

   -15.9226 -13.3636 -11.1399  -3.3974  -0.0073   9.0482   9.1558  10.3409
    10.7223  10.9438

     occupation numbers 
     1.0000   1.0000   1.0000   1.0000   0.0000   0.0000   0.0000   0.0000
     0.0000   0.0000

          k = 0.2400 0.5312 0.0000 (  4113 PWs)   bands (ev):

   -15.5779 -13.7329 -11.2210  -3.1047  -0.3239   9.2764   9.5749  10.3184
    11.2809  11.5939

     occupation numbers 
     1.0000   1.0000   1.0000   1.0000   0.0000   0.0000   0.0000   0.0000
     0.0000   0.0000

          k = 0.2400 0.5543 0.0000 (  4106 PWs)   bands (ev):

   -15.2713 -14.0558 -11.2681  -2.8886  -0.5539   9.3292  10.0767  10.3249
    11.1893  11.6973

     occupation numbers 
     1.0000   1.0000   1.0000   1.0000   0.0000   0.0000   0.0000   0.0000
     0.0000   0.0000

          k = 0.2400 0.5774 0.0000 (  4106 PWs)   bands (ev):

   -15.1218 -14.2113 -11.2835  -2.8061  -0.6409   9.3433  10.2439  10.5453
    10.8364  11.9531

     occupation numbers 
     1.0000   1.0000   1.0000   1.0000   0.0000   0.0000   0.0000   0.0000
     0.0000   0.0000

          k = 0.2600 0.4503 0.0000 (  4106 PWs)   bands (ev):

   -16.6251 -12.5378 -10.9428  -4.0750   0.7581   8.0144   8.6103   9.6123
    10.4781  10.8863

     occupation numbers 
     1.0000   1.0000   1.0000   1.0000   0.0000   0.0000   0.0000   0.0000
     0.0000   0.0000

          k = 0.2600 0.4734 0.0000 (  4105 PWs)   bands (ev):

   -16.2881 -12.8362 -11.1818  -3.7278   0.3806   8.5050   8.8925  10.1268
    10.6504  10.9267

     occupation numbers 
     1.0000   1.0000   1.0000   1.0000   0.0000   0.0000   0.0000   0.0000
     0.0000   0.0000

          k = 0.2600 0.4965 0.0000 (  4100 PWs)   bands (ev):

   -15.9433 -13.1625 -11.3634  -3.3854   0.0139   9.0120   9.0769  10.6528
    10.8877  10.8985

     occupation numbers 
     1.0000   1.0000   1.0000   1.0000   0.0000   0.0000   0.0000   0.0000
     0.0000   0.0000

          k = 0.2600 0.5196 0.0000 (  4097 PWs)   bands (ev):

   -15.5970 -13.5036 -11.4917  -3.0623  -0.3270   9.1665   9.5297  10.8147
    11.2366  11.2524

     occupation numbers 
     1.0000   1.0000   1.0000   1.0000   0.0000   0.0000   0.0000   0.0000
     0.0000   0.0000

          k = 0.2600 0.5427 0.0000 (  4101 PWs)   bands (ev):

   -15.2665 -13.8358 -11.5731  -2.7879  -0.6138   9.1976  10.0463  10.7871
    11.4952  11.6838

     occupation numbers 
     1.0000   1.0000   1.0000   1.0000   0.0000   0.0000   0.0000   0.0000
     0.0000   0.0000

          k = 0.2600 0.5658 0.0000 (  4099 PWs)   bands (ev):

   -15.0133 -14.0913 -11.6124  -2.6171  -0.7904   9.2045  10.5220  10.7557
    11.1809  12.1038

     occupation numbers 
     1.0000   1.0000   1.0000   1.0000   0.0000   0.0000   0.0000   0.0000
     0.0000   0.0000

          k = 0.2800 0.4850 0.0000 (  4092 PWs)   bands (ev):

   -15.9502 -13.0821 -11.4510  -3.3815   0.0216   8.9998   9.0500  10.6505
    10.8830  11.2725

     occupation numbers 
     1.0000   1.0000   1.0000   1.0000   0.0000   0.0000   0.0000   0.0000
     0.0000   0.0000

          k = 0.2800 0.5081 0.0000 (  4096 PWs)   bands (ev):

   -15.6075 -13.3585 -11.6573  -3.0418  -0.3276   9.1096   9.5061  11.1642
    11.2663  11.6457

     occupation numbers 
     1.0000   1.0000   1.0000   1.0000   0.0000   0.0000   0.0000   0.0000
     0.0000   0.0000

          k = 0.2800 0.5312 0.0000 (  4090 PWs)   bands (ev):

   -15.2692 -13.6555 -11.7992  -2.7250  -0.6504   9.1141  10.0141  11.1820
    11.6258  11.6663

     occupation numbers 
     1.0000   1.0000   1.0000   1.0000   0.0000   0.0000   0.0000   0.0000
     0.0000   0.0000

          k = 0.2800 0.5543 0.0000 (  4104 PWs)   bands (ev):

   -14.9638 -13.9403 -11.8813  -2.4713  -0.9083   9.1025  10.5020  11.1206
    11.5295  12.1408

     occupation numbers 
     1.0000   1.0000   1.0000   1.0000   0.0000   0.0000   0.0000   0.0000
     0.0000   0.0000

          k = 0.2800 0.5774 0.0000 (  4110 PWs)   bands (ev):

   -14.8076 -14.0904 -11.9079  -2.3650  -1.0161   9.0965  10.8685  10.9645
    11.4050  12.4578

     occupation numbers 
     1.0000   1.0000   1.0000   1.0000   0.0000   0.0000   0.0000   0.0000
     0.0000   0.0000

          k = 0.3000 0.5196 0.0000 (  4096 PWs)   bands (ev):

   -15.2710 -13.5828 -11.8870  -2.7036  -0.6631   9.0855  10.0028  11.3680
    11.6213  11.6586

     occupation numbers 
     1.0000   1.0000   1.0000   1.0000   0.0000   0.0000   0.0000   0.0000
     0.0000   0.0000

          k = 0.3000 0.5427 0.0000 (  4114 PWs)   bands (ev):

   -14.9467 -13.8319 -12.0417  -2.3890  -0.9757   9.0490  10.4834  11.3395
    11.7400  12.1445

     occupation numbers 
     1.0000   1.0000   1.0000   1.0000   0.0000   0.0000   0.0000   0.0000
     0.0000   0.0000

          k = 0.3000 0.5658 0.0000 (  4114 PWs)   bands (ev):

   -14.6826 -14.0588 -12.1184  -2.1575  -1.2060   9.0254  10.9023  11.2253
    11.6910  12.6211

     occupation numbers 
     1.0000   1.0000   1.0000   1.0000   0.0000   0.0000   0.0000   0.0000
     0.0000   0.0000

          k = 0.3200 0.5543 0.0000 (  4114 PWs)   bands (ev):

   -14.6431 -14.0379 -12.1969  -2.0660  -1.2914   9.0007  10.8994  11.3333
    11.8097  12.6526

     occupation numbers 
     1.0000   1.0000   1.0000   1.0000   0.0000   0.0000   0.0000   0.0000
     0.0000   0.0000

          k = 0.3200 0.5774 0.0000 (  4116 PWs)   bands (ev):

   -14.4463 -14.2006 -12.2503  -1.8594  -1.4957   8.9832  11.1527  11.2492
    11.8061  13.0394

     occupation numbers 
     1.0000   1.0000   1.0000   1.0003   0.0003   0.0000   0.0000   0.0000
     0.0000   0.0000

     the Fermi energy is    -1.6332 ev
     (compare with:    -1.6562 eV, computed in scf)

     Writing all to output data dir ./tmp/graphene_PBE.save/

     init_run     :      0.32s CPU      0.33s WALL (       1 calls)
     electrons    :     15.49s CPU     16.89s WALL (       1 calls)

     Called by init_run:
     wfcinit      :      0.00s CPU      0.00s WALL (       1 calls)
     wfcinit:atom :      0.02s CPU      0.02s WALL (     234 calls)
     wfcinit:wfcr :      0.76s CPU      0.81s WALL (     234 calls)
     potinit      :      0.01s CPU      0.01s WALL (       1 calls)
     hinit0       :      0.29s CPU      0.29s WALL (       1 calls)

     Called by electrons:
     c_bands      :     15.48s CPU     16.88s WALL (       1 calls)
     v_of_rho     :      0.01s CPU      0.01s WALL (       1 calls)
     v_h          :      0.00s CPU      0.00s WALL (       1 calls)
     v_xc         :      0.01s CPU      0.01s WALL (       1 calls)

     Called by c_bands:
     init_us_2    :      0.02s CPU      0.02s WALL (     234 calls)
     init_us_2:cp :      0.02s CPU      0.02s WALL (     234 calls)
     cegterg      :     14.60s CPU     15.92s WALL (     391 calls)

     Called by sum_band:

     Called by *egterg:
     cdiaghg      :      0.83s CPU      0.85s WALL (    5814 calls)
     cegterg:over :      1.12s CPU      1.15s WALL (    5580 calls)
     cegterg:upda :      0.94s CPU      1.24s WALL (    5580 calls)
     cegterg:last :      1.08s CPU      1.22s WALL (    3261 calls)
     h_psi        :     10.49s CPU     11.16s WALL (    6205 calls)
     g_psi        :      0.11s CPU      0.18s WALL (    5580 calls)

     Called by h_psi:
     h_psi:calbec :      0.49s CPU      0.51s WALL (    6205 calls)
     vloc_psi     :      9.37s CPU      9.72s WALL (    6205 calls)
     add_vuspsi   :      0.55s CPU      0.82s WALL (    6205 calls)

     General routines
     calbec       :      0.48s CPU      0.49s WALL (    6205 calls)
     fft          :      0.27s CPU      0.28s WALL (      11 calls)
     fftw         :      8.51s CPU      8.77s WALL (   66912 calls)
     davcio       :      0.00s CPU      0.03s WALL (     468 calls)

     Parallel routines

     PWSCF        :     16.24s CPU     17.84s WALL


   This run was terminated on:  21:59:31   3Apr2024            

=------------------------------------------------------------------------------=
   JOB DONE.
=------------------------------------------------------------------------------=
