
     Program PWSCF v.6.7MaX starts on 15Feb2024 at 10:47:19 

     This program is part of the open-source Quantum ESPRESSO suite
     for quantum simulation of materials; please cite
         "P. Giannozzi et al., J. Phys.:Condens. Matter 21 395502 (2009);
         "P. Giannozzi et al., J. Phys.:Condens. Matter 29 465901 (2017);
          URL http://www.quantum-espresso.org", 
     in publications or presentations arising from this work. More details at
     http://www.quantum-espresso.org/quote

     Parallel version (MPI), running on     1 processors

     MPI processes distributed on     1 nodes
     Waiting for input...
     Reading input from standard input

     Current dimensions of program PWSCF are:
     Max number of different atomic species (ntypx) = 10
     Max number of k-points (npk) =  40000
     Max angular momentum in pseudopotentials (lmaxx) =  3
     Message from routine read_pp_mesh:
     mesh size missing, using the one in header

     Subspace diagonalization in iterative solution of the eigenvalue problem:
     a serial algorithm will be used


     G-vector sticks info
     --------------------
     sticks:   dense  smooth     PW     G-vecs:    dense   smooth      PW
     Sum         361     361    109                32201    32201    5621



     bravais-lattice index     =            4
     lattice parameter (alat)  =       4.6203  a.u.
     unit-cell volume          =     512.4983 (a.u.)^3
     number of atoms/cell      =            4
     number of atomic types    =            1
     number of electrons       =        16.00
     number of Kohn-Sham states=            8
     kinetic-energy cutoff     =      60.0000  Ry
     charge density cutoff     =     240.0000  Ry
     scf convergence threshold =      1.0E-06
     mixing beta               =       0.7000
     number of iterations used =            8  plain     mixing
     Exchange-correlation= PBE
                           (   1   4   3   4   0   0   0)

     celldm(1)=   4.620300  celldm(2)=   0.000000  celldm(3)=   6.000000
     celldm(4)=   0.000000  celldm(5)=   0.000000  celldm(6)=   0.000000

     crystal axes: (cart. coord. in units of alat)
               a(1) = (   1.000000   0.000000   0.000000 )  
               a(2) = (  -0.500000   0.866025   0.000000 )  
               a(3) = (   0.000000   0.000000   6.000000 )  

     reciprocal axes: (cart. coord. in units 2 pi/alat)
               b(1) = (  1.000000  0.577350 -0.000000 )  
               b(2) = (  0.000000  1.154701  0.000000 )  
               b(3) = (  0.000000 -0.000000  0.166667 )  


     PseudoPot. # 1 for C  read from file:
     ../../../Pseudo/PBE/C.upf
     MD5 check sum: 34a24e64c0a39f27c6c36b90a16ac686
     Pseudo is Norm-conserving + core correction, Zval =  4.0
     Generated using ONCVPSP code by D. R. Hamann
     Using radial grid of 1248 points,  4 beta functions with: 
                l(1) =   0
                l(2) =   0
                l(3) =   1
                l(4) =   1

     atomic species   valence    mass     pseudopotential
        C              4.00    12.01100     C ( 1.00)

     12 Sym. Ops. (no inversion) found ( 6 have fractional translation)


                                    s                        frac. trans.

      isym =  1     identity                                     

 cryst.   s( 1) = (     1          0          0      )
                  (     0          1          0      )
                  (     0          0          1      )

 cart.    s( 1) = (  1.0000000  0.0000000  0.0000000 )
                  (  0.0000000  1.0000000  0.0000000 )
                  (  0.0000000  0.0000000  1.0000000 )


      isym =  2     180 deg rotation - cart. axis [0,0,1]        

 cryst.   s( 2) = (    -1          0          0      )    f =( -0.3333333 )
                  (     0         -1          0      )       (  0.3333333 )
                  (     0          0          1      )       (  0.0000000 )

 cart.    s( 2) = ( -1.0000000  0.0000000  0.0000000 )    f =( -0.5000000 )
                  (  0.0000000 -1.0000000  0.0000000 )       (  0.2886751 )
                  (  0.0000000  0.0000000  1.0000000 )       (  0.0000000 )


      isym =  3      60 deg rotation - cryst. axis [0,0,1]       

 cryst.   s( 3) = (     1          1          0      )    f =( -0.3333333 )
                  (    -1          0          0      )       (  0.3333333 )
                  (     0          0          1      )       (  0.0000000 )

 cart.    s( 3) = (  0.5000000 -0.8660254  0.0000000 )    f =( -0.5000000 )
                  (  0.8660254  0.5000000  0.0000000 )       (  0.2886751 )
                  (  0.0000000  0.0000000  1.0000000 )       (  0.0000000 )


      isym =  4      60 deg rotation - cryst. axis [0,0,-1]      

 cryst.   s( 4) = (     0         -1          0      )    f =( -0.3333333 )
                  (     1          1          0      )       (  0.3333333 )
                  (     0          0          1      )       (  0.0000000 )

 cart.    s( 4) = (  0.5000000  0.8660254  0.0000000 )    f =( -0.5000000 )
                  ( -0.8660254  0.5000000  0.0000000 )       (  0.2886751 )
                  (  0.0000000  0.0000000  1.0000000 )       (  0.0000000 )


      isym =  5     120 deg rotation - cryst. axis [0,0,1]       

 cryst.   s( 5) = (     0          1          0      )
                  (    -1         -1          0      )
                  (     0          0          1      )

 cart.    s( 5) = ( -0.5000000 -0.8660254  0.0000000 )
                  (  0.8660254 -0.5000000  0.0000000 )
                  (  0.0000000  0.0000000  1.0000000 )


      isym =  6     120 deg rotation - cryst. axis [0,0,-1]      

 cryst.   s( 6) = (    -1         -1          0      )
                  (     1          0          0      )
                  (     0          0          1      )

 cart.    s( 6) = ( -0.5000000  0.8660254  0.0000000 )
                  ( -0.8660254 -0.5000000  0.0000000 )
                  (  0.0000000  0.0000000  1.0000000 )


      isym =  7     inv. 180 deg rotation - cart. axis [0,1,0]   

 cryst.   s( 7) = (     1          0          0      )    f =( -0.3333333 )
                  (    -1         -1          0      )       (  0.3333333 )
                  (     0          0          1      )       (  0.0000000 )

 cart.    s( 7) = (  1.0000000  0.0000000  0.0000000 )    f =( -0.5000000 )
                  (  0.0000000 -1.0000000  0.0000000 )       (  0.2886751 )
                  (  0.0000000  0.0000000  1.0000000 )       (  0.0000000 )


      isym =  8     inv. 180 deg rotation - cart. axis [1,0,0]   

 cryst.   s( 8) = (    -1          0          0      )
                  (     1          1          0      )
                  (     0          0          1      )

 cart.    s( 8) = ( -1.0000000  0.0000000  0.0000000 )
                  (  0.0000000  1.0000000  0.0000000 )
                  (  0.0000000  0.0000000  1.0000000 )


      isym =  9     inv. 180 deg rotation - cryst. axis [1,-1,0] 

 cryst.   s( 9) = (     0          1          0      )    f =( -0.3333333 )
                  (     1          0          0      )       (  0.3333333 )
                  (     0          0          1      )       (  0.0000000 )

 cart.    s( 9) = ( -0.5000000  0.8660254  0.0000000 )    f =( -0.5000000 )
                  (  0.8660254  0.5000000  0.0000000 )       (  0.2886751 )
                  (  0.0000000  0.0000000  1.0000000 )       (  0.0000000 )


      isym = 10     inv. 180 deg rotation - cryst. axis [2,1,0]  

 cryst.   s(10) = (    -1         -1          0      )    f =( -0.3333333 )
                  (     0          1          0      )       (  0.3333333 )
                  (     0          0          1      )       (  0.0000000 )

 cart.    s(10) = ( -0.5000000 -0.8660254  0.0000000 )    f =( -0.5000000 )
                  ( -0.8660254  0.5000000  0.0000000 )       (  0.2886751 )
                  (  0.0000000  0.0000000  1.0000000 )       (  0.0000000 )


      isym = 11     inv. 180 deg rotation - cryst. axis [0,1,0]  

 cryst.   s(11) = (     1          1          0      )
                  (     0         -1          0      )
                  (     0          0          1      )

 cart.    s(11) = (  0.5000000  0.8660254  0.0000000 )
                  (  0.8660254 -0.5000000  0.0000000 )
                  (  0.0000000  0.0000000  1.0000000 )


      isym = 12     inv. 180 deg rotation - cryst. axis [1,1,0]  

 cryst.   s(12) = (     0         -1          0      )
                  (    -1          0          0      )
                  (     0          0          1      )

 cart.    s(12) = (  0.5000000 -0.8660254  0.0000000 )
                  ( -0.8660254 -0.5000000  0.0000000 )
                  (  0.0000000  0.0000000  1.0000000 )


     point group C_6v (6mm) 
     there are  6 classes
     the character table:

       E     2C6   2C3   C2    3s_v  3s_d 
A_1    1.00  1.00  1.00  1.00  1.00  1.00
A_2    1.00  1.00  1.00  1.00 -1.00 -1.00
B_1    1.00 -1.00  1.00 -1.00  1.00 -1.00
B_2    1.00 -1.00  1.00 -1.00 -1.00  1.00
E_1    2.00  1.00 -1.00 -2.00  0.00  0.00
E_2    2.00 -1.00 -1.00  2.00  0.00  0.00

     the symmetry operations in each class and the name of the first element:

     E        1
          identity                                               
     2C6      3    4
           60 deg rotation - cryst. axis [0,0,1]                 
     2C3      5    6
          120 deg rotation - cryst. axis [0,0,1]                 
     C2       2
          180 deg rotation - cart. axis [0,0,1]                  
     3s_v     8   12   11
          inv. 180 deg rotation - cart. axis [1,0,0]             
     3s_d     7    9   10
          inv. 180 deg rotation - cart. axis [0,1,0]             

   Cartesian axes

     site n.     atom                  positions (alat units)
         1           C   tau(   1) = (   0.0000000   0.0000000   0.0000000  )
         2           C   tau(   2) = (  -0.0000000   0.5773503   0.0000000  )
         3           C   tau(   3) = (   0.0000000   0.0000000   1.3200000  )
         4           C   tau(   4) = (  -0.0000000   0.5773503   1.3200000  )

   Crystallographic axes

     site n.     atom                  positions (cryst. coord.)
         1           C   tau(   1) = (  0.0000000  0.0000000  0.0000000  )
         2           C   tau(   2) = (  0.3333333  0.6666667  0.0000000  )
         3           C   tau(   3) = (  0.0000000  0.0000000  0.2200000  )
         4           C   tau(   4) = (  0.3333333  0.6666667  0.2200000  )

     number of k points=    19  Marzari-Vanderbilt smearing, width (Ry)=  0.0100
                       cart. coord. in units 2pi/alat
        k(    1) = (   0.0000000   0.0000000   0.0000000), wk =   0.0138889
        k(    2) = (   0.0000000   0.0962250   0.0000000), wk =   0.0833333
        k(    3) = (   0.0000000   0.1924501   0.0000000), wk =   0.0833333
        k(    4) = (   0.0000000   0.2886751   0.0000000), wk =   0.0833333
        k(    5) = (   0.0000000   0.3849002   0.0000000), wk =   0.0833333
        k(    6) = (   0.0000000   0.4811252   0.0000000), wk =   0.0833333
        k(    7) = (   0.0000000  -0.5773503   0.0000000), wk =   0.0416667
        k(    8) = (   0.0833333   0.1443376   0.0000000), wk =   0.0833333
        k(    9) = (   0.0833333   0.2405626   0.0000000), wk =   0.1666667
        k(   10) = (   0.0833333   0.3367877   0.0000000), wk =   0.1666667
        k(   11) = (   0.0833333   0.4330127   0.0000000), wk =   0.1666667
        k(   12) = (   0.0833333   0.5292377   0.0000000), wk =   0.1666667
        k(   13) = (   0.1666667   0.2886751   0.0000000), wk =   0.0833333
        k(   14) = (   0.1666667   0.3849002   0.0000000), wk =   0.1666667
        k(   15) = (   0.1666667   0.4811252   0.0000000), wk =   0.1666667
        k(   16) = (   0.1666667   0.5773503   0.0000000), wk =   0.0833333
        k(   17) = (   0.2500000   0.4330127   0.0000000), wk =   0.0833333
        k(   18) = (   0.2500000   0.5292377   0.0000000), wk =   0.1666667
        k(   19) = (   0.3333333   0.5773503   0.0000000), wk =   0.0277778

                       cryst. coord.
        k(    1) = (   0.0000000   0.0000000   0.0000000), wk =   0.0138889
        k(    2) = (   0.0000000   0.0833333   0.0000000), wk =   0.0833333
        k(    3) = (   0.0000000   0.1666667   0.0000000), wk =   0.0833333
        k(    4) = (   0.0000000   0.2500000   0.0000000), wk =   0.0833333
        k(    5) = (   0.0000000   0.3333333   0.0000000), wk =   0.0833333
        k(    6) = (   0.0000000   0.4166667   0.0000000), wk =   0.0833333
        k(    7) = (   0.0000000  -0.5000000   0.0000000), wk =   0.0416667
        k(    8) = (   0.0833333   0.0833333   0.0000000), wk =   0.0833333
        k(    9) = (   0.0833333   0.1666667   0.0000000), wk =   0.1666667
        k(   10) = (   0.0833333   0.2500000   0.0000000), wk =   0.1666667
        k(   11) = (   0.0833333   0.3333333   0.0000000), wk =   0.1666667
        k(   12) = (   0.0833333   0.4166667   0.0000000), wk =   0.1666667
        k(   13) = (   0.1666667   0.1666667   0.0000000), wk =   0.0833333
        k(   14) = (   0.1666667   0.2500000   0.0000000), wk =   0.1666667
        k(   15) = (   0.1666667   0.3333333   0.0000000), wk =   0.1666667
        k(   16) = (   0.1666667   0.4166667   0.0000000), wk =   0.0833333
        k(   17) = (   0.2500000   0.2500000   0.0000000), wk =   0.0833333
        k(   18) = (   0.2500000   0.3333333   0.0000000), wk =   0.1666667
        k(   19) = (   0.3333333   0.3333333   0.0000000), wk =   0.0277778

     Dense  grid:    32201 G-vectors     FFT dimensions: (  24,  24, 144)

     Dynamical RAM for                 wfc:       0.49 MB

     Dynamical RAM for     wfc (w. buffer):       9.82 MB

     Dynamical RAM for           str. fact:       0.49 MB

     Dynamical RAM for           local pot:       0.00 MB

     Dynamical RAM for          nlocal pot:       1.96 MB

     Dynamical RAM for                qrad:       0.36 MB

     Dynamical RAM for          rho,v,vnew:       3.37 MB

     Dynamical RAM for               rhoin:       1.12 MB

     Dynamical RAM for            rho*nmix:       7.86 MB

     Dynamical RAM for           G-vectors:       2.09 MB

     Dynamical RAM for          h,s,v(r/c):       0.01 MB

     Dynamical RAM for          <psi|beta>:       0.00 MB

     Dynamical RAM for                 psi:       0.98 MB

     Dynamical RAM for                hpsi:       0.98 MB

     Dynamical RAM for      wfcinit/wfcrot:       1.97 MB

     Estimated static dynamical RAM per process >      31.22 MB

     Estimated max dynamical RAM per process >      33.20 MB

     Initial potential from superposition of free atoms

     starting charge   15.99982, renormalised to   16.00000

     negative rho (up, down):  7.092E-06 0.000E+00
     Starting wfcs are   16 randomized atomic wfcs

     total cpu time spent up to now is        0.7 secs

     Self-consistent Calculation

     iteration #  1     ecut=    60.00 Ry     beta= 0.70
     Davidson diagonalization with overlap
     ethr =  1.00E-02,  avg # of iterations =  2.1

     total cpu time spent up to now is        1.8 secs

     total energy              =     -48.12716719 Ry
     estimated scf accuracy    <       0.36000710 Ry

     iteration #  2     ecut=    60.00 Ry     beta= 0.70
     Davidson diagonalization with overlap
     ethr =  2.25E-03,  avg # of iterations =  2.0

     total cpu time spent up to now is        2.7 secs

     total energy              =     -48.16803965 Ry
     estimated scf accuracy    <       0.00644740 Ry

     iteration #  3     ecut=    60.00 Ry     beta= 0.70
     Davidson diagonalization with overlap
     ethr =  4.03E-05,  avg # of iterations =  2.9

     total cpu time spent up to now is        3.9 secs

     total energy              =     -48.17152564 Ry
     estimated scf accuracy    <       0.00079399 Ry

     iteration #  4     ecut=    60.00 Ry     beta= 0.70
     Davidson diagonalization with overlap
     ethr =  4.96E-06,  avg # of iterations =  3.1

     total cpu time spent up to now is        5.0 secs

     total energy              =     -48.17180170 Ry
     estimated scf accuracy    <       0.00028909 Ry

     iteration #  5     ecut=    60.00 Ry     beta= 0.70
     Davidson diagonalization with overlap
     ethr =  1.81E-06,  avg # of iterations =  2.0

     total cpu time spent up to now is        6.0 secs

     total energy              =     -48.17187112 Ry
     estimated scf accuracy    <       0.00001008 Ry

     iteration #  6     ecut=    60.00 Ry     beta= 0.70
     Davidson diagonalization with overlap
     ethr =  6.30E-08,  avg # of iterations =  4.8

     total cpu time spent up to now is        7.4 secs

     total energy              =     -48.17187932 Ry
     estimated scf accuracy    <       0.00000248 Ry

     iteration #  7     ecut=    60.00 Ry     beta= 0.70
     Davidson diagonalization with overlap
     ethr =  1.55E-08,  avg # of iterations =  2.7

     total cpu time spent up to now is        8.4 secs

     End of self-consistent calculation

          k = 0.0000 0.0000 0.0000 (  4005 PWs)   bands (ev):

   -18.8328 -18.6310  -7.3527  -6.1753  -2.0232  -2.0232  -1.9922  -1.9922

     occupation numbers 
     1.0000   1.0000   1.0000   1.0000   1.0000   1.0000   1.0000   1.0000

          k = 0.0000 0.0962 0.0000 (  4020 PWs)   bands (ev):

   -18.6655 -18.4655  -7.1498  -5.9783  -2.6868  -2.6513  -2.3733  -2.3434

     occupation numbers 
     1.0000   1.0000   1.0000   1.0000   1.0000   1.0000   1.0000   1.0000

          k = 0.0000 0.1925 0.0000 (  4038 PWs)   bands (ev):

   -18.1652 -17.9708  -6.5461  -5.3933  -4.3605  -4.3075  -3.1925  -3.1603

     occupation numbers 
     1.0000   1.0000   1.0000   1.0000   1.0000   1.0000   1.0000   1.0000

          k = 0.0000 0.2887 0.0000 (  4016 PWs)   bands (ev):

   -17.3375 -17.1522  -6.5033  -6.4303  -5.5588  -4.4398  -4.1004  -4.0658

     occupation numbers 
     1.0000   1.0000   1.0000   1.0000   1.0000   1.0000   1.0000   1.0000

          k = 0.0000 0.3849 0.0000 (  4040 PWs)   bands (ev):

   -16.1946 -16.0215  -8.7557  -8.6602  -4.8572  -4.8202  -4.2375  -3.1737

     occupation numbers 
     1.0000   1.0000   1.0000   1.0000   1.0000   1.0000   1.0000   1.0000

          k = 0.0000 0.4811 0.0000 (  4028 PWs)   bands (ev):

   -14.7659 -14.6066 -10.9051 -10.7888  -5.3440  -5.3062  -2.7400  -1.7640

     occupation numbers 
     1.0000   1.0000   1.0000   1.0000   1.0000   1.0000   1.0000   1.0000

          k = 0.0000-0.5774 0.0000 (  4024 PWs)   bands (ev):

   -13.4481 -13.2954 -12.4703 -12.3470  -5.5104  -5.4733  -1.8319  -0.9417

     occupation numbers 
     1.0000   1.0000   1.0000   1.0000   1.0000   1.0000   1.0000   1.0000

          k = 0.0833 0.1443 0.0000 (  4045 PWs)   bands (ev):

   -18.3318 -18.1354  -6.7463  -5.5879  -3.7412  -3.6960  -3.0753  -3.0400

     occupation numbers 
     1.0000   1.0000   1.0000   1.0000   1.0000   1.0000   1.0000   1.0000

          k = 0.0833 0.2406 0.0000 (  4025 PWs)   bands (ev):

   -17.6677 -17.4787  -5.9500  -5.4856  -5.4241  -4.8170  -4.1044  -4.0634

     occupation numbers 
     1.0000   1.0000   1.0000   1.0000   1.0000   1.0000   1.0000   1.0000

          k = 0.0833 0.3368 0.0000 (  4029 PWs)   bands (ev):

   -16.6823 -16.5041  -7.6057  -7.5219  -5.0168  -4.9711  -4.7888  -3.7002

     occupation numbers 
     1.0000   1.0000   1.0000   1.0000   1.0000   1.0000   1.0000   1.0000

          k = 0.0833 0.4330 0.0000 (  4009 PWs)   bands (ev):

   -15.3937 -15.2287  -9.7768  -9.6715  -5.6680  -5.6208  -3.3459  -2.3261

     occupation numbers 
     1.0000   1.0000   1.0000   1.0000   1.0000   1.0000   1.0000   1.0000

          k = 0.0833 0.5292 0.0000 (  4026 PWs)   bands (ev):

   -13.8731 -13.7213 -11.7705 -11.6483  -6.0056  -5.9576  -1.9558  -1.0381

     occupation numbers 
     1.0000   1.0000   1.0000   1.0000   1.0000   1.0000   1.0000   1.0000

          k = 0.1667 0.2887 0.0000 (  4032 PWs)   bands (ev):

   -16.8461 -16.6661  -6.8369  -6.7623  -5.5111  -5.4554  -4.9755  -3.8788

     occupation numbers 
     1.0000   1.0000   1.0000   1.0000   1.0000   1.0000   1.0000   1.0000

          k = 0.1667 0.3849 0.0000 (  4020 PWs)   bands (ev):

   -15.7140 -15.5460  -8.6033  -8.5103  -6.5929  -6.5291  -3.6693  -2.6268

     occupation numbers 
     1.0000   1.0000   1.0000   1.0000   1.0000   1.0000   1.0000   1.0000

          k = 0.1667 0.4811 0.0000 (  4002 PWs)   bands (ev):

   -14.3050 -14.1513 -10.5626 -10.4508  -7.1786  -7.1112  -2.1698  -1.2106

     occupation numbers 
     1.0000   1.0000   1.0000   1.0000   1.0000   1.0000   1.0000   1.0000

          k = 0.1667 0.5774 0.0000 (  4032 PWs)   bands (ev):

   -13.0207 -12.8737 -12.0546 -11.9329  -7.3676  -7.2986  -1.2148  -0.3379

     occupation numbers 
     1.0000   1.0000   1.0000   1.0000   1.0000   1.0000   1.0000   1.0000

          k = 0.2500 0.4330 0.0000 (  3996 PWs)   bands (ev):

   -14.4575 -14.3025  -9.6463  -9.5417  -8.1254  -8.0467  -2.2635  -1.2881

     occupation numbers 
     1.0000   1.0000   1.0000   1.0000   1.0000   1.0000   1.0000   1.0000

          k = 0.2500 0.5292 0.0000 (  4003 PWs)   bands (ev):

   -12.9964 -12.8545 -11.1095 -10.9905  -8.8465  -8.7614  -0.8039   0.0854

     occupation numbers 
     1.0000   1.0000   1.0000   1.0000   1.0000   1.0000   1.0000   1.0000

          k = 0.3333 0.5774 0.0000 (  3942 PWs)   bands (ev):

   -11.7426 -11.7426 -11.6130 -11.6130  -9.7933  -9.7027   0.6107   0.6107

     occupation numbers 
     1.0000   1.0000   1.0000   1.0000   1.0000   1.0000   1.0000   1.0000

     the Fermi energy is     0.7360 ev

!    total energy              =     -48.17187976 Ry
     estimated scf accuracy    <       0.00000010 Ry
     smearing contrib. (-TS)   =       0.00004531 Ry
     internal energy E=F+TS    =     -48.17192507 Ry

     The total energy is F=E-TS. E is the sum of the following terms:
     one-electron contribution =    -301.71026162 Ry
     hartree contribution      =     155.45926077 Ry
     xc contribution           =     -17.24438977 Ry
     ewald contribution        =     115.32346554 Ry

     convergence has been achieved in   7 iterations

     Forces acting on atoms (cartesian axes, Ry/au):

     atom    1 type  1   force =     0.00000000    0.00000000   -0.00541411
     atom    2 type  1   force =    -0.00000000   -0.00000000   -0.00541411
     atom    3 type  1   force =     0.00000000    0.00000000    0.00541411
     atom    4 type  1   force =     0.00000000    0.00000000    0.00541411
     The non-local contrib.  to forces
     atom    1 type  1   force =     0.00000000    0.00000000   -0.00489188
     atom    2 type  1   force =     0.00000000   -0.00000000   -0.00489188
     atom    3 type  1   force =     0.00000000    0.00000000    0.00487573
     atom    4 type  1   force =     0.00000000   -0.00000000    0.00487573
     The ionic contribution  to forces
     atom    1 type  1   force =    -0.00000001    0.00000001  -12.18309997
     atom    2 type  1   force =     0.00000001   -0.00000001  -12.18309997
     atom    3 type  1   force =    -0.00000001    0.00000001   12.18309997
     atom    4 type  1   force =     0.00000001   -0.00000001   12.18309997
     The local contribution  to forces
     atom    1 type  1   force =     0.00000000   -0.00000000   12.18269074
     atom    2 type  1   force =     0.00000001   -0.00000000   12.18269074
     atom    3 type  1   force =     0.00000000    0.00000000  -12.18285328
     atom    4 type  1   force =     0.00000001   -0.00000000  -12.18285328
     The core correction contribution to forces
     atom    1 type  1   force =     0.00000000   -0.00000000    0.00027354
     atom    2 type  1   force =    -0.00000000    0.00000000    0.00027354
     atom    3 type  1   force =     0.00000000   -0.00000000   -0.00027345
     atom    4 type  1   force =    -0.00000000    0.00000000   -0.00027345
     The Hubbard contrib.    to forces
     atom    1 type  1   force =     0.00000000    0.00000000    0.00000000
     atom    2 type  1   force =     0.00000000    0.00000000    0.00000000
     atom    3 type  1   force =     0.00000000    0.00000000    0.00000000
     atom    4 type  1   force =     0.00000000    0.00000000    0.00000000
     The SCF correction term to forces
     atom    1 type  1   force =    -0.00000000    0.00000000   -0.00038453
     atom    2 type  1   force =     0.00000000   -0.00000000   -0.00038453
     atom    3 type  1   force =    -0.00000000    0.00000000    0.00056714
     atom    4 type  1   force =     0.00000000   -0.00000000    0.00056714

     Total force =     0.010828     Total SCF correction =     0.000969


     Computing stress (Cartesian axis) and pressure

          total   stress  (Ry/bohr**3)                   (kbar)     P=       17.55
   0.00018967   0.00000000   0.00000000           27.90        0.00        0.00
   0.00000000   0.00018967   0.00000000            0.00       27.90        0.00
   0.00000000   0.00000000  -0.00002144            0.00        0.00       -3.15

     kinetic stress (kbar)   6261.46      0.00      0.00
                                0.00   6261.46      0.00
                                0.00      0.00   6900.60

     local   stress (kbar) -92832.99      0.00      0.00
                                0.00 -92832.99     -0.00
                                0.00     -0.00  94772.54

     nonloc. stress (kbar)   -653.59     -0.00      0.00
                               -0.00   -653.59      0.00
                                0.00      0.00   -548.27

     hartree stress (kbar)  44150.88     -0.00      0.00
                               -0.00  44150.88      0.00
                                0.00      0.00 -43679.48

     exc-cor stress (kbar)   -499.67     -0.00      0.00
                               -0.00   -499.67     -0.00
                                0.00     -0.00   -556.12

     corecor stress (kbar)   -937.89      0.00     -0.00
                                0.00   -937.89      0.00
                               -0.00      0.00   -914.94

     ewald   stress (kbar)  44539.70     -0.00     -0.00
                               -0.00  44539.70     -0.00
                               -0.00     -0.00 -55977.49

     hubbard stress (kbar)      0.00      0.00      0.00
                                0.00      0.00      0.00
                                0.00      0.00      0.00

     DFT-D   stress (kbar)      0.00      0.00      0.00
                                0.00      0.00      0.00
                                0.00      0.00      0.00

     XDM     stress (kbar)      0.00      0.00      0.00
                                0.00      0.00      0.00
                                0.00      0.00      0.00

     dft-nl  stress (kbar)      0.00      0.00      0.00
                                0.00      0.00      0.00
                                0.00      0.00      0.00

     TS-vdW  stress (kbar)      0.00      0.00      0.00
                                0.00      0.00      0.00
                                0.00      0.00      0.00



     Writing output data file ./tmp/graphene.save/

     init_run     :      1.71s CPU      0.72s WALL (       1 calls)
     electrons    :     19.42s CPU      7.68s WALL (       1 calls)
     forces       :      0.39s CPU      0.13s WALL (       1 calls)
     stress       :      1.11s CPU      0.49s WALL (       1 calls)

     Called by init_run:
     wfcinit      :      1.62s CPU      0.62s WALL (       1 calls)
     wfcinit:atom :      0.06s CPU      0.01s WALL (      19 calls)
     wfcinit:wfcr :      1.31s CPU      0.53s WALL (      19 calls)
     potinit      :      0.03s CPU      0.03s WALL (       1 calls)
     hinit0       :      0.05s CPU      0.05s WALL (       1 calls)

     Called by electrons:
     c_bands      :     17.16s CPU      6.56s WALL (       7 calls)
     sum_band     :      2.08s CPU      0.95s WALL (       7 calls)
     v_of_rho     :      0.16s CPU      0.17s WALL (       8 calls)
     v_h          :      0.01s CPU      0.01s WALL (       8 calls)
     v_xc         :      0.26s CPU      0.22s WALL (      10 calls)
     mix_rho      :      0.02s CPU      0.02s WALL (       7 calls)

     Called by c_bands:
     init_us_2    :      0.78s CPU      0.27s WALL (     323 calls)
     cegterg      :     15.48s CPU      5.95s WALL (     133 calls)

     Called by sum_band:
     sum_band:wei :      0.00s CPU      0.00s WALL (       7 calls)
     sum_band:loo :      2.05s CPU      0.92s WALL (       7 calls)
     sum_band:buf :      0.02s CPU      0.01s WALL (     133 calls)
     sum_band:ini :      0.23s CPU      0.10s WALL (     133 calls)

     Called by *egterg:
     cdiaghg      :      0.17s CPU      0.05s WALL (     507 calls)
     cegterg:over :      0.28s CPU      0.08s WALL (     374 calls)
     cegterg:upda :      0.19s CPU      0.05s WALL (     374 calls)
     cegterg:last :      0.27s CPU      0.07s WALL (     334 calls)
     h_psi        :     15.34s CPU      6.06s WALL (     526 calls)
     g_psi        :      0.21s CPU      0.06s WALL (     374 calls)

     Called by h_psi:
     h_psi:calbec :      0.30s CPU      0.14s WALL (     526 calls)
     vloc_psi     :     14.68s CPU      5.80s WALL (     526 calls)
     add_vuspsi   :      0.26s CPU      0.09s WALL (     526 calls)

     General routines
     calbec       :      0.34s CPU      0.15s WALL (     621 calls)
     fft          :      0.11s CPU      0.09s WALL (     104 calls)
     ffts         :      0.01s CPU      0.01s WALL (       7 calls)
     fftw         :     13.96s CPU      5.62s WALL (    8232 calls)

     Parallel routines

     PWSCF        :     22.71s CPU      9.08s WALL


   This run was terminated on:  10:47:28  15Feb2024            

=------------------------------------------------------------------------------=
   JOB DONE.
=------------------------------------------------------------------------------=
