
     Program PWSCF v.6.7MaX starts on 15Feb2024 at 10:47:35 

     This program is part of the open-source Quantum ESPRESSO suite
     for quantum simulation of materials; please cite
         "P. Giannozzi et al., J. Phys.:Condens. Matter 21 395502 (2009);
         "P. Giannozzi et al., J. Phys.:Condens. Matter 29 465901 (2017);
          URL http://www.quantum-espresso.org", 
     in publications or presentations arising from this work. More details at
     http://www.quantum-espresso.org/quote

     Parallel version (MPI), running on     1 processors

     MPI processes distributed on     1 nodes
     Waiting for input...
     Reading input from standard input

     Current dimensions of program PWSCF are:
     Max number of different atomic species (ntypx) = 10
     Max number of k-points (npk) =  40000
     Max angular momentum in pseudopotentials (lmaxx) =  3
     Message from routine read_pp_mesh:
     mesh size missing, using the one in header

     Subspace diagonalization in iterative solution of the eigenvalue problem:
     a serial algorithm will be used


     G-vector sticks info
     --------------------
     sticks:   dense  smooth     PW     G-vecs:    dense   smooth      PW
     Sum         361     361    109                32201    32201    5621



     bravais-lattice index     =            4
     lattice parameter (alat)  =       4.6203  a.u.
     unit-cell volume          =     512.4983 (a.u.)^3
     number of atoms/cell      =            4
     number of atomic types    =            1
     number of electrons       =        16.00
     number of Kohn-Sham states=            8
     kinetic-energy cutoff     =      60.0000  Ry
     charge density cutoff     =     240.0000  Ry
     scf convergence threshold =      1.0E-06
     mixing beta               =       0.7000
     number of iterations used =            8  plain     mixing
     Exchange-correlation= PBE
                           (   1   4   3   4   0   0   0)

     celldm(1)=   4.620300  celldm(2)=   0.000000  celldm(3)=   6.000000
     celldm(4)=   0.000000  celldm(5)=   0.000000  celldm(6)=   0.000000

     crystal axes: (cart. coord. in units of alat)
               a(1) = (   1.000000   0.000000   0.000000 )  
               a(2) = (  -0.500000   0.866025   0.000000 )  
               a(3) = (   0.000000   0.000000   6.000000 )  

     reciprocal axes: (cart. coord. in units 2 pi/alat)
               b(1) = (  1.000000  0.577350 -0.000000 )  
               b(2) = (  0.000000  1.154701  0.000000 )  
               b(3) = (  0.000000 -0.000000  0.166667 )  


     PseudoPot. # 1 for C  read from file:
     ../../../Pseudo/PBE/C.upf
     MD5 check sum: 34a24e64c0a39f27c6c36b90a16ac686
     Pseudo is Norm-conserving + core correction, Zval =  4.0
     Generated using ONCVPSP code by D. R. Hamann
     Using radial grid of 1248 points,  4 beta functions with: 
                l(1) =   0
                l(2) =   0
                l(3) =   1
                l(4) =   1

     atomic species   valence    mass     pseudopotential
        C              4.00    12.01100     C ( 1.00)

     12 Sym. Ops. (no inversion) found ( 6 have fractional translation)


                                    s                        frac. trans.

      isym =  1     identity                                     

 cryst.   s( 1) = (     1          0          0      )
                  (     0          1          0      )
                  (     0          0          1      )

 cart.    s( 1) = (  1.0000000  0.0000000  0.0000000 )
                  (  0.0000000  1.0000000  0.0000000 )
                  (  0.0000000  0.0000000  1.0000000 )


      isym =  2     180 deg rotation - cart. axis [0,0,1]        

 cryst.   s( 2) = (    -1          0          0      )    f =( -0.3333333 )
                  (     0         -1          0      )       (  0.3333333 )
                  (     0          0          1      )       (  0.0000000 )

 cart.    s( 2) = ( -1.0000000  0.0000000  0.0000000 )    f =( -0.5000000 )
                  (  0.0000000 -1.0000000  0.0000000 )       (  0.2886751 )
                  (  0.0000000  0.0000000  1.0000000 )       (  0.0000000 )


      isym =  3      60 deg rotation - cryst. axis [0,0,1]       

 cryst.   s( 3) = (     1          1          0      )    f =( -0.3333333 )
                  (    -1          0          0      )       (  0.3333333 )
                  (     0          0          1      )       (  0.0000000 )

 cart.    s( 3) = (  0.5000000 -0.8660254  0.0000000 )    f =( -0.5000000 )
                  (  0.8660254  0.5000000  0.0000000 )       (  0.2886751 )
                  (  0.0000000  0.0000000  1.0000000 )       (  0.0000000 )


      isym =  4      60 deg rotation - cryst. axis [0,0,-1]      

 cryst.   s( 4) = (     0         -1          0      )    f =( -0.3333333 )
                  (     1          1          0      )       (  0.3333333 )
                  (     0          0          1      )       (  0.0000000 )

 cart.    s( 4) = (  0.5000000  0.8660254  0.0000000 )    f =( -0.5000000 )
                  ( -0.8660254  0.5000000  0.0000000 )       (  0.2886751 )
                  (  0.0000000  0.0000000  1.0000000 )       (  0.0000000 )


      isym =  5     120 deg rotation - cryst. axis [0,0,1]       

 cryst.   s( 5) = (     0          1          0      )
                  (    -1         -1          0      )
                  (     0          0          1      )

 cart.    s( 5) = ( -0.5000000 -0.8660254  0.0000000 )
                  (  0.8660254 -0.5000000  0.0000000 )
                  (  0.0000000  0.0000000  1.0000000 )


      isym =  6     120 deg rotation - cryst. axis [0,0,-1]      

 cryst.   s( 6) = (    -1         -1          0      )
                  (     1          0          0      )
                  (     0          0          1      )

 cart.    s( 6) = ( -0.5000000  0.8660254  0.0000000 )
                  ( -0.8660254 -0.5000000  0.0000000 )
                  (  0.0000000  0.0000000  1.0000000 )


      isym =  7     inv. 180 deg rotation - cart. axis [0,1,0]   

 cryst.   s( 7) = (     1          0          0      )    f =( -0.3333333 )
                  (    -1         -1          0      )       (  0.3333333 )
                  (     0          0          1      )       (  0.0000000 )

 cart.    s( 7) = (  1.0000000  0.0000000  0.0000000 )    f =( -0.5000000 )
                  (  0.0000000 -1.0000000  0.0000000 )       (  0.2886751 )
                  (  0.0000000  0.0000000  1.0000000 )       (  0.0000000 )


      isym =  8     inv. 180 deg rotation - cart. axis [1,0,0]   

 cryst.   s( 8) = (    -1          0          0      )
                  (     1          1          0      )
                  (     0          0          1      )

 cart.    s( 8) = ( -1.0000000  0.0000000  0.0000000 )
                  (  0.0000000  1.0000000  0.0000000 )
                  (  0.0000000  0.0000000  1.0000000 )


      isym =  9     inv. 180 deg rotation - cryst. axis [1,-1,0] 

 cryst.   s( 9) = (     0          1          0      )    f =( -0.3333333 )
                  (     1          0          0      )       (  0.3333333 )
                  (     0          0          1      )       (  0.0000000 )

 cart.    s( 9) = ( -0.5000000  0.8660254  0.0000000 )    f =( -0.5000000 )
                  (  0.8660254  0.5000000  0.0000000 )       (  0.2886751 )
                  (  0.0000000  0.0000000  1.0000000 )       (  0.0000000 )


      isym = 10     inv. 180 deg rotation - cryst. axis [2,1,0]  

 cryst.   s(10) = (    -1         -1          0      )    f =( -0.3333333 )
                  (     0          1          0      )       (  0.3333333 )
                  (     0          0          1      )       (  0.0000000 )

 cart.    s(10) = ( -0.5000000 -0.8660254  0.0000000 )    f =( -0.5000000 )
                  ( -0.8660254  0.5000000  0.0000000 )       (  0.2886751 )
                  (  0.0000000  0.0000000  1.0000000 )       (  0.0000000 )


      isym = 11     inv. 180 deg rotation - cryst. axis [0,1,0]  

 cryst.   s(11) = (     1          1          0      )
                  (     0         -1          0      )
                  (     0          0          1      )

 cart.    s(11) = (  0.5000000  0.8660254  0.0000000 )
                  (  0.8660254 -0.5000000  0.0000000 )
                  (  0.0000000  0.0000000  1.0000000 )


      isym = 12     inv. 180 deg rotation - cryst. axis [1,1,0]  

 cryst.   s(12) = (     0         -1          0      )
                  (    -1          0          0      )
                  (     0          0          1      )

 cart.    s(12) = (  0.5000000 -0.8660254  0.0000000 )
                  ( -0.8660254 -0.5000000  0.0000000 )
                  (  0.0000000  0.0000000  1.0000000 )


     point group C_6v (6mm) 
     there are  6 classes
     the character table:

       E     2C6   2C3   C2    3s_v  3s_d 
A_1    1.00  1.00  1.00  1.00  1.00  1.00
A_2    1.00  1.00  1.00  1.00 -1.00 -1.00
B_1    1.00 -1.00  1.00 -1.00  1.00 -1.00
B_2    1.00 -1.00  1.00 -1.00 -1.00  1.00
E_1    2.00  1.00 -1.00 -2.00  0.00  0.00
E_2    2.00 -1.00 -1.00  2.00  0.00  0.00

     the symmetry operations in each class and the name of the first element:

     E        1
          identity                                               
     2C6      3    4
           60 deg rotation - cryst. axis [0,0,1]                 
     2C3      5    6
          120 deg rotation - cryst. axis [0,0,1]                 
     C2       2
          180 deg rotation - cart. axis [0,0,1]                  
     3s_v     8   12   11
          inv. 180 deg rotation - cart. axis [1,0,0]             
     3s_d     7    9   10
          inv. 180 deg rotation - cart. axis [0,1,0]             

   Cartesian axes

     site n.     atom                  positions (alat units)
         1           C   tau(   1) = (   0.0000000   0.0000000   0.0000000  )
         2           C   tau(   2) = (  -0.0000000   0.5773503   0.0000000  )
         3           C   tau(   3) = (   0.0000000   0.0000000   1.3800000  )
         4           C   tau(   4) = (  -0.0000000   0.5773503   1.3800000  )

   Crystallographic axes

     site n.     atom                  positions (cryst. coord.)
         1           C   tau(   1) = (  0.0000000  0.0000000  0.0000000  )
         2           C   tau(   2) = (  0.3333333  0.6666667  0.0000000  )
         3           C   tau(   3) = (  0.0000000  0.0000000  0.2300000  )
         4           C   tau(   4) = (  0.3333333  0.6666667  0.2300000  )

     number of k points=    19  Marzari-Vanderbilt smearing, width (Ry)=  0.0100
                       cart. coord. in units 2pi/alat
        k(    1) = (   0.0000000   0.0000000   0.0000000), wk =   0.0138889
        k(    2) = (   0.0000000   0.0962250   0.0000000), wk =   0.0833333
        k(    3) = (   0.0000000   0.1924501   0.0000000), wk =   0.0833333
        k(    4) = (   0.0000000   0.2886751   0.0000000), wk =   0.0833333
        k(    5) = (   0.0000000   0.3849002   0.0000000), wk =   0.0833333
        k(    6) = (   0.0000000   0.4811252   0.0000000), wk =   0.0833333
        k(    7) = (   0.0000000  -0.5773503   0.0000000), wk =   0.0416667
        k(    8) = (   0.0833333   0.1443376   0.0000000), wk =   0.0833333
        k(    9) = (   0.0833333   0.2405626   0.0000000), wk =   0.1666667
        k(   10) = (   0.0833333   0.3367877   0.0000000), wk =   0.1666667
        k(   11) = (   0.0833333   0.4330127   0.0000000), wk =   0.1666667
        k(   12) = (   0.0833333   0.5292377   0.0000000), wk =   0.1666667
        k(   13) = (   0.1666667   0.2886751   0.0000000), wk =   0.0833333
        k(   14) = (   0.1666667   0.3849002   0.0000000), wk =   0.1666667
        k(   15) = (   0.1666667   0.4811252   0.0000000), wk =   0.1666667
        k(   16) = (   0.1666667   0.5773503   0.0000000), wk =   0.0833333
        k(   17) = (   0.2500000   0.4330127   0.0000000), wk =   0.0833333
        k(   18) = (   0.2500000   0.5292377   0.0000000), wk =   0.1666667
        k(   19) = (   0.3333333   0.5773503   0.0000000), wk =   0.0277778

                       cryst. coord.
        k(    1) = (   0.0000000   0.0000000   0.0000000), wk =   0.0138889
        k(    2) = (   0.0000000   0.0833333   0.0000000), wk =   0.0833333
        k(    3) = (   0.0000000   0.1666667   0.0000000), wk =   0.0833333
        k(    4) = (   0.0000000   0.2500000   0.0000000), wk =   0.0833333
        k(    5) = (   0.0000000   0.3333333   0.0000000), wk =   0.0833333
        k(    6) = (   0.0000000   0.4166667   0.0000000), wk =   0.0833333
        k(    7) = (   0.0000000  -0.5000000   0.0000000), wk =   0.0416667
        k(    8) = (   0.0833333   0.0833333   0.0000000), wk =   0.0833333
        k(    9) = (   0.0833333   0.1666667   0.0000000), wk =   0.1666667
        k(   10) = (   0.0833333   0.2500000   0.0000000), wk =   0.1666667
        k(   11) = (   0.0833333   0.3333333   0.0000000), wk =   0.1666667
        k(   12) = (   0.0833333   0.4166667   0.0000000), wk =   0.1666667
        k(   13) = (   0.1666667   0.1666667   0.0000000), wk =   0.0833333
        k(   14) = (   0.1666667   0.2500000   0.0000000), wk =   0.1666667
        k(   15) = (   0.1666667   0.3333333   0.0000000), wk =   0.1666667
        k(   16) = (   0.1666667   0.4166667   0.0000000), wk =   0.0833333
        k(   17) = (   0.2500000   0.2500000   0.0000000), wk =   0.0833333
        k(   18) = (   0.2500000   0.3333333   0.0000000), wk =   0.1666667
        k(   19) = (   0.3333333   0.3333333   0.0000000), wk =   0.0277778

     Dense  grid:    32201 G-vectors     FFT dimensions: (  24,  24, 144)

     Dynamical RAM for                 wfc:       0.49 MB

     Dynamical RAM for     wfc (w. buffer):       9.82 MB

     Dynamical RAM for           str. fact:       0.49 MB

     Dynamical RAM for           local pot:       0.00 MB

     Dynamical RAM for          nlocal pot:       1.96 MB

     Dynamical RAM for                qrad:       0.36 MB

     Dynamical RAM for          rho,v,vnew:       3.37 MB

     Dynamical RAM for               rhoin:       1.12 MB

     Dynamical RAM for            rho*nmix:       7.86 MB

     Dynamical RAM for           G-vectors:       2.09 MB

     Dynamical RAM for          h,s,v(r/c):       0.01 MB

     Dynamical RAM for          <psi|beta>:       0.00 MB

     Dynamical RAM for                 psi:       0.98 MB

     Dynamical RAM for                hpsi:       0.98 MB

     Dynamical RAM for      wfcinit/wfcrot:       1.97 MB

     Estimated static dynamical RAM per process >      31.22 MB

     Estimated max dynamical RAM per process >      33.20 MB

     Initial potential from superposition of free atoms

     starting charge   15.99982, renormalised to   16.00000

     negative rho (up, down):  6.791E-06 0.000E+00
     Starting wfcs are   16 randomized atomic wfcs

     total cpu time spent up to now is        0.7 secs

     Self-consistent Calculation

     iteration #  1     ecut=    60.00 Ry     beta= 0.70
     Davidson diagonalization with overlap
     ethr =  1.00E-02,  avg # of iterations =  2.2

     negative rho (up, down):  1.296E-08 0.000E+00

     total cpu time spent up to now is        1.8 secs

     total energy              =     -48.12852862 Ry
     estimated scf accuracy    <       0.36261525 Ry

     iteration #  2     ecut=    60.00 Ry     beta= 0.70
     Davidson diagonalization with overlap
     ethr =  2.27E-03,  avg # of iterations =  2.0

     total cpu time spent up to now is        2.7 secs

     total energy              =     -48.17059450 Ry
     estimated scf accuracy    <       0.00615867 Ry

     iteration #  3     ecut=    60.00 Ry     beta= 0.70
     Davidson diagonalization with overlap
     ethr =  3.85E-05,  avg # of iterations =  3.1

     total cpu time spent up to now is        3.9 secs

     total energy              =     -48.17393234 Ry
     estimated scf accuracy    <       0.00065914 Ry

     iteration #  4     ecut=    60.00 Ry     beta= 0.70
     Davidson diagonalization with overlap
     ethr =  4.12E-06,  avg # of iterations =  3.2

     total cpu time spent up to now is        5.1 secs

     total energy              =     -48.17415079 Ry
     estimated scf accuracy    <       0.00027622 Ry

     iteration #  5     ecut=    60.00 Ry     beta= 0.70
     Davidson diagonalization with overlap
     ethr =  1.73E-06,  avg # of iterations =  2.1

     total cpu time spent up to now is        6.1 secs

     total energy              =     -48.17421373 Ry
     estimated scf accuracy    <       0.00000997 Ry

     iteration #  6     ecut=    60.00 Ry     beta= 0.70
     Davidson diagonalization with overlap
     ethr =  6.23E-08,  avg # of iterations =  5.2

     total cpu time spent up to now is        7.4 secs

     total energy              =     -48.17422145 Ry
     estimated scf accuracy    <       0.00000263 Ry

     iteration #  7     ecut=    60.00 Ry     beta= 0.70
     Davidson diagonalization with overlap
     ethr =  1.64E-08,  avg # of iterations =  2.7

     total cpu time spent up to now is        8.3 secs

     End of self-consistent calculation

          k = 0.0000 0.0000 0.0000 (  4005 PWs)   bands (ev):

   -18.7913 -18.6479  -7.2311  -6.2880  -2.0076  -2.0076  -1.9900  -1.9900

     occupation numbers 
     1.0000   1.0000   1.0000   1.0000   1.0000   1.0000   1.0000   1.0000

          k = 0.0000 0.0962 0.0000 (  4020 PWs)   bands (ev):

   -18.6242 -18.4822  -7.0284  -6.0904  -2.6711  -2.6488  -2.3582  -2.3406

     occupation numbers 
     1.0000   1.0000   1.0000   1.0000   1.0000   1.0000   1.0000   1.0000

          k = 0.0000 0.1925 0.0000 (  4038 PWs)   bands (ev):

   -18.1248 -17.9869  -6.4253  -5.5038  -4.3426  -4.3065  -3.1774  -3.1573

     occupation numbers 
     1.0000   1.0000   1.0000   1.0000   1.0000   1.0000   1.0000   1.0000

          k = 0.0000 0.2887 0.0000 (  4016 PWs)   bands (ev):

   -17.2982 -17.1674  -6.4818  -6.4318  -5.4394  -4.5473  -4.0853  -4.0626

     occupation numbers 
     1.0000   1.0000   1.0000   1.0000   1.0000   1.0000   1.0000   1.0000

          k = 0.0000 0.3849 0.0000 (  4040 PWs)   bands (ev):

   -16.1572 -16.0354  -8.7299  -8.6653  -4.8412  -4.8177  -4.1200  -3.2768

     occupation numbers 
     1.0000   1.0000   1.0000   1.0000   1.0000   1.0000   1.0000   1.0000

          k = 0.0000 0.4811 0.0000 (  4028 PWs)   bands (ev):

   -14.7304 -14.6190 -10.8762 -10.7962  -5.3279  -5.3038  -2.6270  -1.8593

     occupation numbers 
     1.0000   1.0000   1.0000   1.0000   1.0000   1.0000   1.0000   1.0000

          k = 0.0000-0.5774 0.0000 (  4024 PWs)   bands (ev):

   -13.4135 -13.3073 -12.4406 -12.3548  -5.4942  -5.4709  -1.7229  -1.0306

     occupation numbers 
     1.0000   1.0000   1.0000   1.0000   1.0000   1.0000   1.0000   1.0000

          k = 0.0833 0.1443 0.0000 (  4045 PWs)   bands (ev):

   -18.2911 -18.1517  -6.6256  -5.6986  -3.7248  -3.6936  -3.0599  -3.0373

     occupation numbers 
     1.0000   1.0000   1.0000   1.0000   1.0000   1.0000   1.0000   1.0000

          k = 0.0833 0.2406 0.0000 (  4025 PWs)   bands (ev):

   -17.6279 -17.4944  -5.8302  -5.4659  -5.4243  -4.9253  -4.0881  -4.0612

     occupation numbers 
     1.0000   1.0000   1.0000   1.0000   1.0000   1.0000   1.0000   1.0000

          k = 0.0833 0.3368 0.0000 (  4029 PWs)   bands (ev):

   -16.6440 -16.5187  -7.5821  -7.5252  -4.9992  -4.9696  -4.6712  -3.8047

     occupation numbers 
     1.0000   1.0000   1.0000   1.0000   1.0000   1.0000   1.0000   1.0000

          k = 0.0833 0.4330 0.0000 (  4009 PWs)   bands (ev):

   -15.3574 -15.2418  -9.7495  -9.6778  -5.6504  -5.6195  -3.2308  -2.4248

     occupation numbers 
     1.0000   1.0000   1.0000   1.0000   1.0000   1.0000   1.0000   1.0000

          k = 0.0833 0.5292 0.0000 (  4026 PWs)   bands (ev):

   -13.8388 -13.7328 -11.7408 -11.6562  -5.9879  -5.9563  -1.8451  -1.1294

     occupation numbers 
     1.0000   1.0000   1.0000   1.0000   1.0000   1.0000   1.0000   1.0000

          k = 0.1667 0.2887 0.0000 (  4032 PWs)   bands (ev):

   -16.8075 -16.6809  -6.8149  -6.7644  -5.4924  -5.4545  -4.8577  -3.9839

     occupation numbers 
     1.0000   1.0000   1.0000   1.0000   1.0000   1.0000   1.0000   1.0000

          k = 0.1667 0.3849 0.0000 (  4020 PWs)   bands (ev):

   -15.6772 -15.5594  -8.5780  -8.5150  -6.5728  -6.5296  -3.5533  -2.7274

     occupation numbers 
     1.0000   1.0000   1.0000   1.0000   1.0000   1.0000   1.0000   1.0000

          k = 0.1667 0.4811 0.0000 (  4002 PWs)   bands (ev):

   -14.2705 -14.1629 -10.5343 -10.4578  -7.1577  -7.1123  -2.0573  -1.3046

     occupation numbers 
     1.0000   1.0000   1.0000   1.0000   1.0000   1.0000   1.0000   1.0000

          k = 0.1667 0.5774 0.0000 (  4032 PWs)   bands (ev):

   -12.9869 -12.8850 -12.0250 -11.9407  -7.3460  -7.3003  -1.1068  -0.4251

     occupation numbers 
     1.0000   1.0000   1.0000   1.0000   1.0000   1.0000   1.0000   1.0000

          k = 0.2500 0.4330 0.0000 (  3996 PWs)   bands (ev):

   -14.4228 -14.3143  -9.6189  -9.5481  -8.1029  -8.0491  -2.1505  -1.3831

     occupation numbers 
     1.0000   1.0000   1.0000   1.0000   1.0000   1.0000   1.0000   1.0000

          k = 0.2500 0.5292 0.0000 (  4003 PWs)   bands (ev):

   -12.9635 -12.8650 -11.0802 -10.9983  -8.8227  -8.7646  -0.6953  -0.0023

     occupation numbers 
     1.0000   1.0000   1.0000   1.0000   1.0000   1.0000   1.0000   1.0000

          k = 0.3333 0.5774 0.0000 (  3942 PWs)   bands (ev):

   -11.7115 -11.7115 -11.6222 -11.6222  -9.7690  -9.7063   0.7165   0.7165

     occupation numbers 
     1.0000   1.0000   1.0000   1.0000   1.0000   1.0000   1.0000   1.0000

     the Fermi energy is     0.8419 ev

!    total energy              =     -48.17422113 Ry
     estimated scf accuracy    <       0.00000085 Ry
     smearing contrib. (-TS)   =       0.00004531 Ry
     internal energy E=F+TS    =     -48.17426643 Ry

     The total energy is F=E-TS. E is the sum of the following terms:
     one-electron contribution =    -288.46057244 Ry
     hartree contribution      =     148.83615448 Ry
     xc contribution           =     -17.23940150 Ry
     ewald contribution        =     108.68955303 Ry

     convergence has been achieved in   7 iterations

     Forces acting on atoms (cartesian axes, Ry/au):

     atom    1 type  1   force =    -0.00000000    0.00000000   -0.00302513
     atom    2 type  1   force =    -0.00000000    0.00000000   -0.00302513
     atom    3 type  1   force =     0.00000000    0.00000000    0.00302513
     atom    4 type  1   force =     0.00000000    0.00000000    0.00302513
     The non-local contrib.  to forces
     atom    1 type  1   force =     0.00000000    0.00000000   -0.00279369
     atom    2 type  1   force =     0.00000000    0.00000000   -0.00279369
     atom    3 type  1   force =     0.00000000    0.00000000    0.00281584
     atom    4 type  1   force =     0.00000000   -0.00000000    0.00281584
     The ionic contribution  to forces
     atom    1 type  1   force =    -0.00000001    0.00000001  -11.74726773
     atom    2 type  1   force =     0.00000001   -0.00000001  -11.74726773
     atom    3 type  1   force =    -0.00000001    0.00000001   11.74726773
     atom    4 type  1   force =     0.00000001   -0.00000001   11.74726773
     The local contribution  to forces
     atom    1 type  1   force =     0.00000000    0.00000000   11.74821907
     atom    2 type  1   force =     0.00000001   -0.00000000   11.74821907
     atom    3 type  1   force =     0.00000000    0.00000000  -11.74805355
     atom    4 type  1   force =     0.00000001   -0.00000000  -11.74805355
     The core correction contribution to forces
     atom    1 type  1   force =     0.00000000   -0.00000000    0.00016751
     atom    2 type  1   force =    -0.00000000    0.00000000    0.00016751
     atom    3 type  1   force =     0.00000000   -0.00000000   -0.00017214
     atom    4 type  1   force =    -0.00000000    0.00000000   -0.00017214
     The Hubbard contrib.    to forces
     atom    1 type  1   force =     0.00000000    0.00000000    0.00000000
     atom    2 type  1   force =     0.00000000    0.00000000    0.00000000
     atom    3 type  1   force =     0.00000000    0.00000000    0.00000000
     atom    4 type  1   force =     0.00000000    0.00000000    0.00000000
     The SCF correction term to forces
     atom    1 type  1   force =    -0.00000000    0.00000000   -0.00135892
     atom    2 type  1   force =     0.00000000   -0.00000000   -0.00135892
     atom    3 type  1   force =    -0.00000000    0.00000000    0.00115862
     atom    4 type  1   force =     0.00000000   -0.00000000    0.00115862

     Total force =     0.006050     Total SCF correction =     0.002525
     SCF correction compared to forces is large: reduce conv_thr to get better values


     Computing stress (Cartesian axis) and pressure

          total   stress  (Ry/bohr**3)                   (kbar)     P=       15.63
   0.00019731  -0.00000000   0.00000000           29.02       -0.00        0.00
  -0.00000000   0.00019731   0.00000000           -0.00       29.02        0.00
   0.00000000   0.00000000  -0.00007587            0.00        0.00      -11.16

     kinetic stress (kbar)   6261.04     -0.00      0.00
                               -0.00   6261.04      0.00
                                0.00      0.00   6892.44

     local   stress (kbar) -89029.40      0.00      0.00
                                0.00 -89029.40     -0.00
                                0.00     -0.00  90971.45

     nonloc. stress (kbar)   -653.52     -0.00      0.00
                               -0.00   -653.52      0.00
                                0.00      0.00   -547.18

     hartree stress (kbar)  42250.88      0.00      0.00
                                0.00  42250.88      0.00
                                0.00      0.00 -41780.54

     exc-cor stress (kbar)   -499.07     -0.00      0.00
                               -0.00   -499.07     -0.00
                                0.00     -0.00   -556.31

     corecor stress (kbar)   -937.87      0.00     -0.00
                                0.00   -937.87      0.00
                               -0.00      0.00   -914.83

     ewald   stress (kbar)  42636.96     -0.00      0.00
                               -0.00  42636.96     -0.00
                                0.00     -0.00 -54076.19

     hubbard stress (kbar)      0.00      0.00      0.00
                                0.00      0.00      0.00
                                0.00      0.00      0.00

     DFT-D   stress (kbar)      0.00      0.00      0.00
                                0.00      0.00      0.00
                                0.00      0.00      0.00

     XDM     stress (kbar)      0.00      0.00      0.00
                                0.00      0.00      0.00
                                0.00      0.00      0.00

     dft-nl  stress (kbar)      0.00      0.00      0.00
                                0.00      0.00      0.00
                                0.00      0.00      0.00

     TS-vdW  stress (kbar)      0.00      0.00      0.00
                                0.00      0.00      0.00
                                0.00      0.00      0.00



     Writing output data file ./tmp/graphene.save/

     init_run     :      1.56s CPU      0.71s WALL (       1 calls)
     electrons    :     19.14s CPU      7.57s WALL (       1 calls)
     forces       :      0.29s CPU      0.13s WALL (       1 calls)
     stress       :      1.05s CPU      0.49s WALL (       1 calls)

     Called by init_run:
     wfcinit      :      1.47s CPU      0.62s WALL (       1 calls)
     wfcinit:atom :      0.05s CPU      0.01s WALL (      19 calls)
     wfcinit:wfcr :      1.25s CPU      0.53s WALL (      19 calls)
     potinit      :      0.03s CPU      0.03s WALL (       1 calls)
     hinit0       :      0.04s CPU      0.04s WALL (       1 calls)

     Called by electrons:
     c_bands      :     16.95s CPU      6.44s WALL (       7 calls)
     sum_band     :      2.01s CPU      0.96s WALL (       7 calls)
     v_of_rho     :      0.16s CPU      0.17s WALL (       8 calls)
     v_h          :      0.01s CPU      0.01s WALL (       8 calls)
     v_xc         :      0.25s CPU      0.22s WALL (      10 calls)
     mix_rho      :      0.02s CPU      0.02s WALL (       7 calls)

     Called by c_bands:
     init_us_2    :      0.70s CPU      0.27s WALL (     323 calls)
     cegterg      :     15.30s CPU      5.83s WALL (     133 calls)

     Called by sum_band:
     sum_band:wei :      0.00s CPU      0.00s WALL (       7 calls)
     sum_band:loo :      1.98s CPU      0.93s WALL (       7 calls)
     sum_band:buf :      0.02s CPU      0.01s WALL (     133 calls)
     sum_band:ini :      0.20s CPU      0.10s WALL (     133 calls)

     Called by *egterg:
     cdiaghg      :      0.17s CPU      0.05s WALL (     520 calls)
     cegterg:over :      0.26s CPU      0.09s WALL (     387 calls)
     cegterg:upda :      0.18s CPU      0.05s WALL (     387 calls)
     cegterg:last :      0.28s CPU      0.07s WALL (     329 calls)
     h_psi        :     15.20s CPU      5.96s WALL (     539 calls)
     g_psi        :      0.20s CPU      0.06s WALL (     387 calls)

     Called by h_psi:
     h_psi:calbec :      0.31s CPU      0.14s WALL (     539 calls)
     vloc_psi     :     14.54s CPU      5.70s WALL (     539 calls)
     add_vuspsi   :      0.25s CPU      0.09s WALL (     539 calls)

     General routines
     calbec       :      0.34s CPU      0.15s WALL (     634 calls)
     fft          :      0.11s CPU      0.09s WALL (     104 calls)
     ffts         :      0.01s CPU      0.01s WALL (       7 calls)
     fftw         :     13.87s CPU      5.54s WALL (    8110 calls)

     Parallel routines

     PWSCF        :     22.16s CPU      8.97s WALL


   This run was terminated on:  10:47:44  15Feb2024            

=------------------------------------------------------------------------------=
   JOB DONE.
=------------------------------------------------------------------------------=
