
     Program PWSCF v.6.7MaX starts on 15Feb2024 at 10:48:46 

     This program is part of the open-source Quantum ESPRESSO suite
     for quantum simulation of materials; please cite
         "P. Giannozzi et al., J. Phys.:Condens. Matter 21 395502 (2009);
         "P. Giannozzi et al., J. Phys.:Condens. Matter 29 465901 (2017);
          URL http://www.quantum-espresso.org", 
     in publications or presentations arising from this work. More details at
     http://www.quantum-espresso.org/quote

     Parallel version (MPI), running on     1 processors

     MPI processes distributed on     1 nodes
     Waiting for input...
     Reading input from standard input

     Current dimensions of program PWSCF are:
     Max number of different atomic species (ntypx) = 10
     Max number of k-points (npk) =  40000
     Max angular momentum in pseudopotentials (lmaxx) =  3
     Message from routine read_pp_mesh:
     mesh size missing, using the one in header

     Subspace diagonalization in iterative solution of the eigenvalue problem:
     a serial algorithm will be used


     G-vector sticks info
     --------------------
     sticks:   dense  smooth     PW     G-vecs:    dense   smooth      PW
     Sum         361     361    109                32201    32201    5621



     bravais-lattice index     =            4
     lattice parameter (alat)  =       4.6203  a.u.
     unit-cell volume          =     512.4983 (a.u.)^3
     number of atoms/cell      =            4
     number of atomic types    =            1
     number of electrons       =        16.00
     number of Kohn-Sham states=            8
     kinetic-energy cutoff     =      60.0000  Ry
     charge density cutoff     =     240.0000  Ry
     scf convergence threshold =      1.0E-06
     mixing beta               =       0.7000
     number of iterations used =            8  plain     mixing
     Exchange-correlation= PBE
                           (   1   4   3   4   0   0   0)

     celldm(1)=   4.620300  celldm(2)=   0.000000  celldm(3)=   6.000000
     celldm(4)=   0.000000  celldm(5)=   0.000000  celldm(6)=   0.000000

     crystal axes: (cart. coord. in units of alat)
               a(1) = (   1.000000   0.000000   0.000000 )  
               a(2) = (  -0.500000   0.866025   0.000000 )  
               a(3) = (   0.000000   0.000000   6.000000 )  

     reciprocal axes: (cart. coord. in units 2 pi/alat)
               b(1) = (  1.000000  0.577350 -0.000000 )  
               b(2) = (  0.000000  1.154701  0.000000 )  
               b(3) = (  0.000000 -0.000000  0.166667 )  


     PseudoPot. # 1 for C  read from file:
     ../../../Pseudo/PBE/C.upf
     MD5 check sum: 34a24e64c0a39f27c6c36b90a16ac686
     Pseudo is Norm-conserving + core correction, Zval =  4.0
     Generated using ONCVPSP code by D. R. Hamann
     Using radial grid of 1248 points,  4 beta functions with: 
                l(1) =   0
                l(2) =   0
                l(3) =   1
                l(4) =   1

     atomic species   valence    mass     pseudopotential
        C              4.00    12.01100     C ( 1.00)

     12 Sym. Ops. (no inversion) found ( 6 have fractional translation)


                                    s                        frac. trans.

      isym =  1     identity                                     

 cryst.   s( 1) = (     1          0          0      )
                  (     0          1          0      )
                  (     0          0          1      )

 cart.    s( 1) = (  1.0000000  0.0000000  0.0000000 )
                  (  0.0000000  1.0000000  0.0000000 )
                  (  0.0000000  0.0000000  1.0000000 )


      isym =  2     180 deg rotation - cart. axis [0,0,1]        

 cryst.   s( 2) = (    -1          0          0      )    f =( -0.3333333 )
                  (     0         -1          0      )       (  0.3333333 )
                  (     0          0          1      )       (  0.0000000 )

 cart.    s( 2) = ( -1.0000000  0.0000000  0.0000000 )    f =( -0.5000000 )
                  (  0.0000000 -1.0000000  0.0000000 )       (  0.2886751 )
                  (  0.0000000  0.0000000  1.0000000 )       (  0.0000000 )


      isym =  3      60 deg rotation - cryst. axis [0,0,1]       

 cryst.   s( 3) = (     1          1          0      )    f =( -0.3333333 )
                  (    -1          0          0      )       (  0.3333333 )
                  (     0          0          1      )       (  0.0000000 )

 cart.    s( 3) = (  0.5000000 -0.8660254  0.0000000 )    f =( -0.5000000 )
                  (  0.8660254  0.5000000  0.0000000 )       (  0.2886751 )
                  (  0.0000000  0.0000000  1.0000000 )       (  0.0000000 )


      isym =  4      60 deg rotation - cryst. axis [0,0,-1]      

 cryst.   s( 4) = (     0         -1          0      )    f =( -0.3333333 )
                  (     1          1          0      )       (  0.3333333 )
                  (     0          0          1      )       (  0.0000000 )

 cart.    s( 4) = (  0.5000000  0.8660254  0.0000000 )    f =( -0.5000000 )
                  ( -0.8660254  0.5000000  0.0000000 )       (  0.2886751 )
                  (  0.0000000  0.0000000  1.0000000 )       (  0.0000000 )


      isym =  5     120 deg rotation - cryst. axis [0,0,1]       

 cryst.   s( 5) = (     0          1          0      )
                  (    -1         -1          0      )
                  (     0          0          1      )

 cart.    s( 5) = ( -0.5000000 -0.8660254  0.0000000 )
                  (  0.8660254 -0.5000000  0.0000000 )
                  (  0.0000000  0.0000000  1.0000000 )


      isym =  6     120 deg rotation - cryst. axis [0,0,-1]      

 cryst.   s( 6) = (    -1         -1          0      )
                  (     1          0          0      )
                  (     0          0          1      )

 cart.    s( 6) = ( -0.5000000  0.8660254  0.0000000 )
                  ( -0.8660254 -0.5000000  0.0000000 )
                  (  0.0000000  0.0000000  1.0000000 )


      isym =  7     inv. 180 deg rotation - cart. axis [0,1,0]   

 cryst.   s( 7) = (     1          0          0      )    f =( -0.3333333 )
                  (    -1         -1          0      )       (  0.3333333 )
                  (     0          0          1      )       (  0.0000000 )

 cart.    s( 7) = (  1.0000000  0.0000000  0.0000000 )    f =( -0.5000000 )
                  (  0.0000000 -1.0000000  0.0000000 )       (  0.2886751 )
                  (  0.0000000  0.0000000  1.0000000 )       (  0.0000000 )


      isym =  8     inv. 180 deg rotation - cart. axis [1,0,0]   

 cryst.   s( 8) = (    -1          0          0      )
                  (     1          1          0      )
                  (     0          0          1      )

 cart.    s( 8) = ( -1.0000000  0.0000000  0.0000000 )
                  (  0.0000000  1.0000000  0.0000000 )
                  (  0.0000000  0.0000000  1.0000000 )


      isym =  9     inv. 180 deg rotation - cryst. axis [1,-1,0] 

 cryst.   s( 9) = (     0          1          0      )    f =( -0.3333333 )
                  (     1          0          0      )       (  0.3333333 )
                  (     0          0          1      )       (  0.0000000 )

 cart.    s( 9) = ( -0.5000000  0.8660254  0.0000000 )    f =( -0.5000000 )
                  (  0.8660254  0.5000000  0.0000000 )       (  0.2886751 )
                  (  0.0000000  0.0000000  1.0000000 )       (  0.0000000 )


      isym = 10     inv. 180 deg rotation - cryst. axis [2,1,0]  

 cryst.   s(10) = (    -1         -1          0      )    f =( -0.3333333 )
                  (     0          1          0      )       (  0.3333333 )
                  (     0          0          1      )       (  0.0000000 )

 cart.    s(10) = ( -0.5000000 -0.8660254  0.0000000 )    f =( -0.5000000 )
                  ( -0.8660254  0.5000000  0.0000000 )       (  0.2886751 )
                  (  0.0000000  0.0000000  1.0000000 )       (  0.0000000 )


      isym = 11     inv. 180 deg rotation - cryst. axis [0,1,0]  

 cryst.   s(11) = (     1          1          0      )
                  (     0         -1          0      )
                  (     0          0          1      )

 cart.    s(11) = (  0.5000000  0.8660254  0.0000000 )
                  (  0.8660254 -0.5000000  0.0000000 )
                  (  0.0000000  0.0000000  1.0000000 )


      isym = 12     inv. 180 deg rotation - cryst. axis [1,1,0]  

 cryst.   s(12) = (     0         -1          0      )
                  (    -1          0          0      )
                  (     0          0          1      )

 cart.    s(12) = (  0.5000000 -0.8660254  0.0000000 )
                  ( -0.8660254 -0.5000000  0.0000000 )
                  (  0.0000000  0.0000000  1.0000000 )


     point group C_6v (6mm) 
     there are  6 classes
     the character table:

       E     2C6   2C3   C2    3s_v  3s_d 
A_1    1.00  1.00  1.00  1.00  1.00  1.00
A_2    1.00  1.00  1.00  1.00 -1.00 -1.00
B_1    1.00 -1.00  1.00 -1.00  1.00 -1.00
B_2    1.00 -1.00  1.00 -1.00 -1.00  1.00
E_1    2.00  1.00 -1.00 -2.00  0.00  0.00
E_2    2.00 -1.00 -1.00  2.00  0.00  0.00

     the symmetry operations in each class and the name of the first element:

     E        1
          identity                                               
     2C6      3    4
           60 deg rotation - cryst. axis [0,0,1]                 
     2C3      5    6
          120 deg rotation - cryst. axis [0,0,1]                 
     C2       2
          180 deg rotation - cart. axis [0,0,1]                  
     3s_v     8   12   11
          inv. 180 deg rotation - cart. axis [1,0,0]             
     3s_d     7    9   10
          inv. 180 deg rotation - cart. axis [0,1,0]             

   Cartesian axes

     site n.     atom                  positions (alat units)
         1           C   tau(   1) = (   0.0000000   0.0000000   0.0000000  )
         2           C   tau(   2) = (  -0.0000000   0.5773503   0.0000000  )
         3           C   tau(   3) = (   0.0000000   0.0000000   1.6200000  )
         4           C   tau(   4) = (  -0.0000000   0.5773503   1.6200000  )

   Crystallographic axes

     site n.     atom                  positions (cryst. coord.)
         1           C   tau(   1) = (  0.0000000  0.0000000  0.0000000  )
         2           C   tau(   2) = (  0.3333333  0.6666667  0.0000000  )
         3           C   tau(   3) = (  0.0000000  0.0000000  0.2700000  )
         4           C   tau(   4) = (  0.3333333  0.6666667  0.2700000  )

     number of k points=    19  Marzari-Vanderbilt smearing, width (Ry)=  0.0100
                       cart. coord. in units 2pi/alat
        k(    1) = (   0.0000000   0.0000000   0.0000000), wk =   0.0138889
        k(    2) = (   0.0000000   0.0962250   0.0000000), wk =   0.0833333
        k(    3) = (   0.0000000   0.1924501   0.0000000), wk =   0.0833333
        k(    4) = (   0.0000000   0.2886751   0.0000000), wk =   0.0833333
        k(    5) = (   0.0000000   0.3849002   0.0000000), wk =   0.0833333
        k(    6) = (   0.0000000   0.4811252   0.0000000), wk =   0.0833333
        k(    7) = (   0.0000000  -0.5773503   0.0000000), wk =   0.0416667
        k(    8) = (   0.0833333   0.1443376   0.0000000), wk =   0.0833333
        k(    9) = (   0.0833333   0.2405626   0.0000000), wk =   0.1666667
        k(   10) = (   0.0833333   0.3367877   0.0000000), wk =   0.1666667
        k(   11) = (   0.0833333   0.4330127   0.0000000), wk =   0.1666667
        k(   12) = (   0.0833333   0.5292377   0.0000000), wk =   0.1666667
        k(   13) = (   0.1666667   0.2886751   0.0000000), wk =   0.0833333
        k(   14) = (   0.1666667   0.3849002   0.0000000), wk =   0.1666667
        k(   15) = (   0.1666667   0.4811252   0.0000000), wk =   0.1666667
        k(   16) = (   0.1666667   0.5773503   0.0000000), wk =   0.0833333
        k(   17) = (   0.2500000   0.4330127   0.0000000), wk =   0.0833333
        k(   18) = (   0.2500000   0.5292377   0.0000000), wk =   0.1666667
        k(   19) = (   0.3333333   0.5773503   0.0000000), wk =   0.0277778

                       cryst. coord.
        k(    1) = (   0.0000000   0.0000000   0.0000000), wk =   0.0138889
        k(    2) = (   0.0000000   0.0833333   0.0000000), wk =   0.0833333
        k(    3) = (   0.0000000   0.1666667   0.0000000), wk =   0.0833333
        k(    4) = (   0.0000000   0.2500000   0.0000000), wk =   0.0833333
        k(    5) = (   0.0000000   0.3333333   0.0000000), wk =   0.0833333
        k(    6) = (   0.0000000   0.4166667   0.0000000), wk =   0.0833333
        k(    7) = (   0.0000000  -0.5000000   0.0000000), wk =   0.0416667
        k(    8) = (   0.0833333   0.0833333   0.0000000), wk =   0.0833333
        k(    9) = (   0.0833333   0.1666667   0.0000000), wk =   0.1666667
        k(   10) = (   0.0833333   0.2500000   0.0000000), wk =   0.1666667
        k(   11) = (   0.0833333   0.3333333   0.0000000), wk =   0.1666667
        k(   12) = (   0.0833333   0.4166667   0.0000000), wk =   0.1666667
        k(   13) = (   0.1666667   0.1666667   0.0000000), wk =   0.0833333
        k(   14) = (   0.1666667   0.2500000   0.0000000), wk =   0.1666667
        k(   15) = (   0.1666667   0.3333333   0.0000000), wk =   0.1666667
        k(   16) = (   0.1666667   0.4166667   0.0000000), wk =   0.0833333
        k(   17) = (   0.2500000   0.2500000   0.0000000), wk =   0.0833333
        k(   18) = (   0.2500000   0.3333333   0.0000000), wk =   0.1666667
        k(   19) = (   0.3333333   0.3333333   0.0000000), wk =   0.0277778

     Dense  grid:    32201 G-vectors     FFT dimensions: (  24,  24, 144)

     Dynamical RAM for                 wfc:       0.49 MB

     Dynamical RAM for     wfc (w. buffer):       9.82 MB

     Dynamical RAM for           str. fact:       0.49 MB

     Dynamical RAM for           local pot:       0.00 MB

     Dynamical RAM for          nlocal pot:       1.96 MB

     Dynamical RAM for                qrad:       0.36 MB

     Dynamical RAM for          rho,v,vnew:       3.37 MB

     Dynamical RAM for               rhoin:       1.12 MB

     Dynamical RAM for            rho*nmix:       7.86 MB

     Dynamical RAM for           G-vectors:       2.09 MB

     Dynamical RAM for          h,s,v(r/c):       0.01 MB

     Dynamical RAM for          <psi|beta>:       0.00 MB

     Dynamical RAM for                 psi:       0.98 MB

     Dynamical RAM for                hpsi:       0.98 MB

     Dynamical RAM for      wfcinit/wfcrot:       1.97 MB

     Estimated static dynamical RAM per process >      31.22 MB

     Estimated max dynamical RAM per process >      33.20 MB

     Initial potential from superposition of free atoms

     starting charge   15.99982, renormalised to   16.00000

     negative rho (up, down):  3.789E-06 0.000E+00
     Starting wfcs are   16 randomized atomic wfcs

     total cpu time spent up to now is        0.8 secs

     Self-consistent Calculation

     iteration #  1     ecut=    60.00 Ry     beta= 0.70
     Davidson diagonalization with overlap
     ethr =  1.00E-02,  avg # of iterations =  2.2

     total cpu time spent up to now is        1.9 secs

     total energy              =     -48.12898367 Ry
     estimated scf accuracy    <       0.36866778 Ry

     iteration #  2     ecut=    60.00 Ry     beta= 0.70
     Davidson diagonalization with overlap
     ethr =  2.30E-03,  avg # of iterations =  2.0

     total cpu time spent up to now is        2.8 secs

     total energy              =     -48.17348935 Ry
     estimated scf accuracy    <       0.00572992 Ry

     iteration #  3     ecut=    60.00 Ry     beta= 0.70
     Davidson diagonalization with overlap
     ethr =  3.58E-05,  avg # of iterations =  3.0

     total cpu time spent up to now is        4.0 secs

     total energy              =     -48.17662190 Ry
     estimated scf accuracy    <       0.00047690 Ry

     iteration #  4     ecut=    60.00 Ry     beta= 0.70
     Davidson diagonalization with overlap
     ethr =  2.98E-06,  avg # of iterations =  3.9

     total cpu time spent up to now is        5.2 secs

     total energy              =     -48.17679323 Ry
     estimated scf accuracy    <       0.00017491 Ry

     iteration #  5     ecut=    60.00 Ry     beta= 0.70
     Davidson diagonalization with overlap
     c_bands:  2 eigenvalues not converged
     ethr =  1.09E-06,  avg # of iterations =  3.1

     total cpu time spent up to now is        6.2 secs

     total energy              =     -48.17682292 Ry
     estimated scf accuracy    <       0.00007750 Ry

     iteration #  6     ecut=    60.00 Ry     beta= 0.70
     Davidson diagonalization with overlap
     c_bands:  2 eigenvalues not converged
     ethr =  4.84E-07,  avg # of iterations =  2.9

     total cpu time spent up to now is        7.2 secs

     total energy              =     -48.17683498 Ry
     estimated scf accuracy    <       0.00000396 Ry

     iteration #  7     ecut=    60.00 Ry     beta= 0.70
     Davidson diagonalization with overlap
     c_bands:  1 eigenvalues not converged
     ethr =  2.47E-08,  avg # of iterations =  5.3

     total cpu time spent up to now is        8.5 secs

     total energy              =     -48.17683780 Ry
     estimated scf accuracy    <       0.00000236 Ry

     iteration #  8     ecut=    60.00 Ry     beta= 0.70
     Davidson diagonalization with overlap
     ethr =  1.47E-08,  avg # of iterations =  1.9

     total cpu time spent up to now is        9.5 secs

     End of self-consistent calculation

          k = 0.0000 0.0000 0.0000 (  4005 PWs)   bands (ev):

   -18.7260 -18.6895  -6.9440  -6.5635  -1.9963  -1.9963  -1.9893  -1.9893

     occupation numbers 
     1.0000   1.0000   1.0000   1.0000   1.0000   1.0000   1.0000   1.0000

          k = 0.0000 0.0962 0.0000 (  4020 PWs)   bands (ev):

   -18.5593 -18.5236  -6.7423  -6.3643  -2.6568  -2.6506  -2.3463  -2.3403

     occupation numbers 
     1.0000   1.0000   1.0000   1.0000   1.0000   1.0000   1.0000   1.0000

          k = 0.0000 0.1925 0.0000 (  4038 PWs)   bands (ev):

   -18.0614 -18.0271  -6.1424  -5.7728  -4.3209  -4.3143  -3.1636  -3.1584

     occupation numbers 
     1.0000   1.0000   1.0000   1.0000   1.0000   1.0000   1.0000   1.0000

          k = 0.0000 0.2887 0.0000 (  4016 PWs)   bands (ev):

   -17.2376 -17.2053  -6.4544  -6.4434  -5.1623  -4.8081  -4.0702  -4.0646

     occupation numbers 
     1.0000   1.0000   1.0000   1.0000   1.0000   1.0000   1.0000   1.0000

          k = 0.0000 0.3849 0.0000 (  4040 PWs)   bands (ev):

   -16.1000 -16.0705  -8.6965  -8.6814  -4.8257  -4.8199  -3.8523  -3.5243

     occupation numbers 
     1.0000   1.0000   1.0000   1.0000   1.0000   1.0000   1.0000   1.0000

          k = 0.0000 0.4811 0.0000 (  4028 PWs)   bands (ev):

   -14.6773 -14.6510 -10.8360 -10.8178  -5.3120  -5.3061  -2.3744  -2.0873

     occupation numbers 
     1.0000   1.0000   1.0000   1.0000   1.0000   1.0000   1.0000   1.0000

          k = 0.0000-0.5774 0.0000 (  4024 PWs)   bands (ev):

   -13.3626 -13.3378 -12.3985 -12.3775  -5.4785  -5.4731  -1.4864  -1.2401

     occupation numbers 
     1.0000   1.0000   1.0000   1.0000   1.0000   1.0000   1.0000   1.0000

          k = 0.0833 0.1443 0.0000 (  4045 PWs)   bands (ev):

   -18.2270 -18.1924  -6.3418  -5.9691  -3.7054  -3.6996  -3.0452  -3.0392

     occupation numbers 
     1.0000   1.0000   1.0000   1.0000   1.0000   1.0000   1.0000   1.0000

          k = 0.0833 0.2406 0.0000 (  4025 PWs)   bands (ev):

   -17.5662 -17.5331  -5.5504  -5.4420  -5.4335  -5.1895  -4.0710  -4.0650

     occupation numbers 
     1.0000   1.0000   1.0000   1.0000   1.0000   1.0000   1.0000   1.0000

          k = 0.0833 0.3368 0.0000 (  4029 PWs)   bands (ev):

   -16.5856 -16.5548  -7.5518  -7.5391  -4.9807  -4.9740  -4.3991  -4.0584

     occupation numbers 
     1.0000   1.0000   1.0000   1.0000   1.0000   1.0000   1.0000   1.0000

          k = 0.0833 0.4330 0.0000 (  4009 PWs)   bands (ev):

   -15.3026 -15.2751  -9.7128  -9.6967  -5.6314  -5.6243  -2.9707  -2.6624

     occupation numbers 
     1.0000   1.0000   1.0000   1.0000   1.0000   1.0000   1.0000   1.0000

          k = 0.0833 0.5292 0.0000 (  4026 PWs)   bands (ev):

   -13.7879 -13.7631 -11.6989 -11.6791  -5.9684  -5.9616  -1.6033  -1.3446

     occupation numbers 
     1.0000   1.0000   1.0000   1.0000   1.0000   1.0000   1.0000   1.0000

          k = 0.1667 0.2887 0.0000 (  4032 PWs)   bands (ev):

   -16.7485 -16.7174  -6.7870  -6.7767  -5.4698  -5.4620  -4.5843  -4.2396

     occupation numbers 
     1.0000   1.0000   1.0000   1.0000   1.0000   1.0000   1.0000   1.0000

          k = 0.1667 0.3849 0.0000 (  4020 PWs)   bands (ev):

   -15.6215 -15.5934  -8.5449  -8.5312  -6.5480  -6.5390  -3.2893  -2.9700

     occupation numbers 
     1.0000   1.0000   1.0000   1.0000   1.0000   1.0000   1.0000   1.0000

          k = 0.1667 0.4811 0.0000 (  4002 PWs)   bands (ev):

   -14.2190 -14.1937 -10.4959 -10.4779  -7.1322  -7.1222  -1.8081  -1.5283

     occupation numbers 
     1.0000   1.0000   1.0000   1.0000   1.0000   1.0000   1.0000   1.0000

          k = 0.1667 0.5774 0.0000 (  4032 PWs)   bands (ev):

   -12.9377 -12.9143 -11.9830 -11.9635  -7.3205  -7.3101  -0.8723  -0.6319

     occupation numbers 
     1.0000   1.0000   1.0000   1.0000   1.0000   1.0000   1.0000   1.0000

          k = 0.2500 0.4330 0.0000 (  3996 PWs)   bands (ev):

   -14.3709 -14.3454  -9.5828  -9.5668  -8.0737  -8.0615  -1.8987  -1.6100

     occupation numbers 
     1.0000   1.0000   1.0000   1.0000   1.0000   1.0000   1.0000   1.0000

          k = 0.2500 0.5292 0.0000 (  4003 PWs)   bands (ev):

   -12.9156 -12.8931 -11.0393 -11.0206  -8.7918  -8.7785  -0.4590  -0.2106

     occupation numbers 
     1.0000   1.0000   1.0000   1.0000   1.0000   1.0000   1.0000   1.0000

          k = 0.3333 0.5774 0.0000 (  3942 PWs)   bands (ev):

   -11.6675 -11.6675 -11.6474 -11.6474  -9.7367  -9.7206   0.9434   0.9434

     occupation numbers 
     1.0000   1.0000   1.0000   1.0000   1.0000   1.0000   1.0000   1.0000

     the Fermi energy is     1.0687 ev

!    total energy              =     -48.17683784 Ry
     estimated scf accuracy    <       0.00000044 Ry
     smearing contrib. (-TS)   =       0.00004531 Ry
     internal energy E=F+TS    =     -48.17688314 Ry

     The total energy is F=E-TS. E is the sum of the following terms:
     one-electron contribution =    -240.23760641 Ry
     hartree contribution      =     124.72453816 Ry
     xc contribution           =     -17.23221837 Ry
     ewald contribution        =      84.56840347 Ry

     convergence has been achieved in   8 iterations

     Forces acting on atoms (cartesian axes, Ry/au):

     atom    1 type  1   force =    -0.00000000   -0.00000000   -0.00012124
     atom    2 type  1   force =    -0.00000000   -0.00000000   -0.00012124
     atom    3 type  1   force =    -0.00000000   -0.00000000    0.00012124
     atom    4 type  1   force =     0.00000000    0.00000000    0.00012124
     The non-local contrib.  to forces
     atom    1 type  1   force =    -0.00000000    0.00000000   -0.00024160
     atom    2 type  1   force =     0.00000000   -0.00000000   -0.00024160
     atom    3 type  1   force =     0.00000000    0.00000000    0.00025296
     atom    4 type  1   force =     0.00000000   -0.00000000    0.00025296
     The ionic contribution  to forces
     atom    1 type  1   force =    -0.00000001    0.00000001  -10.00593861
     atom    2 type  1   force =     0.00000001   -0.00000001  -10.00593861
     atom    3 type  1   force =    -0.00000001    0.00000001   10.00593861
     atom    4 type  1   force =     0.00000001   -0.00000001   10.00593861
     The local contribution  to forces
     atom    1 type  1   force =     0.00000000   -0.00000000   10.00643943
     atom    2 type  1   force =     0.00000001   -0.00000000   10.00643943
     atom    3 type  1   force =     0.00000000    0.00000000  -10.00573780
     atom    4 type  1   force =     0.00000001   -0.00000000  -10.00573780
     The core correction contribution to forces
     atom    1 type  1   force =     0.00000000   -0.00000000    0.00001432
     atom    2 type  1   force =    -0.00000000    0.00000000    0.00001432
     atom    3 type  1   force =     0.00000000   -0.00000000   -0.00001626
     atom    4 type  1   force =    -0.00000000    0.00000000   -0.00001626
     The Hubbard contrib.    to forces
     atom    1 type  1   force =     0.00000000    0.00000000    0.00000000
     atom    2 type  1   force =     0.00000000    0.00000000    0.00000000
     atom    3 type  1   force =     0.00000000    0.00000000    0.00000000
     atom    4 type  1   force =     0.00000000    0.00000000    0.00000000
     The SCF correction term to forces
     atom    1 type  1   force =    -0.00000000    0.00000000   -0.00041008
     atom    2 type  1   force =     0.00000000   -0.00000000   -0.00041008
     atom    3 type  1   force =    -0.00000000    0.00000000   -0.00033156
     atom    4 type  1   force =     0.00000000   -0.00000000   -0.00033156

     Total force =     0.000242     Total SCF correction =     0.000746
     SCF correction compared to forces is large: reduce conv_thr to get better values


     Computing stress (Cartesian axis) and pressure

          total   stress  (Ry/bohr**3)                   (kbar)     P=       13.27
   0.00020872   0.00000000   0.00000000           30.70        0.00        0.00
   0.00000000   0.00020872   0.00000000            0.00       30.70        0.00
   0.00000000   0.00000000  -0.00014681            0.00        0.00      -21.60

     kinetic stress (kbar)   6260.81      0.00      0.00
                                0.00   6260.81      0.00
                                0.00      0.00   6882.31

     local   stress (kbar) -75187.94      0.00      0.00
                                0.00 -75187.94     -0.00
                                0.00     -0.00  77134.25

     nonloc. stress (kbar)   -653.62      0.00      0.00
                                0.00   -653.62      0.00
                                0.00      0.00   -546.07

     hartree stress (kbar)  35331.70     -0.00      0.00
                               -0.00  35331.70      0.00
                                0.00      0.00 -34863.06

     exc-cor stress (kbar)   -498.08     -0.00      0.00
                               -0.00   -498.08     -0.00
                                0.00     -0.00   -557.03

     corecor stress (kbar)   -937.87      0.00     -0.00
                                0.00   -937.87      0.00
                               -0.00      0.00   -914.72

     ewald   stress (kbar)  35715.70     -0.00     -0.00
                               -0.00  35715.70      0.00
                               -0.00      0.00 -47157.28

     hubbard stress (kbar)      0.00      0.00      0.00
                                0.00      0.00      0.00
                                0.00      0.00      0.00

     DFT-D   stress (kbar)      0.00      0.00      0.00
                                0.00      0.00      0.00
                                0.00      0.00      0.00

     XDM     stress (kbar)      0.00      0.00      0.00
                                0.00      0.00      0.00
                                0.00      0.00      0.00

     dft-nl  stress (kbar)      0.00      0.00      0.00
                                0.00      0.00      0.00
                                0.00      0.00      0.00

     TS-vdW  stress (kbar)      0.00      0.00      0.00
                                0.00      0.00      0.00
                                0.00      0.00      0.00



     Writing output data file ./tmp/graphene.save/

     init_run     :      1.65s CPU      0.74s WALL (       1 calls)
     electrons    :     21.68s CPU      8.73s WALL (       1 calls)
     forces       :      0.41s CPU      0.15s WALL (       1 calls)
     stress       :      1.30s CPU      0.66s WALL (       1 calls)

     Called by init_run:
     wfcinit      :      1.57s CPU      0.65s WALL (       1 calls)
     wfcinit:atom :      0.04s CPU      0.01s WALL (      19 calls)
     wfcinit:wfcr :      1.35s CPU      0.55s WALL (      19 calls)
     potinit      :      0.03s CPU      0.03s WALL (       1 calls)
     hinit0       :      0.04s CPU      0.04s WALL (       1 calls)

     Called by electrons:
     c_bands      :     19.13s CPU      7.40s WALL (       8 calls)
     sum_band     :      2.33s CPU      1.12s WALL (       8 calls)
     v_of_rho     :      0.21s CPU      0.20s WALL (       9 calls)
     v_h          :      0.01s CPU      0.01s WALL (       9 calls)
     v_xc         :      0.35s CPU      0.27s WALL (      11 calls)
     mix_rho      :      0.03s CPU      0.03s WALL (       8 calls)

     Called by c_bands:
     init_us_2    :      0.81s CPU      0.31s WALL (     361 calls)
     cegterg      :     17.08s CPU      6.70s WALL (     152 calls)

     Called by sum_band:
     sum_band:wei :      0.00s CPU      0.00s WALL (       8 calls)
     sum_band:loo :      2.29s CPU      1.09s WALL (       8 calls)
     sum_band:buf :      0.03s CPU      0.01s WALL (     152 calls)
     sum_band:ini :      0.26s CPU      0.12s WALL (     152 calls)

     Called by *egterg:
     cdiaghg      :      0.19s CPU      0.06s WALL (     615 calls)
     cegterg:over :      0.31s CPU      0.11s WALL (     463 calls)
     cegterg:upda :      0.20s CPU      0.07s WALL (     463 calls)
     cegterg:last :      0.27s CPU      0.09s WALL (     367 calls)
     h_psi        :     16.98s CPU      6.77s WALL (     634 calls)
     g_psi        :      0.21s CPU      0.06s WALL (     463 calls)

     Called by h_psi:
     h_psi:calbec :      0.44s CPU      0.23s WALL (     634 calls)
     vloc_psi     :     16.12s CPU      6.40s WALL (     634 calls)
     add_vuspsi   :      0.30s CPU      0.11s WALL (     634 calls)

     General routines
     calbec       :      0.56s CPU      0.31s WALL (     729 calls)
     fft          :      0.14s CPU      0.10s WALL (     114 calls)
     ffts         :      0.01s CPU      0.01s WALL (       8 calls)
     fftw         :     15.39s CPU      6.23s WALL (    8988 calls)

     Parallel routines

     PWSCF        :     25.13s CPU     10.35s WALL


   This run was terminated on:  10:48:56  15Feb2024            

=------------------------------------------------------------------------------=
   JOB DONE.
=------------------------------------------------------------------------------=
