
     Program BANDS v.6.7MaX starts on 14Feb2024 at 17:26:35 

     This program is part of the open-source Quantum ESPRESSO suite
     for quantum simulation of materials; please cite
         "P. Giannozzi et al., J. Phys.:Condens. Matter 21 395502 (2009);
         "P. Giannozzi et al., J. Phys.:Condens. Matter 29 465901 (2017);
          URL http://www.quantum-espresso.org", 
     in publications or presentations arising from this work. More details at
     http://www.quantum-espresso.org/quote

     Parallel version (MPI), running on     1 processors

     MPI processes distributed on     1 nodes

     Reading xml data from directory:

     ./tmp/graphene.save/
     Message from routine read_pp_mesh:
     mesh size missing, using the one in header

     IMPORTANT: XC functional enforced from input :
     Exchange-correlation= PBE
                           (   1   4   3   4   0   0   0)
     Any further DFT definition will be discarded
     Please, verify this is what you really want


     G-vector sticks info
     --------------------
     sticks:   dense  smooth     PW     G-vecs:    dense   smooth      PW
     Sum         361     361    109                32909    32909    5681

     Reading collected, re-writing distributed wavefunctions
     high-symmetry point:  0.0000 0.0000 0.0000   x coordinate   0.0000
     high-symmetry point: -0.3333 0.5774 0.0000   x coordinate   0.6667
     high-symmetry point:  0.0000 0.5774 0.0000   x coordinate   1.0000
     high-symmetry point:  0.0000 0.0000 0.0000   x coordinate   1.5773

     Plottable bands (eV) written to file graphene_PBE.dat.gnu
     Bands written to file graphene_PBE.dat

 **************************************************************************

                    xk=(   0.00000,   0.00000,   0.00000  )

     point group D_6h(6/mmm)
     there are 12 classes
     the character table:

       E     2C6   2C3   C2    3C2'  3C2'' i     2S3   2S6   s_h   3s_d  3s_v 
A_1g   1.00  1.00  1.00  1.00  1.00  1.00  1.00  1.00  1.00  1.00  1.00  1.00
A_2g   1.00  1.00  1.00  1.00 -1.00 -1.00  1.00  1.00  1.00  1.00 -1.00 -1.00
B_1g   1.00 -1.00  1.00 -1.00  1.00 -1.00  1.00 -1.00  1.00 -1.00  1.00 -1.00
B_2g   1.00 -1.00  1.00 -1.00 -1.00  1.00  1.00 -1.00  1.00 -1.00 -1.00  1.00
E_1g   2.00  1.00 -1.00 -2.00  0.00  0.00  2.00  1.00 -1.00 -2.00  0.00  0.00
E_2g   2.00 -1.00 -1.00  2.00  0.00  0.00  2.00 -1.00 -1.00  2.00  0.00  0.00
A_1u   1.00  1.00  1.00  1.00  1.00  1.00 -1.00 -1.00 -1.00 -1.00 -1.00 -1.00
A_2u   1.00  1.00  1.00  1.00 -1.00 -1.00 -1.00 -1.00 -1.00 -1.00  1.00  1.00
B_1u   1.00 -1.00  1.00 -1.00  1.00 -1.00 -1.00  1.00 -1.00  1.00 -1.00  1.00
B_2u   1.00 -1.00  1.00 -1.00 -1.00  1.00 -1.00  1.00 -1.00  1.00  1.00 -1.00
E_1u   2.00  1.00 -1.00 -2.00  0.00  0.00 -2.00 -1.00  1.00  2.00  0.00  0.00
E_2u   2.00 -1.00 -1.00  2.00  0.00  0.00 -2.00  1.00  1.00 -2.00  0.00  0.00

     the symmetry operations in each class and the name of the first element:

     E        1
                                                                 
     2C6      5    6
                                                                 
     2C3      7    8
                                                                 
     C2       2
                                                                 
     3C2'     4   12   11
                                                                 
     3C2''    3    9   10
                                                                 
     i       13
                                                                 
     2S3     17   18
                                                                 
     2S6     19   20
                                                                 
     s_h     14
                                                                 
     3s_d    16   24   23
                                                                 
     3s_v    15   21   22
                                                                 

     Band symmetry, D_6h(6/mmm) point group:

     e(  1 -  1) =    -21.25183  eV     1   --> A_1g           
     e(  2 -  2) =     -9.32362  eV     1   --> A_2u           
     e(  3 -  4) =     -4.70905  eV     2   --> E_2g           
     e(  5 -  5) =      1.57760  eV     1   --> A_1g           
     e(  6 -  6) =      2.48740  eV     1   --> A_2u           
     e(  7 -  7) =      3.01507  eV     1   --> A_1g           
     e(  8 -  8) =      4.95092  eV     1   --> A_2u           

 **************************************************************************

 **************************************************************************

                    xk=(  -0.01587,   0.02749,   0.00000  )

     point group C_2v (mm2) 
     there are  4 classes
     the character table:

       E     C2    s_v   s_v' 
A_1    1.00  1.00  1.00  1.00
A_2    1.00  1.00 -1.00 -1.00
B_1    1.00 -1.00  1.00 -1.00
B_2    1.00 -1.00 -1.00  1.00

     the symmetry operations in each class and the name of the first element:

     E        1
                                                                 
     C2       2
                                                                 
     s_v      4
                                                                 
     s_v'     3
                                                                 

     Band symmetry, C_2v (mm2)  point group:

     e(  1 -  1) =    -21.23385  eV     1   --> A_1  D_1  S_1  
     e(  2 -  2) =     -9.30195  eV     1   --> B_1  D_3  S_3  
     e(  3 -  3) =     -4.78337  eV     1   --> B_2  D_4  S_4  
     e(  4 -  4) =     -4.74893  eV     1   --> A_1  D_1  S_1  
     e(  5 -  5) =      1.60196  eV     1   --> A_1  D_1  S_1  
     e(  6 -  6) =      2.51198  eV     1   --> B_1  D_3  S_3  
     e(  7 -  7) =      3.03984  eV     1   --> A_1  D_1  S_1  
     e(  8 -  8) =      4.97533  eV     1   --> B_1  D_3  S_3  

 **************************************************************************

 **************************************************************************

                    xk=(  -0.03174,   0.05499,   0.00000  )

     Band symmetry, C_2v (mm2)  point group:

     e(  1 -  1) =    -21.18021  eV     1   --> A_1  D_1  S_1  
     e(  2 -  2) =     -9.23757  eV     1   --> B_1  D_3  S_3  
     e(  3 -  3) =     -4.99993  eV     1   --> B_2  D_4  S_4  
     e(  4 -  4) =     -4.86747  eV     1   --> A_1  D_1  S_1  
     e(  5 -  5) =      1.67502  eV     1   --> A_1  D_1  S_1  
     e(  6 -  6) =      2.58564  eV     1   --> B_1  D_3  S_3  
     e(  7 -  7) =      3.11417  eV     1   --> A_1  D_1  S_1  
     e(  8 -  8) =      5.04844  eV     1   --> B_1  D_3  S_3  

 **************************************************************************

 **************************************************************************

                    xk=(  -0.04761,   0.08248,   0.00000  )

     Band symmetry, C_2v (mm2)  point group:

     e(  1 -  1) =    -21.09078  eV     1   --> A_1  D_1  S_1  
     e(  2 -  2) =     -9.13030  eV     1   --> B_1  D_3  S_3  
     e(  3 -  3) =     -5.33803  eV     1   --> B_2  D_4  S_4  
     e(  4 -  4) =     -5.06102  eV     1   --> A_1  D_1  S_1  
     e(  5 -  5) =      1.79682  eV     1   --> A_1  D_1  S_1  
     e(  6 -  6) =      2.70837  eV     1   --> B_1  D_3  S_3  
     e(  7 -  7) =      3.23806  eV     1   --> A_1  D_1  S_1  
     e(  8 -  8) =      5.17025  eV     1   --> B_1  D_3  S_3  

 **************************************************************************

 **************************************************************************

                    xk=(  -0.06349,   0.10998,   0.00000  )

     point group C_s (m)    
     there are  2 classes
     the character table:

       E     s    
A'     1.00  1.00
A''    1.00 -1.00

     the symmetry operations in each class and the name of the first element:

     E        1
                                                                 
     s        2
                                                                 

     Band symmetry, C_s (m)     point group:

     e(  1 -  1) =    -20.96568  eV     1   --> A'             
     e(  2 -  2) =     -8.98024  eV     1   --> A''            
     e(  3 -  3) =     -5.77032  eV     1   --> A'             
     e(  4 -  4) =     -5.32301  eV     1   --> A'             
     e(  5 -  5) =      1.96738  eV     1   --> A'             
     e(  6 -  6) =      2.88012  eV     1   --> A''            
     e(  7 -  7) =      3.41154  eV     1   --> A'             
     e(  8 -  8) =      5.34066  eV     1   --> A''            

 **************************************************************************

 **************************************************************************

                    xk=(  -0.07936,   0.13747,   0.00000  )

     Band symmetry, C_s (m)     point group:

     e(  1 -  1) =    -20.80520  eV     1   --> A'             
     e(  2 -  2) =     -8.78870  eV     1   --> A''            
     e(  3 -  3) =     -6.27198  eV     1   --> A'             
     e(  4 -  4) =     -5.64624  eV     1   --> A'             
     e(  5 -  5) =      2.18668  eV     1   --> A'             
     e(  6 -  6) =      3.10068  eV     1   --> A''            
     e(  7 -  7) =      3.63462  eV     1   --> A'             
     e(  8 -  8) =      5.55935  eV     1   --> A''            

 **************************************************************************

 **************************************************************************

                    xk=(  -0.09523,   0.16496,   0.00000  )

     Band symmetry, C_s (m)     point group:

     e(  1 -  1) =    -20.60937  eV     1   --> A'             
     e(  2 -  2) =     -8.55548  eV     1   --> A''            
     e(  3 -  3) =     -6.82036  eV     1   --> A'             
     e(  4 -  4) =     -6.02206  eV     1   --> A'             
     e(  5 -  5) =      2.45470  eV     1   --> A'             
     e(  6 -  6) =      3.36995  eV     1   --> A''            
     e(  7 -  7) =      3.90731  eV     1   --> A'             
     e(  8 -  8) =      5.82615  eV     1   --> A''            

 **************************************************************************

 **************************************************************************

                    xk=(  -0.11110,   0.19246,   0.00000  )

     Band symmetry, C_s (m)     point group:

     e(  1 -  1) =    -20.37838  eV     1   --> A'             
     e(  2 -  2) =     -8.28096  eV     1   --> A''            
     e(  3 -  3) =     -7.39649  eV     1   --> A'             
     e(  4 -  4) =     -6.44074  eV     1   --> A'             
     e(  5 -  5) =      2.77140  eV     1   --> A'             
     e(  6 -  6) =      3.68772  eV     1   --> A''            
     e(  7 -  7) =      4.22961  eV     1   --> A'             
     e(  8 -  8) =      6.14070  eV     1   --> A''            

 **************************************************************************

 **************************************************************************

                    xk=(  -0.12697,   0.21995,   0.00000  )

     Band symmetry, C_s (m)     point group:

     e(  1 -  1) =    -20.11295  eV     1   --> A'             
     e(  2 -  2) =     -7.98789  eV     1   --> A'             
     e(  3 -  3) =     -7.96778  eV     1   --> A''            
     e(  4 -  4) =     -6.89402  eV     1   --> A'             
     e(  5 -  5) =      3.13662  eV     1   --> A'             
     e(  6 -  6) =      4.05346  eV     1   --> A''            
     e(  7 -  7) =      4.60149  eV     1   --> A'             
     e(  8 -  8) =      6.50220  eV     1   --> A''            

 **************************************************************************

 **************************************************************************

                    xk=(  -0.14284,   0.24744,   0.00000  )

     Band symmetry, C_s (m)     point group:

     e(  1 -  1) =    -19.81319  eV     1   --> A'             
     e(  2 -  2) =     -8.58162  eV     1   --> A'             
     e(  3 -  3) =     -7.61555  eV     1   --> A''            
     e(  4 -  4) =     -7.37158  eV     1   --> A'             
     e(  5 -  5) =      3.55021  eV     1   --> A'             
     e(  6 -  6) =      4.46681  eV     1   --> A''            
     e(  7 -  7) =      5.02290  eV     1   --> A'             
     e(  8 -  8) =      5.83203  eV     1   --> A''            

 **************************************************************************

 **************************************************************************

                    xk=(  -0.15871,   0.27494,   0.00000  )

     Band symmetry, C_s (m)     point group:

     e(  1 -  1) =    -19.47971  eV     1   --> A'             
     e(  2 -  2) =     -9.17086  eV     1   --> A'             
     e(  3 -  3) =     -7.86485  eV     1   --> A'             
     e(  4 -  4) =     -7.22657  eV     1   --> A''            
     e(  5 -  5) =      4.01194  eV     1   --> A'             
     e(  6 -  6) =      4.92689  eV     1   --> A''            
     e(  7 -  7) =      5.12399  eV     1   --> A''            
     e(  8 -  8) =      5.49380  eV     1   --> A'             

 **************************************************************************

 **************************************************************************

                    xk=(  -0.17459,   0.30243,   0.00000  )

     Band symmetry, C_s (m)     point group:

     e(  1 -  1) =    -19.11321  eV     1   --> A'             
     e(  2 -  2) =     -9.74918  eV     1   --> A'             
     e(  3 -  3) =     -8.36686  eV     1   --> A'             
     e(  4 -  4) =     -6.80266  eV     1   --> A''            
     e(  5 -  5) =      4.41024  eV     1   --> A''            
     e(  6 -  6) =      4.52147  eV     1   --> A'             
     e(  7 -  7) =      5.43248  eV     1   --> A''            
     e(  8 -  8) =      6.01408  eV     1   --> A'             

 **************************************************************************

 **************************************************************************

                    xk=(  -0.19046,   0.32993,   0.00000  )

     Band symmetry, C_s (m)     point group:

     e(  1 -  1) =    -18.71433  eV     1   --> A'             
     e(  2 -  2) =    -10.31255  eV     1   --> A'             
     e(  3 -  3) =     -8.87043  eV     1   --> A'             
     e(  4 -  4) =     -6.34634  eV     1   --> A''            
     e(  5 -  5) =      3.70107  eV     1   --> A''            
     e(  6 -  6) =      5.07836  eV     1   --> A'             
     e(  7 -  7) =      5.98148  eV     1   --> A''            
     e(  8 -  8) =      6.58362  eV     1   --> A'             

 **************************************************************************

 **************************************************************************

                    xk=(  -0.20633,   0.35742,   0.00000  )

     Band symmetry, C_s (m)     point group:

     e(  1 -  1) =    -18.28451  eV     1   --> A'             
     e(  2 -  2) =    -10.85677  eV     1   --> A'             
     e(  3 -  3) =     -9.36964  eV     1   --> A'             
     e(  4 -  4) =     -5.86043  eV     1   --> A''            
     e(  5 -  5) =      3.00289  eV     1   --> A''            
     e(  6 -  6) =      5.68187  eV     1   --> A'             
     e(  7 -  7) =      6.57018  eV     1   --> A''            
     e(  8 -  8) =      7.20219  eV     1   --> A'             

 **************************************************************************

 **************************************************************************

                    xk=(  -0.22220,   0.38491,   0.00000  )

     Band symmetry, C_s (m)     point group:

     e(  1 -  1) =    -17.82524  eV     1   --> A'             
     e(  2 -  2) =    -11.37947  eV     1   --> A'             
     e(  3 -  3) =     -9.85814  eV     1   --> A'             
     e(  4 -  4) =     -5.34935  eV     1   --> A''            
     e(  5 -  5) =      2.32136  eV     1   --> A''            
     e(  6 -  6) =      6.33101  eV     1   --> A'             
     e(  7 -  7) =      7.19115  eV     1   --> A''            
     e(  8 -  8) =      7.86948  eV     1   --> A'             

 **************************************************************************

 **************************************************************************

                    xk=(  -0.23807,   0.41241,   0.00000  )

     Band symmetry, C_s (m)     point group:

     e(  1 -  1) =    -17.33843  eV     1   --> A'             
     e(  2 -  2) =    -11.87828  eV     1   --> A'             
     e(  3 -  3) =    -10.33058  eV     1   --> A'             
     e(  4 -  4) =     -4.81785  eV     1   --> A''            
     e(  5 -  5) =      1.66202  eV     1   --> A''            
     e(  6 -  6) =      7.02418  eV     1   --> A'             
     e(  7 -  7) =      7.82799  eV     1   --> A''            
     e(  8 -  8) =      8.58494  eV     1   --> A'             

 **************************************************************************

 **************************************************************************

                    xk=(  -0.25394,   0.43990,   0.00000  )

     Band symmetry, C_s (m)     point group:

     e(  1 -  1) =    -16.82685  eV     1   --> A'             
     e(  2 -  2) =    -12.35160  eV     1   --> A'             
     e(  3 -  3) =    -10.78177  eV     1   --> A'             
     e(  4 -  4) =     -4.27090  eV     1   --> A''            
     e(  5 -  5) =      1.02907  eV     1   --> A''            
     e(  6 -  6) =      7.75864  eV     1   --> A'             
     e(  7 -  7) =      8.43932  eV     1   --> A''            
     e(  8 -  8) =      9.34754  eV     1   --> A'             

 **************************************************************************

 **************************************************************************

                    xk=(  -0.26981,   0.46739,   0.00000  )

     Band symmetry, C_s (m)     point group:

     e(  1 -  1) =    -16.29552  eV     1   --> A'             
     e(  2 -  2) =    -12.79855  eV     1   --> A'             
     e(  3 -  3) =    -11.20527  eV     1   --> A'             
     e(  4 -  4) =     -3.71715  eV     1   --> A''            
     e(  5 -  5) =      0.42572  eV     1   --> A''            
     e(  6 -  6) =      8.52935  eV     1   --> A'             
     e(  7 -  7) =      8.91991  eV     1   --> A''            
     e(  8 -  8) =     10.15487  eV     1   --> A'             

 **************************************************************************

 **************************************************************************

                    xk=(  -0.28569,   0.49489,   0.00000  )

     Band symmetry, C_s (m)     point group:

     e(  1 -  1) =    -15.75287  eV     1   --> A'             
     e(  2 -  2) =    -13.21809  eV     1   --> A'             
     e(  3 -  3) =    -11.59196  eV     1   --> A'             
     e(  4 -  4) =     -3.16685  eV     1   --> A''            
     e(  5 -  5) =     -0.14606  eV     1   --> A''            
     e(  6 -  6) =      9.12828  eV     1   --> A''            
     e(  7 -  7) =      9.32601  eV     1   --> A'             
     e(  8 -  8) =     10.99831  eV     1   --> A'             

 **************************************************************************

 **************************************************************************

                    xk=(  -0.30156,   0.52238,   0.00000  )

     Band symmetry, C_s (m)     point group:

     e(  1 -  1) =    -15.21332  eV     1   --> A'             
     e(  2 -  2) =    -13.60970  eV     1   --> A'             
     e(  3 -  3) =    -11.92755  eV     1   --> A'             
     e(  4 -  4) =     -2.63024  eV     1   --> A''            
     e(  5 -  5) =     -0.68484  eV     1   --> A''            
     e(  6 -  6) =      9.11538  eV     1   --> A''            
     e(  7 -  7) =     10.12416  eV     1   --> A'             
     e(  8 -  8) =     11.45324  eV     1   --> A'             

 **************************************************************************

 **************************************************************************

                    xk=(  -0.31743,   0.54988,   0.00000  )

     Band symmetry, C_s (m)     point group:

     e(  1 -  1) =    -14.70854  eV     1   --> A'             
     e(  2 -  2) =    -13.97222  eV     1   --> A'             
     e(  3 -  3) =    -12.18080  eV     1   --> A'             
     e(  4 -  4) =     -2.12025  eV     1   --> A''            
     e(  5 -  5) =     -1.18667  eV     1   --> A''            
     e(  6 -  6) =      9.04492  eV     1   --> A''            
     e(  7 -  7) =     10.85344  eV     1   --> A'             
     e(  8 -  8) =     11.41909  eV     1   --> A'             

 **************************************************************************

 **************************************************************************

                    xk=(  -0.33330,   0.57737,   0.00000  )

     Band symmetry, C_s (m)     point group:

     e(  1 -  1) =    -14.30556  eV     1   --> A'             
     e(  2 -  2) =    -14.30478  eV     1   --> A'             
     e(  3 -  3) =    -12.28655  eV     1   --> A'             
     e(  4 -  4) =     -1.65096  eV     1   --> A''            
     e(  5 -  5) =     -1.64987  eV     1   --> A''            
     e(  6 -  6) =      9.01072  eV     1   --> A''            
     e(  7 -  7) =     11.29122  eV     1   --> A'             
     e(  8 -  8) =     11.29164  eV     1   --> A'             

 **************************************************************************

 **************************************************************************

                    xk=(  -0.30300,   0.57737,   0.00000  )

     Band symmetry, C_s (m)     point group:

     e(  1 -  1) =    -14.59620  eV     1   --> A'             
     e(  2 -  2) =    -14.10425  eV     1   --> A'             
     e(  3 -  3) =    -12.16516  eV     1   --> A'             
     e(  4 -  4) =     -2.05776  eV     1   --> A''            
     e(  5 -  5) =     -1.25191  eV     1   --> A''            
     e(  6 -  6) =      9.04904  eV     1   --> A''            
     e(  7 -  7) =     11.09688  eV     1   --> A'             
     e(  8 -  8) =     11.24027  eV     1   --> A'             

 **************************************************************************

 **************************************************************************

                    xk=(  -0.27270,   0.57737,   0.00000  )

     Band symmetry, C_s (m)     point group:

     e(  1 -  1) =    -14.85959  eV     1   --> A'             
     e(  2 -  2) =    -14.09696  eV     1   --> A'             
     e(  3 -  3) =    -11.81585  eV     1   --> A'             
     e(  4 -  4) =     -2.42755  eV     1   --> A''            
     e(  5 -  5) =     -0.91015  eV     1   --> A''            
     e(  6 -  6) =      9.16839  eV     1   --> A''            
     e(  7 -  7) =     10.86154  eV     1   --> A'             
     e(  8 -  8) =     10.94513  eV     1   --> A'             

 **************************************************************************

 **************************************************************************

                    xk=(  -0.24240,   0.57736,   0.00000  )

     Band symmetry, C_s (m)     point group:

     e(  1 -  1) =    -15.09568  eV     1   --> A'             
     e(  2 -  2) =    -14.20065  eV     1   --> A'             
     e(  3 -  3) =    -11.32766  eV     1   --> A'             
     e(  4 -  4) =     -2.76054  eV     1   --> A''            
     e(  5 -  5) =     -0.63068  eV     1   --> A''            
     e(  6 -  6) =      9.36320  eV     1   --> A''            
     e(  7 -  7) =     10.38799  eV     1   --> A'             
     e(  8 -  8) =     10.61215  eV     1   --> A'             

 **************************************************************************

 **************************************************************************

                    xk=(  -0.21210,   0.57736,   0.00000  )

     Band symmetry, C_s (m)     point group:

     e(  1 -  1) =    -15.30431  eV     1   --> A'             
     e(  2 -  2) =    -14.34414  eV     1   --> A'             
     e(  3 -  3) =    -10.78039  eV     1   --> A'             
     e(  4 -  4) =     -3.05585  eV     1   --> A''            
     e(  5 -  5) =     -0.41186  eV     1   --> A''            
     e(  6 -  6) =      9.61093  eV     1   --> A''            
     e(  7 -  7) =      9.61299  eV     1   --> A'             
     e(  8 -  8) =     10.36859  eV     1   --> A'             

 **************************************************************************

 **************************************************************************

                    xk=(  -0.18180,   0.57736,   0.00000  )

     Band symmetry, C_s (m)     point group:

     e(  1 -  1) =    -15.48535  eV     1   --> A'             
     e(  2 -  2) =    -14.49241  eV     1   --> A'             
     e(  3 -  3) =    -10.22044  eV     1   --> A'             
     e(  4 -  4) =     -3.31288  eV     1   --> A''            
     e(  5 -  5) =     -0.24963  eV     1   --> A''            
     e(  6 -  6) =      8.79319  eV     1   --> A'             
     e(  7 -  7) =      9.87162  eV     1   --> A''            
     e(  8 -  8) =     10.14357  eV     1   --> A'             

 **************************************************************************

 **************************************************************************

                    xk=(  -0.15150,   0.57736,   0.00000  )

     Band symmetry, C_s (m)     point group:

     e(  1 -  1) =    -15.63865  eV     1   --> A'             
     e(  2 -  2) =    -14.62917  eV     1   --> A'             
     e(  3 -  3) =     -9.67730  eV     1   --> A'             
     e(  4 -  4) =     -3.53098  eV     1   --> A''            
     e(  5 -  5) =     -0.13462  eV     1   --> A''            
     e(  6 -  6) =      8.00484  eV     1   --> A'             
     e(  7 -  7) =      9.94522  eV     1   --> A'             
     e(  8 -  8) =     10.12482  eV     1   -->   ?

 **************************************************************************

 **************************************************************************

                    xk=(  -0.12120,   0.57736,   0.00000  )

     Band symmetry, C_s (m)     point group:

     e(  1 -  1) =    -15.76407  eV     1   --> A'             
     e(  2 -  2) =    -14.74669  eV     1   --> A'             
     e(  3 -  3) =     -9.17729  eV     1   --> A'             
     e(  4 -  4) =     -3.71001  eV     1   --> A''            
     e(  5 -  5) =     -0.05698  eV     1   --> A''            
     e(  6 -  6) =      7.29127  eV     1   --> A'             
     e(  7 -  7) =      9.77839  eV     1   --> A'             
     e(  8 -  8) =      9.94408  eV     1   --> A'             

 **************************************************************************

 **************************************************************************

                    xk=(  -0.09090,   0.57736,   0.00000  )

     zone border point and non-symmorphic group 
     symmetry decomposition not available

 **************************************************************************

 **************************************************************************

                    xk=(  -0.06060,   0.57735,   0.00000  )

     zone border point and non-symmorphic group 
     symmetry decomposition not available

 **************************************************************************

 **************************************************************************

                    xk=(  -0.03030,   0.57735,   0.00000  )

     zone border point and non-symmorphic group 
     symmetry decomposition not available

 **************************************************************************

 **************************************************************************

                    xk=(   0.00000,   0.57735,   0.00000  )

     zone border point and non-symmorphic group 
     symmetry decomposition not available

 **************************************************************************

 **************************************************************************

                    xk=(   0.00000,   0.54528,   0.00000  )

     point group C_2v (mm2) 
     there are  4 classes
     the character table:

       E     C2    s_v   s_v' 
A_1    1.00  1.00  1.00  1.00
A_2    1.00  1.00 -1.00 -1.00
B_1    1.00 -1.00  1.00 -1.00
B_2    1.00 -1.00 -1.00  1.00

     the symmetry operations in each class and the name of the first element:

     E        1
                                                                 
     C2       2
                                                                 
     s_v      3
                                                                 
     s_v'     4
                                                                 

     Band symmetry, C_2v (mm2)  point group:

     e(  1 -  1) =    -16.26170  eV     1   --> A_1  D_1  S_1  
     e(  2 -  2) =    -14.66319  eV     1   --> A_1  D_1  S_1  
     e(  3 -  3) =     -8.10854  eV     1   --> B_1  D_3  S_3  
     e(  4 -  4) =     -4.14651  eV     1   --> B_2  D_4  S_4  
     e(  5 -  5) =      0.18834  eV     1   --> B_2  D_4  S_4  
     e(  6 -  6) =      5.84739  eV     1   --> A_1  D_1  S_1  
     e(  7 -  7) =      8.70474  eV     1   --> A_1  D_1  S_1  
     e(  8 -  8) =      9.63945  eV     1   --> B_2  D_4  S_4  

 **************************************************************************

 **************************************************************************

                    xk=(   0.00000,   0.51320,   0.00000  )

     Band symmetry, C_2v (mm2)  point group:

     e(  1 -  1) =    -16.75088  eV     1   --> A_1  D_1  S_1  
     e(  2 -  2) =    -14.09209  eV     1   --> A_1  D_1  S_1  
     e(  3 -  3) =     -8.05368  eV     1   --> B_1  D_3  S_3  
     e(  4 -  4) =     -4.45642  eV     1   --> B_2  D_4  S_4  
     e(  5 -  5) =      0.58288  eV     1   --> B_2  D_4  S_4  
     e(  6 -  6) =      5.87446  eV     1   --> A_1  D_1  S_1  
     e(  7 -  7) =      7.90884  eV     1   --> A_1  D_1  S_1  
     e(  8 -  8) =      8.84786  eV     1   --> B_2  D_4  S_4  

 **************************************************************************

 **************************************************************************

                    xk=(   0.00000,   0.48113,   0.00000  )

     Band symmetry, C_2v (mm2)  point group:

     e(  1 -  1) =    -17.26029  eV     1   --> A_1  D_1  S_1  
     e(  2 -  2) =    -13.44746  eV     1   --> A_1  D_1  S_1  
     e(  3 -  3) =     -7.96276  eV     1   --> B_1  D_3  S_3  
     e(  4 -  4) =     -4.87787  eV     1   --> B_2  D_4  S_4  
     e(  5 -  5) =      1.14510  eV     1   --> B_2  D_4  S_4  
     e(  6 -  6) =      5.91734  eV     1   --> A_1  D_1  S_1  
     e(  7 -  7) =      7.15752  eV     1   --> A_1  D_1  S_1  
     e(  8 -  8) =      8.09408  eV     1   --> B_2  D_4  S_4  

 **************************************************************************

 **************************************************************************

                    xk=(   0.00000,   0.44905,   0.00000  )

     Band symmetry, C_2v (mm2)  point group:

     e(  1 -  1) =    -17.75401  eV     1   --> A_1  D_1  S_1  
     e(  2 -  2) =    -12.76605  eV     1   --> A_1  D_1  S_1  
     e(  3 -  3) =     -7.83608  eV     1   --> B_1  D_3  S_3  
     e(  4 -  4) =     -5.34893  eV     1   --> B_2  D_4  S_4  
     e(  5 -  5) =      1.80914  eV     1   --> B_2  D_4  S_4  
     e(  6 -  6) =      5.96319  eV     1   --> A_1  D_1  S_1  
     e(  7 -  7) =      6.46463  eV     1   --> A_1  D_1  S_1  
     e(  8 -  8) =      7.38362  eV     1   --> B_2  D_4  S_4  

 **************************************************************************

 **************************************************************************

                    xk=(   0.00000,   0.41698,   0.00000  )

     Band symmetry, C_2v (mm2)  point group:

     e(  1 -  1) =    -18.22251  eV     1   --> A_1  D_1  S_1  
     e(  2 -  2) =    -12.06061  eV     1   --> A_1  D_1  S_1  
     e(  3 -  3) =     -7.67621  eV     1   --> B_1  D_3  S_3  
     e(  4 -  4) =     -5.83273  eV     1   --> B_2  D_4  S_4  
     e(  5 -  5) =      2.53372  eV     1   --> B_2  D_4  S_4  
     e(  6 -  6) =      5.73082  eV     1   --> A_1  D_1  S_1  
     e(  7 -  7) =      6.11038  eV     1   --> A_1  D_1  S_1  
     e(  8 -  8) =      6.71929  eV     1   --> B_2  D_4  S_4  

 **************************************************************************

 **************************************************************************

                    xk=(   0.00000,   0.38490,   0.00000  )

     Band symmetry, C_2v (mm2)  point group:

     e(  1 -  1) =    -18.66119  eV     1   --> A_1  D_1  S_1  
     e(  2 -  2) =    -11.33713  eV     1   --> A_1  D_1  S_1  
     e(  3 -  3) =     -7.48389  eV     1   --> B_1  D_3  S_3  
     e(  4 -  4) =     -6.30803  eV     1   --> B_2  D_4  S_4  
     e(  5 -  5) =      3.29152  eV     1   --> B_2  D_4  S_4  
     e(  6 -  6) =      5.14102  eV     1   --> A_1  D_1  S_1  
     e(  7 -  7) =      6.10369  eV     1   --> B_2  D_4  S_4  
     e(  8 -  8) =      6.16979  eV     1   --> A_1  D_1  S_1  

 **************************************************************************

 **************************************************************************

                    xk=(   0.00000,   0.35283,   0.00000  )

     Band symmetry, C_2v (mm2)  point group:

     e(  1 -  1) =    -19.06839  eV     1   --> A_1  D_1  S_1  
     e(  2 -  2) =    -10.60208  eV     1   --> A_1  D_1  S_1  
     e(  3 -  3) =     -7.26220  eV     1   --> B_1  D_3  S_3  
     e(  4 -  4) =     -6.76278  eV     1   --> B_2  D_4  S_4  
     e(  5 -  5) =      4.05860  eV     1   --> B_2  D_4  S_4  
     e(  6 -  6) =      4.57755  eV     1   --> A_1  D_1  S_1  
     e(  7 -  7) =      5.54283  eV     1   --> B_2  D_4  S_4  
     e(  8 -  8) =      6.05299  eV     1   --> A_1  D_1  S_1  

 **************************************************************************

 **************************************************************************

                    xk=(   0.00000,   0.32075,   0.00000  )

     Band symmetry, C_2v (mm2)  point group:

     e(  1 -  1) =    -19.44260  eV     1   --> A_1  D_1  S_1  
     e(  2 -  2) =     -9.86161  eV     1   --> A_1  D_1  S_1  
     e(  3 -  3) =     -7.18948  eV     1   --> B_2  D_4  S_4  
     e(  4 -  4) =     -7.01398  eV     1   --> B_1  D_3  S_3  
     e(  5 -  5) =      4.05954  eV     1   --> A_1  D_1  S_1  
     e(  6 -  6) =      4.73402  eV     1   --> B_2  D_4  S_4  
     e(  7 -  7) =      5.12344  eV     1   --> B_2  D_4  S_4  
     e(  8 -  8) =      5.54062  eV     1   --> A_1  D_1  S_1  

 **************************************************************************

 **************************************************************************

                    xk=(   0.00000,   0.28868,   0.00000  )

     Band symmetry, C_2v (mm2)  point group:

     e(  1 -  1) =    -19.78310  eV     1   --> A_1  D_1  S_1  
     e(  2 -  2) =     -9.12298  eV     1   --> A_1  D_1  S_1  
     e(  3 -  3) =     -7.58368  eV     1   --> B_2  D_4  S_4  
     e(  4 -  4) =     -6.74320  eV     1   --> B_1  D_3  S_3  
     e(  5 -  5) =      3.58940  eV     1   --> A_1  D_1  S_1  
     e(  6 -  6) =      4.49287  eV     1   --> B_2  D_4  S_4  
     e(  7 -  7) =      5.06267  eV     1   --> A_1  D_1  S_1  
     e(  8 -  8) =      5.65440  eV     1   --> B_2  D_4  S_4  

 **************************************************************************

 **************************************************************************

                    xk=(   0.00000,   0.25660,   0.00000  )

     Band symmetry, C_2v (mm2)  point group:

     e(  1 -  1) =    -20.08917  eV     1   --> A_1  D_1  S_1  
     e(  2 -  2) =     -8.39395  eV     1   --> A_1  D_1  S_1  
     e(  3 -  3) =     -7.94083  eV     1   --> B_2  D_4  S_4  
     e(  4 -  4) =     -6.45445  eV     1   --> B_1  D_3  S_3  
     e(  5 -  5) =      3.16796  eV     1   --> A_1  D_1  S_1  
     e(  6 -  6) =      4.08261  eV     1   --> B_2  D_4  S_4  
     e(  7 -  7) =      4.63352  eV     1   --> A_1  D_1  S_1  
     e(  8 -  8) =      6.33194  eV     1   --> B_2  D_4  S_4  

 **************************************************************************

 **************************************************************************

                    xk=(   0.00000,   0.22453,   0.00000  )

     Band symmetry, C_2v (mm2)  point group:

     e(  1 -  1) =    -20.36035  eV     1   --> A_1  D_1  S_1  
     e(  2 -  2) =     -8.26021  eV     1   --> B_2  D_4  S_4  
     e(  3 -  3) =     -7.68678  eV     1   --> A_1  D_1  S_1  
     e(  4 -  4) =     -6.15537  eV     1   --> B_1  D_3  S_3  
     e(  5 -  5) =      2.79562  eV     1   --> A_1  D_1  S_1  
     e(  6 -  6) =      3.71166  eV     1   --> B_2  D_4  S_4  
     e(  7 -  7) =      4.25441  eV     1   --> A_1  D_1  S_1  
     e(  8 -  8) =      6.15861  eV     1   --> B_2  D_4  S_4  

 **************************************************************************

 **************************************************************************

                    xk=(   0.00000,   0.19245,   0.00000  )

     Band symmetry, C_2v (mm2)  point group:

     e(  1 -  1) =    -20.59593  eV     1   --> A_1  D_1  S_1  
     e(  2 -  2) =     -8.53926  eV     1   --> B_2  D_4  S_4  
     e(  3 -  3) =     -7.01270  eV     1   --> A_1  D_1  S_1  
     e(  4 -  4) =     -5.85353  eV     1   --> B_1  D_3  S_3  
     e(  5 -  5) =      2.47267  eV     1   --> A_1  D_1  S_1  
     e(  6 -  6) =      3.38807  eV     1   --> B_2  D_4  S_4  
     e(  7 -  7) =      3.92568  eV     1   --> A_1  D_1  S_1  
     e(  8 -  8) =      5.84316  eV     1   --> B_2  D_4  S_4  

 **************************************************************************

 **************************************************************************

                    xk=(   0.00000,   0.16038,   0.00000  )

     Band symmetry, C_2v (mm2)  point group:

     e(  1 -  1) =    -20.79586  eV     1   --> A_1  D_1  S_1  
     e(  2 -  2) =     -8.77733  eV     1   --> B_2  D_4  S_4  
     e(  3 -  3) =     -6.38826  eV     1   --> A_1  D_1  S_1  
     e(  4 -  4) =     -5.56015  eV     1   --> B_1  D_3  S_3  
     e(  5 -  5) =      2.19924  eV     1   --> A_1  D_1  S_1  
     e(  6 -  6) =      3.11340  eV     1   --> B_2  D_4  S_4  
     e(  7 -  7) =      3.64744  eV     1   --> A_1  D_1  S_1  
     e(  8 -  8) =      5.57178  eV     1   --> B_2  D_4  S_4  

 **************************************************************************

 **************************************************************************

                    xk=(   0.00000,   0.12830,   0.00000  )

     Band symmetry, C_2v (mm2)  point group:

     e(  1 -  1) =    -20.95969  eV     1   --> A_1  D_1  S_1  
     e(  2 -  2) =     -8.97295  eV     1   --> B_2  D_4  S_4  
     e(  3 -  3) =     -5.83221  eV     1   --> A_1  D_1  S_1  
     e(  4 -  4) =     -5.28803  eV     1   --> B_1  D_3  S_3  
     e(  5 -  5) =      1.97546  eV     1   --> A_1  D_1  S_1  
     e(  6 -  6) =      2.88830  eV     1   --> B_2  D_4  S_4  
     e(  7 -  7) =      3.41978  eV     1   --> A_1  D_1  S_1  
     e(  8 -  8) =      5.34874  eV     1   --> B_2  D_4  S_4  

 **************************************************************************

 **************************************************************************

                    xk=(   0.00000,   0.09623,   0.00000  )

     Band symmetry, C_2v (mm2)  point group:

     e(  1 -  1) =    -21.08743  eV     1   --> A_1  D_1  S_1  
     e(  2 -  2) =     -9.12630  eV     1   --> B_2  D_4  S_4  
     e(  3 -  3) =     -5.36504  eV     1   --> A_1  D_1  S_1  
     e(  4 -  4) =     -5.05153  eV     1   --> B_1  D_3  S_3  
     e(  5 -  5) =      1.80138  eV     1   --> A_1  D_1  S_1  
     e(  6 -  6) =      2.71297  eV     1   --> B_2  D_4  S_4  
     e(  7 -  7) =      3.24270  eV     1   --> A_1  D_1  S_1  
     e(  8 -  8) =      5.17481  eV     1   --> B_2  D_4  S_4  

 **************************************************************************

 **************************************************************************

                    xk=(   0.00000,   0.06415,   0.00000  )

     Band symmetry, C_2v (mm2)  point group:

     e(  1 -  1) =    -21.17867  eV     1   --> A_1  D_1  S_1  
     e(  2 -  2) =     -9.23566  eV     1   --> B_2  D_4  S_4  
     e(  3 -  3) =     -5.00906  eV     1   --> A_1  D_1  S_1  
     e(  4 -  4) =     -4.86705  eV     1   --> B_1  D_3  S_3  
     e(  5 -  5) =      1.67706  eV     1   --> A_1  D_1  S_1  
     e(  6 -  6) =      2.58769  eV     1   --> B_2  D_4  S_4  
     e(  7 -  7) =      3.11623  eV     1   --> A_1  D_1  S_1  
     e(  8 -  8) =      5.05049  eV     1   --> B_2  D_4  S_4  

 **************************************************************************

 **************************************************************************

                    xk=(   0.00000,   0.03208,   0.00000  )

     Band symmetry, C_2v (mm2)  point group:

     e(  1 -  1) =    -21.23348  eV     1   --> A_1  D_1  S_1  
     e(  2 -  2) =     -9.30150  eV     1   --> B_2  D_4  S_4  
     e(  3 -  3) =     -4.78515  eV     1   --> A_1  D_1  S_1  
     e(  4 -  4) =     -4.74951  eV     1   --> B_1  D_3  S_3  
     e(  5 -  5) =      1.60247  eV     1   --> A_1  D_1  S_1  
     e(  6 -  6) =      2.51249  eV     1   --> B_2  D_4  S_4  
     e(  7 -  7) =      3.04036  eV     1   --> A_1  D_1  S_1  
     e(  8 -  8) =      4.97584  eV     1   --> B_2  D_4  S_4  

 **************************************************************************

 **************************************************************************

                    xk=(   0.00000,   0.00000,   0.00000  )

     point group D_6h(6/mmm)
     there are 12 classes
     the character table:

       E     2C6   2C3   C2    3C2'  3C2'' i     2S3   2S6   s_h   3s_d  3s_v 
A_1g   1.00  1.00  1.00  1.00  1.00  1.00  1.00  1.00  1.00  1.00  1.00  1.00
A_2g   1.00  1.00  1.00  1.00 -1.00 -1.00  1.00  1.00  1.00  1.00 -1.00 -1.00
B_1g   1.00 -1.00  1.00 -1.00  1.00 -1.00  1.00 -1.00  1.00 -1.00  1.00 -1.00
B_2g   1.00 -1.00  1.00 -1.00 -1.00  1.00  1.00 -1.00  1.00 -1.00 -1.00  1.00
E_1g   2.00  1.00 -1.00 -2.00  0.00  0.00  2.00  1.00 -1.00 -2.00  0.00  0.00
E_2g   2.00 -1.00 -1.00  2.00  0.00  0.00  2.00 -1.00 -1.00  2.00  0.00  0.00
A_1u   1.00  1.00  1.00  1.00  1.00  1.00 -1.00 -1.00 -1.00 -1.00 -1.00 -1.00
A_2u   1.00  1.00  1.00  1.00 -1.00 -1.00 -1.00 -1.00 -1.00 -1.00  1.00  1.00
B_1u   1.00 -1.00  1.00 -1.00  1.00 -1.00 -1.00  1.00 -1.00  1.00 -1.00  1.00
B_2u   1.00 -1.00  1.00 -1.00 -1.00  1.00 -1.00  1.00 -1.00  1.00  1.00 -1.00
E_1u   2.00  1.00 -1.00 -2.00  0.00  0.00 -2.00 -1.00  1.00  2.00  0.00  0.00
E_2u   2.00 -1.00 -1.00  2.00  0.00  0.00 -2.00  1.00  1.00 -2.00  0.00  0.00

     the symmetry operations in each class and the name of the first element:

     E        1
                                                                 
     2C6      5    6
                                                                 
     2C3      7    8
                                                                 
     C2       2
                                                                 
     3C2'     4   12   11
                                                                 
     3C2''    3    9   10
                                                                 
     i       13
                                                                 
     2S3     17   18
                                                                 
     2S6     19   20
                                                                 
     s_h     14
                                                                 
     3s_d    16   24   23
                                                                 
     3s_v    15   21   22
                                                                 

     Band symmetry, D_6h(6/mmm) point group:

     e(  1 -  1) =    -21.25183  eV     1   --> A_1g           
     e(  2 -  2) =     -9.32362  eV     1   --> A_2u           
     e(  3 -  4) =     -4.70905  eV     2   --> E_2g           
     e(  5 -  5) =      1.57760  eV     1   --> A_1g           
     e(  6 -  6) =      2.48740  eV     1   --> A_2u           
     e(  7 -  7) =      3.01507  eV     1   --> A_1g           
     e(  8 -  8) =      4.95092  eV     1   --> A_2u           

 **************************************************************************

     BANDS        :      2.92s CPU      2.72s WALL


   This run was terminated on:  17:26:37  14Feb2024            

=------------------------------------------------------------------------------=
   JOB DONE.
=------------------------------------------------------------------------------=
