
     Program BANDS v.7.0 starts on 14Apr2025 at 14:58:59 

     This program is part of the open-source Quantum ESPRESSO suite
     for quantum simulation of materials; please cite
         "P. Giannozzi et al., J. Phys.:Condens. Matter 21 395502 (2009);
         "P. Giannozzi et al., J. Phys.:Condens. Matter 29 465901 (2017);
         "P. Giannozzi et al., J. Chem. Phys. 152 154105 (2020);
          URL http://www.quantum-espresso.org", 
     in publications or presentations arising from this work. More details at
     http://www.quantum-espresso.org/quote

     Parallel version (MPI & OpenMP), running on       8 processor cores
     Number of MPI processes:                 8
     Threads/MPI process:                     1

     MPI processes distributed on     1 nodes
     R & G space division:  proc/nbgrp/npool/nimage =       8
     0 MiB available memory on the printing compute node when the environment starts


     Reading xml data from directory:

     ./tmp/C2L_AB_PBE_vdW.save/

     IMPORTANT: XC functional enforced from input :
     Exchange-correlation= VDW-DF2-B86R
                           (   1   4  26   0   2   0   0)
     Any further DFT definition will be discarded
     Please, verify this is what you really want


     Parallelization info
     --------------------
     sticks:   dense  smooth     PW     G-vecs:    dense   smooth      PW
     Min          59      59     18                 8477     8477    1422
     Max          60      60     19                 8510     8510    1439
     Sum         475     475    151                67911    67911   11451

     Using Slab Decomposition



     %%%%%%%%%%%%%%%%%%%%%%%%%%%%%%%%%%%%%%%%%%%%%%%%%%%%%%%%%%%%%%%%%%%%%%%%
     %                                                                      %
     % You are using vdW-DF, which was implemented by the Thonhauser group. %
     % Please cite the following two papers that made this development      %
     % possible and the two reviews that describe the various versions:     %
     %                                                                      %
     %   T. Thonhauser et al., PRL 115, 136402 (2015).                      %
     %   T. Thonhauser et al., PRB 76, 125112 (2007).                       %
     %   K. Berland et al., Rep. Prog. Phys. 78, 066501 (2015).             %
     %   D.C. Langreth et al., J. Phys.: Condens. Matter 21, 084203 (2009). %
     %                                                                      %
     %                                                                      %
     % If you are calculating the stress with vdW-DF, please also cite:     %
     %                                                                      %
     %   R. Sabatini et al., J. Phys.: Condens. Matter 24, 424209 (2012).   %
     %                                                                      %
     %%%%%%%%%%%%%%%%%%%%%%%%%%%%%%%%%%%%%%%%%%%%%%%%%%%%%%%%%%%%%%%%%%%%%%%%


     Reading collected, re-writing distributed wavefunctions
     high-symmetry point:  0.0000 0.0000 0.0000   x coordinate   0.0000
     high-symmetry point: -0.3333 0.5774 0.0000   x coordinate   0.6667
     high-symmetry point:  0.0000 0.5774 0.0000   x coordinate   1.0000
     high-symmetry point:  0.0000 0.0000 0.0000   x coordinate   1.5773

     Plottable bands (eV) written to file Bande_C2L_AB_PBE_vdW.dat.gnu
     Bands written to file Bande_C2L_AB_PBE_vdW.dat

 **************************************************************************

                    xk=(   0.00000,   0.00000,   0.00000  )

     point group C_3v (3m)  
     there are  3 classes
     the character table:

       E     2C3   3s_v 
A_1    1.00  1.00  1.00
A_2    1.00  1.00 -1.00
E      2.00 -1.00  0.00

     the symmetry operations in each class and the name of the first element:

     E        1
                                                                 
     2C3      2    3
                                                                 
     3s_v     4    5    6
                                                                 

     Band symmetry, C_3v (3m)   point group:

     e(  1 -  1) =    -20.14289  eV     1   --> A_1  L_1       
     e(  2 -  2) =    -19.96999  eV     1   --> A_1  L_1       
     e(  3 -  3) =     -8.72279  eV     1   --> A_1  L_1       
     e(  4 -  4) =     -7.64748  eV     1   --> A_1  L_1       
     e(  5 -  6) =     -3.64626  eV     2   --> E    L_3       
     e(  7 -  8) =     -3.63369  eV     2   --> E    L_3       
     e(  9 -  9) =      2.56880  eV     1   --> A_1  L_1       
     e( 10 - 10) =      2.99421  eV     1   --> A_1  L_1       
     e( 11 - 11) =      4.14509  eV     1   --> A_1  L_1       
     e( 12 - 12) =      5.26310  eV     1   --> A_1  L_1       
     e( 13 - 13) =      5.67992  eV     1   --> A_1  L_1       
     e( 14 - 14) =      7.52376  eV     1   --> A_1  L_1       
     e( 15 - 16) =      7.80957  eV     2   --> E    L_3       

 **************************************************************************

 **************************************************************************

                    xk=(  -0.00667,   0.01155,   0.00000  )

     point group C_1 (1)    
     there are  1 classes
     the character table:

       E    
A      1.00

     the symmetry operations in each class and the name of the first element:

     E        1
                                                                 

     Band symmetry, C_1 (1)     point group:

     e(  1 -  1) =    -20.13974  eV     1   --> A              
     e(  2 -  2) =    -19.96687  eV     1   --> A              
     e(  3 -  3) =     -8.71895  eV     1   --> A              
     e(  4 -  4) =     -7.64378  eV     1   --> A              
     e(  5 -  5) =     -3.65937  eV     1   --> A              
     e(  6 -  6) =     -3.65326  eV     1   --> A              
     e(  7 -  7) =     -3.64660  eV     1   --> A              
     e(  8 -  8) =     -3.64052  eV     1   --> A              
     e(  9 -  9) =      2.57302  eV     1   --> A              
     e( 10 - 10) =      2.99846  eV     1   --> A              
     e( 11 - 11) =      4.14945  eV     1   --> A              
     e( 12 - 12) =      5.26744  eV     1   --> A              
     e( 13 - 13) =      5.68395  eV     1   --> A              
     e( 14 - 14) =      7.52812  eV     1   --> A              
     e( 15 - 15) =      7.81140  eV     1   --> A              
     e( 16 - 16) =      7.82334  eV     1   --> A              

 **************************************************************************

 **************************************************************************

                    xk=(  -0.01333,   0.02309,   0.00000  )

     Band symmetry, C_1 (1)     point group:

     e(  1 -  1) =    -20.13027  eV     1   --> A              
     e(  2 -  2) =    -19.95750  eV     1   --> A              
     e(  3 -  3) =     -8.70747  eV     1   --> A              
     e(  4 -  4) =     -7.63268  eV     1   --> A              
     e(  5 -  5) =     -3.69849  eV     1   --> A              
     e(  6 -  6) =     -3.68588  eV     1   --> A              
     e(  7 -  7) =     -3.67365  eV     1   --> A              
     e(  8 -  8) =     -3.66121  eV     1   --> A              
     e(  9 -  9) =      2.58569  eV     1   --> A              
     e( 10 - 10) =      3.01124  eV     1   --> A              
     e( 11 - 11) =      4.16245  eV     1   --> A              
     e( 12 - 12) =      5.28034  eV     1   --> A              
     e( 13 - 13) =      5.69598  eV     1   --> A              
     e( 14 - 14) =      7.53867  eV     1   --> A              
     e( 15 - 15) =      7.81646  eV     1   --> A              
     e( 16 - 16) =      7.85141  eV     1   --> A              

 **************************************************************************

 **************************************************************************

                    xk=(  -0.02000,   0.03464,   0.00000  )

     Band symmetry, C_1 (1)     point group:

     e(  1 -  1) =    -20.11450  eV     1   --> A              
     e(  2 -  2) =    -19.94189  eV     1   --> A              
     e(  3 -  3) =     -8.68834  eV     1   --> A              
     e(  4 -  4) =     -7.61419  eV     1   --> A              
     e(  5 -  5) =     -3.76283  eV     1   --> A              
     e(  6 -  6) =     -3.74981  eV     1   --> A              
     e(  7 -  7) =     -3.70824  eV     1   --> A              
     e(  8 -  8) =     -3.69562  eV     1   --> A              
     e(  9 -  9) =      2.60680  eV     1   --> A              
     e( 10 - 10) =      3.03253  eV     1   --> A              
     e( 11 - 11) =      4.18416  eV     1   --> A              
     e( 12 - 12) =      5.30190  eV     1   --> A              
     e( 13 - 13) =      5.71604  eV     1   --> A              
     e( 14 - 14) =      7.55732  eV     1   --> A              
     e( 15 - 15) =      7.82519  eV     1   --> A              
     e( 16 - 16) =      7.86376  eV     1   --> A              

 **************************************************************************

 **************************************************************************

                    xk=(  -0.02667,   0.04619,   0.00000  )

     Band symmetry, C_1 (1)     point group:

     e(  1 -  1) =    -20.09241  eV     1   --> A              
     e(  2 -  2) =    -19.92004  eV     1   --> A              
     e(  3 -  3) =     -8.66156  eV     1   --> A              
     e(  4 -  4) =     -7.58831  eV     1   --> A              
     e(  5 -  5) =     -3.85121  eV     1   --> A              
     e(  6 -  6) =     -3.83776  eV     1   --> A              
     e(  7 -  7) =     -3.75626  eV     1   --> A              
     e(  8 -  8) =     -3.74350  eV     1   --> A              
     e(  9 -  9) =      2.63636  eV     1   --> A              
     e( 10 - 10) =      3.06233  eV     1   --> A              
     e( 11 - 11) =      4.21456  eV     1   --> A              
     e( 12 - 12) =      5.33207  eV     1   --> A              
     e( 13 - 13) =      5.74413  eV     1   --> A              
     e( 14 - 14) =      7.58340  eV     1   --> A              
     e( 15 - 15) =      7.83762  eV     1   --> A              
     e( 16 - 16) =      7.88184  eV     1   --> A              

 **************************************************************************

 **************************************************************************

                    xk=(  -0.03333,   0.05774,   0.00000  )

     Band symmetry, C_1 (1)     point group:

     e(  1 -  1) =    -20.06403  eV     1   --> A              
     e(  2 -  2) =    -19.89196  eV     1   --> A              
     e(  3 -  3) =     -8.62715  eV     1   --> A              
     e(  4 -  4) =     -7.55506  eV     1   --> A              
     e(  5 -  5) =     -3.96224  eV     1   --> A              
     e(  6 -  6) =     -3.94829  eV     1   --> A              
     e(  7 -  7) =     -3.81752  eV     1   --> A              
     e(  8 -  8) =     -3.80460  eV     1   --> A              
     e(  9 -  9) =      2.67436  eV     1   --> A              
     e( 10 - 10) =      3.10064  eV     1   --> A              
     e( 11 - 11) =      4.25364  eV     1   --> A              
     e( 12 - 12) =      5.37085  eV     1   --> A              
     e( 13 - 13) =      5.78025  eV     1   --> A              
     e( 14 - 14) =      7.61683  eV     1   --> A              
     e( 15 - 15) =      7.85415  eV     1   --> A              
     e( 16 - 16) =      7.90532  eV     1   --> A              

 **************************************************************************

 **************************************************************************

                    xk=(  -0.04000,   0.06928,   0.00000  )

     Band symmetry, C_1 (1)     point group:

     e(  1 -  1) =    -20.02935  eV     1   --> A              
     e(  2 -  2) =    -19.85764  eV     1   --> A              
     e(  3 -  3) =     -8.58512  eV     1   --> A              
     e(  4 -  4) =     -7.51446  eV     1   --> A              
     e(  5 -  5) =     -4.09412  eV     1   --> A              
     e(  6 -  6) =     -4.07957  eV     1   --> A              
     e(  7 -  7) =     -3.89173  eV     1   --> A              
     e(  8 -  8) =     -3.87862  eV     1   --> A              
     e(  9 -  9) =      2.72081  eV     1   --> A              
     e( 10 - 10) =      3.14746  eV     1   --> A              
     e( 11 - 11) =      4.30141  eV     1   --> A              
     e( 12 - 12) =      5.41826  eV     1   --> A              
     e( 13 - 13) =      5.82441  eV     1   --> A              
     e( 14 - 14) =      7.65757  eV     1   --> A              
     e( 15 - 15) =      7.87511  eV     1   --> A              
     e( 16 - 16) =      7.93400  eV     1   --> A              

 **************************************************************************

 **************************************************************************

                    xk=(  -0.04667,   0.08083,   0.00000  )

     Band symmetry, C_1 (1)     point group:

     e(  1 -  1) =    -19.98838  eV     1   --> A              
     e(  2 -  2) =    -19.81710  eV     1   --> A              
     e(  3 -  3) =     -8.53551  eV     1   --> A              
     e(  4 -  4) =     -7.46653  eV     1   --> A              
     e(  5 -  5) =     -4.24495  eV     1   --> A              
     e(  6 -  6) =     -4.22972  eV     1   --> A              
     e(  7 -  7) =     -3.97844  eV     1   --> A              
     e(  8 -  8) =     -3.96512  eV     1   --> A              
     e(  9 -  9) =      2.77572  eV     1   --> A              
     e( 10 - 10) =      3.20278  eV     1   --> A              
     e( 11 - 11) =      4.35787  eV     1   --> A              
     e( 12 - 12) =      5.47428  eV     1   --> A              
     e( 13 - 13) =      5.87659  eV     1   --> A              
     e( 14 - 14) =      7.70540  eV     1   --> A              
     e( 15 - 15) =      7.90075  eV     1   --> A              
     e( 16 - 16) =      7.96891  eV     1   --> A              

 **************************************************************************

 **************************************************************************

                    xk=(  -0.05333,   0.09238,   0.00000  )

     Band symmetry, C_1 (1)     point group:

     e(  1 -  1) =    -19.94113  eV     1   --> A              
     e(  2 -  2) =    -19.77035  eV     1   --> A              
     e(  3 -  3) =     -8.47832  eV     1   --> A              
     e(  4 -  4) =     -7.41131  eV     1   --> A              
     e(  5 -  5) =     -4.41281  eV     1   --> A              
     e(  6 -  6) =     -4.39682  eV     1   --> A              
     e(  7 -  7) =     -4.07726  eV     1   --> A              
     e(  8 -  8) =     -4.06367  eV     1   --> A              
     e(  9 -  9) =      2.83907  eV     1   --> A              
     e( 10 - 10) =      3.26660  eV     1   --> A              
     e( 11 - 11) =      4.42300  eV     1   --> A              
     e( 12 - 12) =      5.53893  eV     1   --> A              
     e( 13 - 13) =      5.93680  eV     1   --> A              
     e( 14 - 14) =      7.76027  eV     1   --> A              
     e( 15 - 15) =      7.93146  eV     1   --> A              
     e( 16 - 16) =      8.00996  eV     1   --> A              

 **************************************************************************

 **************************************************************************

                    xk=(  -0.06000,   0.10392,   0.00000  )

     Band symmetry, C_1 (1)     point group:

     e(  1 -  1) =    -19.88761  eV     1   --> A              
     e(  2 -  2) =    -19.71739  eV     1   --> A              
     e(  3 -  3) =     -8.41358  eV     1   --> A              
     e(  4 -  4) =     -7.34881  eV     1   --> A              
     e(  5 -  5) =     -4.59568  eV     1   --> A              
     e(  6 -  6) =     -4.57888  eV     1   --> A              
     e(  7 -  7) =     -4.18760  eV     1   --> A              
     e(  8 -  8) =     -4.17371  eV     1   --> A              
     e(  9 -  9) =      2.91087  eV     1   --> A              
     e( 10 - 10) =      3.33891  eV     1   --> A              
     e( 11 - 11) =      4.49682  eV     1   --> A              
     e( 12 - 12) =      5.61216  eV     1   --> A              
     e( 13 - 13) =      6.00505  eV     1   --> A              
     e( 14 - 14) =      7.82208  eV     1   --> A              
     e( 15 - 15) =      7.96755  eV     1   --> A              
     e( 16 - 16) =      8.05813  eV     1   --> A              

 **************************************************************************

 **************************************************************************

                    xk=(  -0.06667,   0.11547,   0.00000  )

     Band symmetry, C_1 (1)     point group:

     e(  1 -  1) =    -19.82783  eV     1   --> A              
     e(  2 -  2) =    -19.65824  eV     1   --> A              
     e(  3 -  3) =     -8.34132  eV     1   --> A              
     e(  4 -  4) =     -7.27907  eV     1   --> A              
     e(  5 -  5) =     -4.79168  eV     1   --> A              
     e(  6 -  6) =     -4.77401  eV     1   --> A              
     e(  7 -  7) =     -4.30896  eV     1   --> A              
     e(  8 -  8) =     -4.29472  eV     1   --> A              
     e(  9 -  9) =      2.99112  eV     1   --> A              
     e( 10 - 10) =      3.41970  eV     1   --> A              
     e( 11 - 11) =      4.57933  eV     1   --> A              
     e( 12 - 12) =      5.69401  eV     1   --> A              
     e( 13 - 13) =      6.08129  eV     1   --> A              
     e( 14 - 14) =      7.89035  eV     1   --> A              
     e( 15 - 15) =      8.00919  eV     1   --> A              
     e( 16 - 16) =      8.11243  eV     1   --> A              

 **************************************************************************

 **************************************************************************

                    xk=(  -0.07333,   0.12702,   0.00000  )

     Band symmetry, C_1 (1)     point group:

     e(  1 -  1) =    -19.76181  eV     1   --> A              
     e(  2 -  2) =    -19.59291  eV     1   --> A              
     e(  3 -  3) =     -8.26158  eV     1   --> A              
     e(  4 -  4) =     -7.20215  eV     1   --> A              
     e(  5 -  5) =     -4.99892  eV     1   --> A              
     e(  6 -  6) =     -4.98036  eV     1   --> A              
     e(  7 -  7) =     -4.44072  eV     1   --> A              
     e(  8 -  8) =     -4.42610  eV     1   --> A              
     e(  9 -  9) =      3.07982  eV     1   --> A              
     e( 10 - 10) =      3.50897  eV     1   --> A              
     e( 11 - 11) =      4.67054  eV     1   --> A              
     e( 12 - 12) =      5.78449  eV     1   --> A              
     e( 13 - 13) =      6.16554  eV     1   --> A              
     e( 14 - 14) =      7.96487  eV     1   --> A              
     e( 15 - 15) =      8.05666  eV     1   --> A              
     e( 16 - 16) =      8.17426  eV     1   --> A              

 **************************************************************************

 **************************************************************************

                    xk=(  -0.08000,   0.13856,   0.00000  )

     Band symmetry, C_1 (1)     point group:

     e(  1 -  1) =    -19.68956  eV     1   --> A              
     e(  2 -  2) =    -19.52141  eV     1   --> A              
     e(  3 -  3) =     -8.17438  eV     1   --> A              
     e(  4 -  4) =     -7.11809  eV     1   --> A              
     e(  5 -  5) =     -5.21579  eV     1   --> A              
     e(  6 -  6) =     -5.19629  eV     1   --> A              
     e(  7 -  7) =     -4.58227  eV     1   --> A              
     e(  8 -  8) =     -4.56722  eV     1   --> A              
     e(  9 -  9) =      3.17696  eV     1   --> A              
     e( 10 - 10) =      3.60669  eV     1   --> A              
     e( 11 - 11) =      4.77045  eV     1   --> A              
     e( 12 - 12) =      5.88354  eV     1   --> A              
     e( 13 - 13) =      6.25779  eV     1   --> A              
     e( 14 - 14) =      8.04525  eV     1   --> A              
     e( 15 - 15) =      8.11009  eV     1   --> A              
     e( 16 - 16) =      8.24371  eV     1   --> A              

 **************************************************************************

 **************************************************************************

                    xk=(  -0.08667,   0.15011,   0.00000  )

     Band symmetry, C_1 (1)     point group:

     e(  1 -  1) =    -19.61109  eV     1   --> A              
     e(  2 -  2) =    -19.44376  eV     1   --> A              
     e(  3 -  3) =     -8.07977  eV     1   --> A              
     e(  4 -  4) =     -7.02694  eV     1   --> A              
     e(  5 -  5) =     -5.44064  eV     1   --> A              
     e(  6 -  6) =     -5.42018  eV     1   --> A              
     e(  7 -  7) =     -4.73291  eV     1   --> A              
     e(  8 -  8) =     -4.71739  eV     1   --> A              
     e(  9 -  9) =      3.28253  eV     1   --> A              
     e( 10 - 10) =      3.71286  eV     1   --> A              
     e( 11 - 11) =      4.87898  eV     1   --> A              
     e( 12 - 12) =      5.99116  eV     1   --> A              
     e( 13 - 13) =      6.35794  eV     1   --> A              
     e( 14 - 14) =      8.13069  eV     1   --> A              
     e( 15 - 15) =      8.16929  eV     1   --> A              
     e( 16 - 16) =      8.32034  eV     1   --> A              

 **************************************************************************

 **************************************************************************

                    xk=(  -0.09333,   0.16166,   0.00000  )

     Band symmetry, C_1 (1)     point group:

     e(  1 -  1) =    -19.52643  eV     1   --> A              
     e(  2 -  2) =    -19.35998  eV     1   --> A              
     e(  3 -  3) =     -7.97780  eV     1   --> A              
     e(  4 -  4) =     -6.92876  eV     1   --> A              
     e(  5 -  5) =     -5.67206  eV     1   --> A              
     e(  6 -  6) =     -5.65065  eV     1   --> A              
     e(  7 -  7) =     -4.89201  eV     1   --> A              
     e(  8 -  8) =     -4.87597  eV     1   --> A              
     e(  9 -  9) =      3.39653  eV     1   --> A              
     e( 10 - 10) =      3.82745  eV     1   --> A              
     e( 11 - 11) =      4.99622  eV     1   --> A              
     e( 12 - 12) =      6.10737  eV     1   --> A              
     e( 13 - 13) =      6.46604  eV     1   --> A              
     e( 14 - 14) =      8.22008  eV     1   --> A              
     e( 15 - 15) =      8.23374  eV     1   --> A              
     e( 16 - 16) =      8.40167  eV     1   --> A              

 **************************************************************************

 **************************************************************************

                    xk=(  -0.10000,   0.17321,   0.00000  )

     Band symmetry, C_1 (1)     point group:

     e(  1 -  1) =    -19.43559  eV     1   --> A              
     e(  2 -  2) =    -19.27009  eV     1   --> A              
     e(  3 -  3) =     -7.86853  eV     1   --> A              
     e(  4 -  4) =     -6.82361  eV     1   --> A              
     e(  5 -  5) =     -5.90883  eV     1   --> A              
     e(  6 -  6) =     -5.88642  eV     1   --> A              
     e(  7 -  7) =     -5.05887  eV     1   --> A              
     e(  8 -  8) =     -5.04227  eV     1   --> A              
     e(  9 -  9) =      3.51896  eV     1   --> A              
     e( 10 - 10) =      3.95046  eV     1   --> A              
     e( 11 - 11) =      5.12214  eV     1   --> A              
     e( 12 - 12) =      6.23214  eV     1   --> A              
     e( 13 - 13) =      6.58199  eV     1   --> A              
     e( 14 - 14) =      8.29866  eV     1   --> A              
     e( 15 - 15) =      8.30779  eV     1   --> A              
     e( 16 - 16) =      8.44976  eV     1   --> A              

 **************************************************************************

 **************************************************************************

                    xk=(  -0.10667,   0.18475,   0.00000  )

     Band symmetry, C_1 (1)     point group:

     e(  1 -  1) =    -19.33859  eV     1   --> A              
     e(  2 -  2) =    -19.17411  eV     1   --> A              
     e(  3 -  3) =     -7.75201  eV     1   --> A              
     e(  4 -  4) =     -6.71162  eV     1   --> A              
     e(  5 -  5) =     -6.14973  eV     1   --> A              
     e(  6 -  6) =     -6.12629  eV     1   --> A              
     e(  7 -  7) =     -5.23280  eV     1   --> A              
     e(  8 -  8) =     -5.21561  eV     1   --> A              
     e(  9 -  9) =      3.64979  eV     1   --> A              
     e( 10 - 10) =      4.08184  eV     1   --> A              
     e( 11 - 11) =      5.25674  eV     1   --> A              
     e( 12 - 12) =      6.36547  eV     1   --> A              
     e( 13 - 13) =      6.70573  eV     1   --> A              
     e( 14 - 14) =      8.22622  eV     1   --> A              
     e( 15 - 15) =      8.33391  eV     1   --> A              
     e( 16 - 16) =      8.43791  eV     1   --> A              

 **************************************************************************

 **************************************************************************

                    xk=(  -0.11333,   0.19630,   0.00000  )

     Band symmetry, C_1 (1)     point group:

     e(  1 -  1) =    -19.23547  eV     1   --> A              
     e(  2 -  2) =    -19.07206  eV     1   --> A              
     e(  3 -  3) =     -7.62830  eV     1   --> A              
     e(  4 -  4) =     -6.59295  eV     1   --> A              
     e(  5 -  5) =     -6.39369  eV     1   --> A              
     e(  6 -  6) =     -6.36906  eV     1   --> A              
     e(  7 -  7) =     -5.41310  eV     1   --> A              
     e(  8 -  8) =     -5.39529  eV     1   --> A              
     e(  9 -  9) =      3.78902  eV     1   --> A              
     e( 10 - 10) =      4.22159  eV     1   --> A              
     e( 11 - 11) =      5.40000  eV     1   --> A              
     e( 12 - 12) =      6.50733  eV     1   --> A              
     e( 13 - 13) =      6.83743  eV     1   --> A              
     e( 14 - 14) =      7.97087  eV     1   --> A              
     e( 15 - 15) =      8.17093  eV     1   --> A              
     e( 16 - 16) =      8.51565  eV     1   --> A              

 **************************************************************************

 **************************************************************************

                    xk=(  -0.12000,   0.20785,   0.00000  )

     Band symmetry, C_1 (1)     point group:

     e(  1 -  1) =    -19.12625  eV     1   --> A              
     e(  2 -  2) =    -18.96397  eV     1   --> A              
     e(  3 -  3) =     -7.49749  eV     1   --> A              
     e(  4 -  4) =     -6.63989  eV     1   --> A              
     e(  5 -  5) =     -6.61510  eV     1   --> A              
     e(  6 -  6) =     -6.46652  eV     1   --> A              
     e(  7 -  7) =     -5.59912  eV     1   --> A              
     e(  8 -  8) =     -5.58063  eV     1   --> A              
     e(  9 -  9) =      3.93662  eV     1   --> A              
     e( 10 - 10) =      4.36965  eV     1   --> A              
     e( 11 - 11) =      5.55191  eV     1   --> A              
     e( 12 - 12) =      6.65768  eV     1   --> A              
     e( 13 - 13) =      6.97632  eV     1   --> A              
     e( 14 - 14) =      7.69684  eV     1   --> A              
     e( 15 - 15) =      7.91416  eV     1   --> A              
     e( 16 - 16) =      8.59663  eV     1   --> A              

 **************************************************************************

 **************************************************************************

                    xk=(  -0.12667,   0.21939,   0.00000  )

     Band symmetry, C_1 (1)     point group:

     e(  1 -  1) =    -19.01097  eV     1   --> A              
     e(  2 -  2) =    -18.84988  eV     1   --> A              
     e(  3 -  3) =     -7.35969  eV     1   --> A              
     e(  4 -  4) =     -6.88739  eV     1   --> A              
     e(  5 -  5) =     -6.86132  eV     1   --> A              
     e(  6 -  6) =     -6.33466  eV     1   --> A              
     e(  7 -  7) =     -5.79018  eV     1   --> A              
     e(  8 -  8) =     -5.77098  eV     1   --> A              
     e(  9 -  9) =      4.09259  eV     1   --> A              
     e( 10 - 10) =      4.52601  eV     1   --> A              
     e( 11 - 11) =      5.71248  eV     1   --> A              
     e( 12 - 12) =      6.81647  eV     1   --> A              
     e( 13 - 13) =      7.12295  eV     1   --> A              
     e( 14 - 14) =      7.41456  eV     1   --> A              
     e( 15 - 15) =      7.64209  eV     1   --> A              
     e( 16 - 16) =      8.69420  eV     1   --> A              

 **************************************************************************

 **************************************************************************

                    xk=(  -0.13333,   0.23094,   0.00000  )

     Band symmetry, C_1 (1)     point group:

     e(  1 -  1) =    -18.88964  eV     1   --> A              
     e(  2 -  2) =    -18.72981  eV     1   --> A              
     e(  3 -  3) =     -7.21571  eV     1   --> A              
     e(  4 -  4) =     -7.13478  eV     1   --> A              
     e(  5 -  5) =     -7.10845  eV     1   --> A              
     e(  6 -  6) =     -6.19599  eV     1   --> A              
     e(  7 -  7) =     -5.98561  eV     1   --> A              
     e(  8 -  8) =     -5.96568  eV     1   --> A              
     e(  9 -  9) =      4.25690  eV     1   --> A              
     e( 10 - 10) =      4.69060  eV     1   --> A              
     e( 11 - 11) =      5.88170  eV     1   --> A              
     e( 12 - 12) =      6.98345  eV     1   --> A              
     e( 13 - 13) =      7.12649  eV     1   --> A              
     e( 14 - 14) =      7.27721  eV     1   --> A              
     e( 15 - 15) =      7.36311  eV     1   --> A              
     e( 16 - 16) =      8.80116  eV     1   --> A              

 **************************************************************************

 **************************************************************************

                    xk=(  -0.14000,   0.24249,   0.00000  )

     Band symmetry, C_1 (1)     point group:

     e(  1 -  1) =    -18.76232  eV     1   --> A              
     e(  2 -  2) =    -18.60381  eV     1   --> A              
     e(  3 -  3) =     -7.38423  eV     1   --> A              
     e(  4 -  4) =     -7.35561  eV     1   --> A              
     e(  5 -  5) =     -7.06277  eV     1   --> A              
     e(  6 -  6) =     -6.18480  eV     1   --> A              
     e(  7 -  7) =     -6.16410  eV     1   --> A              
     e(  8 -  8) =     -6.05088  eV     1   --> A              
     e(  9 -  9) =      4.42953  eV     1   --> A              
     e( 10 - 10) =      4.86337  eV     1   --> A              
     e( 11 - 11) =      6.05953  eV     1   --> A              
     e( 12 - 12) =      6.83423  eV     1   --> A              
     e( 13 - 13) =      7.07454  eV     1   --> A              
     e( 14 - 14) =      7.16342  eV     1   --> A              
     e( 15 - 15) =      7.43820  eV     1   --> A              
     e( 16 - 16) =      8.91494  eV     1   --> A              

 **************************************************************************

 **************************************************************************

                    xk=(  -0.14667,   0.25404,   0.00000  )

     Band symmetry, C_1 (1)     point group:

     e(  1 -  1) =    -18.62903  eV     1   --> A              
     e(  2 -  2) =    -18.47190  eV     1   --> A              
     e(  3 -  3) =     -7.63171  eV     1   --> A              
     e(  4 -  4) =     -7.60221  eV     1   --> A              
     e(  5 -  5) =     -6.90447  eV     1   --> A              
     e(  6 -  6) =     -6.38713  eV     1   --> A              
     e(  7 -  7) =     -6.36563  eV     1   --> A              
     e(  8 -  8) =     -5.89949  eV     1   --> A              
     e(  9 -  9) =      4.61043  eV     1   --> A              
     e( 10 - 10) =      5.04425  eV     1   --> A              
     e( 11 - 11) =      6.24594  eV     1   --> A              
     e( 12 - 12) =      6.53877  eV     1   --> A              
     e( 13 - 13) =      6.78959  eV     1   --> A              
     e( 14 - 14) =      7.34475  eV     1   --> A              
     e( 15 - 15) =      7.60662  eV     1   --> A              
     e( 16 - 16) =      9.03718  eV     1   --> A              

 **************************************************************************

 **************************************************************************

                    xk=(  -0.15333,   0.26558,   0.00000  )

     Band symmetry, C_1 (1)     point group:

     e(  1 -  1) =    -18.48983  eV     1   --> A              
     e(  2 -  2) =    -18.33415  eV     1   --> A              
     e(  3 -  3) =     -7.87820  eV     1   --> A              
     e(  4 -  4) =     -7.84772  eV     1   --> A              
     e(  5 -  5) =     -6.73943  eV     1   --> A              
     e(  6 -  6) =     -6.59200  eV     1   --> A              
     e(  7 -  7) =     -6.56969  eV     1   --> A              
     e(  8 -  8) =     -5.74198  eV     1   --> A              
     e(  9 -  9) =      4.79958  eV     1   --> A              
     e( 10 - 10) =      5.23313  eV     1   --> A              
     e( 11 - 11) =      6.24083  eV     1   --> A              
     e( 12 - 12) =      6.44115  eV     1   --> A              
     e( 13 - 13) =      6.49951  eV     1   --> A              
     e( 14 - 14) =      7.53706  eV     1   --> A              
     e( 15 - 15) =      7.78136  eV     1   --> A              
     e( 16 - 16) =      9.16667  eV     1   --> A              

 **************************************************************************

 **************************************************************************

                    xk=(  -0.16000,   0.27713,   0.00000  )

     Band symmetry, C_1 (1)     point group:

     e(  1 -  1) =    -18.34477  eV     1   --> A              
     e(  2 -  2) =    -18.19058  eV     1   --> A              
     e(  3 -  3) =     -8.12315  eV     1   --> A              
     e(  4 -  4) =     -8.09168  eV     1   --> A              
     e(  5 -  5) =     -6.79883  eV     1   --> A              
     e(  6 -  6) =     -6.77572  eV     1   --> A              
     e(  7 -  7) =     -6.56785  eV     1   --> A              
     e(  8 -  8) =     -5.57852  eV     1   --> A              
     e(  9 -  9) =      4.99688  eV     1   --> A              
     e( 10 - 10) =      5.42978  eV     1   --> A              
     e( 11 - 11) =      5.94176  eV     1   --> A              
     e( 12 - 12) =      6.20775  eV     1   --> A              
     e( 13 - 13) =      6.64471  eV     1   --> A              
     e( 14 - 14) =      7.73777  eV     1   --> A              
     e( 15 - 15) =      7.96231  eV     1   --> A              
     e( 16 - 16) =      9.29866  eV     1   --> A              

 **************************************************************************

 **************************************************************************

                    xk=(  -0.16667,   0.28868,   0.00000  )

     Band symmetry, C_1 (1)     point group:

     e(  1 -  1) =    -18.19390  eV     1   --> A              
     e(  2 -  2) =    -18.04127  eV     1   --> A              
     e(  3 -  3) =     -8.36616  eV     1   --> A              
     e(  4 -  4) =     -8.33368  eV     1   --> A              
     e(  5 -  5) =     -7.00708  eV     1   --> A              
     e(  6 -  6) =     -6.98313  eV     1   --> A              
     e(  7 -  7) =     -6.38992  eV     1   --> A              
     e(  8 -  8) =     -5.40925  eV     1   --> A              
     e(  9 -  9) =      5.20208  eV     1   --> A              
     e( 10 - 10) =      5.63281  eV     1   --> A              
     e( 11 - 11) =      5.64243  eV     1   --> A              
     e( 12 - 12) =      5.91633  eV     1   --> A              
     e( 13 - 13) =      6.85686  eV     1   --> A              
     e( 14 - 14) =      7.94674  eV     1   --> A              
     e( 15 - 15) =      8.14944  eV     1   --> A              
     e( 16 - 16) =      9.43907  eV     1   --> A              

 **************************************************************************

 **************************************************************************

                    xk=(  -0.17333,   0.30022,   0.00000  )

     Band symmetry, C_1 (1)     point group:

     e(  1 -  1) =    -18.03729  eV     1   --> A              
     e(  2 -  2) =    -17.88628  eV     1   --> A              
     e(  3 -  3) =     -8.60685  eV     1   --> A              
     e(  4 -  4) =     -8.57338  eV     1   --> A              
     e(  5 -  5) =     -7.21624  eV     1   --> A              
     e(  6 -  6) =     -7.19145  eV     1   --> A              
     e(  7 -  7) =     -6.20576  eV     1   --> A              
     e(  8 -  8) =     -5.23440  eV     1   --> A              
     e(  9 -  9) =      5.33708  eV     1   --> A              
     e( 10 - 10) =      5.42096  eV     1   --> A              
     e( 11 - 11) =      5.61717  eV     1   --> A              
     e( 12 - 12) =      5.85150  eV     1   --> A              
     e( 13 - 13) =      7.07752  eV     1   --> A              
     e( 14 - 14) =      8.16383  eV     1   --> A              
     e( 15 - 15) =      8.34194  eV     1   --> A              
     e( 16 - 16) =      9.58517  eV     1   --> A              

 **************************************************************************

 **************************************************************************

                    xk=(  -0.18000,   0.31177,   0.00000  )

     Band symmetry, C_1 (1)     point group:

     e(  1 -  1) =    -17.87498  eV     1   --> A              
     e(  2 -  2) =    -17.72566  eV     1   --> A              
     e(  3 -  3) =     -8.84492  eV     1   --> A              
     e(  4 -  4) =     -8.81045  eV     1   --> A              
     e(  5 -  5) =     -7.42578  eV     1   --> A              
     e(  6 -  6) =     -7.40016  eV     1   --> A              
     e(  7 -  7) =     -6.01553  eV     1   --> A              
     e(  8 -  8) =     -5.05415  eV     1   --> A              
     e(  9 -  9) =      5.04151  eV     1   --> A              
     e( 10 - 10) =      5.32636  eV     1   --> A              
     e( 11 - 11) =      5.63908  eV     1   --> A              
     e( 12 - 12) =      6.06963  eV     1   --> A              
     e( 13 - 13) =      7.30663  eV     1   --> A              
     e( 14 - 14) =      8.38887  eV     1   --> A              
     e( 15 - 15) =      8.53915  eV     1   --> A              
     e( 16 - 16) =      9.73759  eV     1   --> A              

 **************************************************************************

 **************************************************************************

                    xk=(  -0.18666,   0.32332,   0.00000  )

     Band symmetry, C_1 (1)     point group:

     e(  1 -  1) =    -17.70708  eV     1   --> A              
     e(  2 -  2) =    -17.55950  eV     1   --> A              
     e(  3 -  3) =     -9.08005  eV     1   --> A              
     e(  4 -  4) =     -9.04460  eV     1   --> A              
     e(  5 -  5) =     -7.63522  eV     1   --> A              
     e(  6 -  6) =     -7.60878  eV     1   --> A              
     e(  7 -  7) =     -5.81942  eV     1   --> A              
     e(  8 -  8) =     -4.86875  eV     1   --> A              
     e(  9 -  9) =      4.74365  eV     1   --> A              
     e( 10 - 10) =      5.03480  eV     1   --> A              
     e( 11 - 11) =      5.86868  eV     1   --> A              
     e( 12 - 12) =      6.29694  eV     1   --> A              
     e( 13 - 13) =      7.54413  eV     1   --> A              
     e( 14 - 14) =      8.62173  eV     1   --> A              
     e( 15 - 15) =      8.74019  eV     1   --> A              
     e( 16 - 16) =      9.89327  eV     1   --> A              

 **************************************************************************

 **************************************************************************

                    xk=(  -0.19333,   0.33486,   0.00000  )

     Band symmetry, C_1 (1)     point group:

     e(  1 -  1) =    -17.53365  eV     1   --> A              
     e(  2 -  2) =    -17.38788  eV     1   --> A              
     e(  3 -  3) =     -9.31203  eV     1   --> A              
     e(  4 -  4) =     -9.27558  eV     1   --> A              
     e(  5 -  5) =     -7.84413  eV     1   --> A              
     e(  6 -  6) =     -7.81686  eV     1   --> A              
     e(  7 -  7) =     -5.61767  eV     1   --> A              
     e(  8 -  8) =     -4.67847  eV     1   --> A              
     e(  9 -  9) =      4.44735  eV     1   --> A              
     e( 10 - 10) =      4.74449  eV     1   --> A              
     e( 11 - 11) =      6.10642  eV     1   --> A              
     e( 12 - 12) =      6.53171  eV     1   --> A              
     e( 13 - 13) =      7.78990  eV     1   --> A              
     e( 14 - 14) =      8.86201  eV     1   --> A              
     e( 15 - 15) =      8.94372  eV     1   --> A              
     e( 16 - 16) =     10.05650  eV     1   --> A              

 **************************************************************************

 **************************************************************************

                    xk=(  -0.20000,   0.34641,   0.00000  )

     Band symmetry, C_1 (1)     point group:

     e(  1 -  1) =    -17.35480  eV     1   --> A              
     e(  2 -  2) =    -17.21089  eV     1   --> A              
     e(  3 -  3) =     -9.54060  eV     1   --> A              
     e(  4 -  4) =     -9.50317  eV     1   --> A              
     e(  5 -  5) =     -8.05204  eV     1   --> A              
     e(  6 -  6) =     -8.02394  eV     1   --> A              
     e(  7 -  7) =     -5.41047  eV     1   --> A              
     e(  8 -  8) =     -4.48358  eV     1   --> A              
     e(  9 -  9) =      4.15325  eV     1   --> A              
     e( 10 - 10) =      4.45614  eV     1   --> A              
     e( 11 - 11) =      6.35207  eV     1   --> A              
     e( 12 - 12) =      6.77346  eV     1   --> A              
     e( 13 - 13) =      8.04382  eV     1   --> A              
     e( 14 - 14) =      9.10950  eV     1   --> A              
     e( 15 - 15) =      9.14819  eV     1   --> A              
     e( 16 - 16) =     10.21859  eV     1   --> A              

 **************************************************************************

 **************************************************************************

                    xk=(  -0.20666,   0.35796,   0.00000  )

     Band symmetry, C_1 (1)     point group:

     e(  1 -  1) =    -17.17062  eV     1   --> A              
     e(  2 -  2) =    -17.02866  eV     1   --> A              
     e(  3 -  3) =     -9.76558  eV     1   --> A              
     e(  4 -  4) =     -9.72716  eV     1   --> A              
     e(  5 -  5) =     -8.25853  eV     1   --> A              
     e(  6 -  6) =     -8.22964  eV     1   --> A              
     e(  7 -  7) =     -5.19808  eV     1   --> A              
     e(  8 -  8) =     -4.28439  eV     1   --> A              
     e(  9 -  9) =      3.86180  eV     1   --> A              
     e( 10 - 10) =      4.17020  eV     1   --> A              
     e( 11 - 11) =      6.60551  eV     1   --> A              
     e( 12 - 12) =      7.02179  eV     1   --> A              
     e( 13 - 13) =      8.30567  eV     1   --> A              
     e( 14 - 14) =      9.35161  eV     1   --> A              
     e( 15 - 15) =      9.36364  eV     1   --> A              
     e( 16 - 16) =     10.38709  eV     1   --> A              

 **************************************************************************

 **************************************************************************

                    xk=(  -0.21333,   0.36951,   0.00000  )

     Band symmetry, C_1 (1)     point group:

     e(  1 -  1) =    -16.98125  eV     1   --> A              
     e(  2 -  2) =    -16.84129  eV     1   --> A              
     e(  3 -  3) =     -9.98676  eV     1   --> A              
     e(  4 -  4) =     -9.94736  eV     1   --> A              
     e(  5 -  5) =     -8.46320  eV     1   --> A              
     e(  6 -  6) =     -8.43353  eV     1   --> A              
     e(  7 -  7) =     -4.98077  eV     1   --> A              
     e(  8 -  8) =     -4.08123  eV     1   --> A              
     e(  9 -  9) =      3.57345  eV     1   --> A              
     e( 10 - 10) =      3.88713  eV     1   --> A              
     e( 11 - 11) =      6.86662  eV     1   --> A              
     e( 12 - 12) =      7.27618  eV     1   --> A              
     e( 13 - 13) =      8.57509  eV     1   --> A              
     e( 14 - 14) =      9.55122  eV     1   --> A              
     e( 15 - 15) =      9.62363  eV     1   --> A              
     e( 16 - 16) =     10.55650  eV     1   --> A              

 **************************************************************************

 **************************************************************************

                    xk=(  -0.22000,   0.38105,   0.00000  )

     Band symmetry, C_1 (1)     point group:

     e(  1 -  1) =    -16.78682  eV     1   --> A              
     e(  2 -  2) =    -16.64894  eV     1   --> A              
     e(  3 -  3) =    -10.20399  eV     1   --> A              
     e(  4 -  4) =    -10.16361  eV     1   --> A              
     e(  5 -  5) =     -8.66560  eV     1   --> A              
     e(  6 -  6) =     -8.63519  eV     1   --> A              
     e(  7 -  7) =     -4.75884  eV     1   --> A              
     e(  8 -  8) =     -3.87454  eV     1   --> A              
     e(  9 -  9) =      3.28861  eV     1   --> A              
     e( 10 - 10) =      3.60737  eV     1   --> A              
     e( 11 - 11) =      7.13524  eV     1   --> A              
     e( 12 - 12) =      7.53595  eV     1   --> A              
     e( 13 - 13) =      8.85152  eV     1   --> A              
     e( 14 - 14) =      9.74348  eV     1   --> A              
     e( 15 - 15) =      9.88817  eV     1   --> A              
     e( 16 - 16) =     10.72806  eV     1   --> A              

 **************************************************************************

 **************************************************************************

                    xk=(  -0.22666,   0.39260,   0.00000  )

     Band symmetry, C_1 (1)     point group:

     e(  1 -  1) =    -16.58749  eV     1   --> A              
     e(  2 -  2) =    -16.45177  eV     1   --> A              
     e(  3 -  3) =    -10.41712  eV     1   --> A              
     e(  4 -  4) =    -10.37577  eV     1   --> A              
     e(  5 -  5) =     -8.86537  eV     1   --> A              
     e(  6 -  6) =     -8.83424  eV     1   --> A              
     e(  7 -  7) =     -4.53264  eV     1   --> A              
     e(  8 -  8) =     -3.66466  eV     1   --> A              
     e(  9 -  9) =      3.00759  eV     1   --> A              
     e( 10 - 10) =      3.33122  eV     1   --> A              
     e( 11 - 11) =      7.41119  eV     1   --> A              
     e( 12 - 12) =      7.80020  eV     1   --> A              
     e( 13 - 13) =      9.13378  eV     1   --> A              
     e( 14 - 14) =      9.92429  eV     1   --> A              
     e( 15 - 15) =     10.15510  eV     1   --> A              
     e( 16 - 16) =     10.90020  eV     1   --> A              

 **************************************************************************

 **************************************************************************

                    xk=(  -0.23333,   0.40415,   0.00000  )

     Band symmetry, C_1 (1)     point group:

     e(  1 -  1) =    -16.38345  eV     1   --> A              
     e(  2 -  2) =    -16.24996  eV     1   --> A              
     e(  3 -  3) =    -10.62602  eV     1   --> A              
     e(  4 -  4) =    -10.58371  eV     1   --> A              
     e(  5 -  5) =     -9.06207  eV     1   --> A              
     e(  6 -  6) =     -9.03027  eV     1   --> A              
     e(  7 -  7) =     -4.30253  eV     1   --> A              
     e(  8 -  8) =     -3.45208  eV     1   --> A              
     e(  9 -  9) =      2.73074  eV     1   --> A              
     e( 10 - 10) =      3.05904  eV     1   --> A              
     e( 11 - 11) =      7.69427  eV     1   --> A              
     e( 12 - 12) =      8.06766  eV     1   --> A              
     e( 13 - 13) =      9.41941  eV     1   --> A              
     e( 14 - 14) =     10.08974  eV     1   --> A              
     e( 15 - 15) =     10.42048  eV     1   --> A              
     e( 16 - 16) =     11.07306  eV     1   --> A              

 **************************************************************************

 **************************************************************************

                    xk=(  -0.24000,   0.41569,   0.00000  )

     Band symmetry, C_1 (1)     point group:

     e(  1 -  1) =    -16.17491  eV     1   --> A              
     e(  2 -  2) =    -16.04376  eV     1   --> A              
     e(  3 -  3) =    -10.83058  eV     1   --> A              
     e(  4 -  4) =    -10.78731  eV     1   --> A              
     e(  5 -  5) =     -9.25532  eV     1   --> A              
     e(  6 -  6) =     -9.22291  eV     1   --> A              
     e(  7 -  7) =     -4.06895  eV     1   --> A              
     e(  8 -  8) =     -3.23733  eV     1   --> A              
     e(  9 -  9) =      2.45836  eV     1   --> A              
     e( 10 - 10) =      2.79115  eV     1   --> A              
     e( 11 - 11) =      7.98420  eV     1   --> A              
     e( 12 - 12) =      8.33649  eV     1   --> A              
     e( 13 - 13) =      9.70211  eV     1   --> A              
     e( 14 - 14) =     10.23947  eV     1   --> A              
     e( 15 - 15) =     10.67679  eV     1   --> A              
     e( 16 - 16) =     11.24665  eV     1   --> A              

 **************************************************************************

 **************************************************************************

                    xk=(  -0.24666,   0.42724,   0.00000  )

     Band symmetry, C_1 (1)     point group:

     e(  1 -  1) =    -15.96214  eV     1   --> A              
     e(  2 -  2) =    -15.83342  eV     1   --> A              
     e(  3 -  3) =    -11.03066  eV     1   --> A              
     e(  4 -  4) =    -10.98646  eV     1   --> A              
     e(  5 -  5) =     -9.44465  eV     1   --> A              
     e(  6 -  6) =     -9.41170  eV     1   --> A              
     e(  7 -  7) =     -3.83231  eV     1   --> A              
     e(  8 -  8) =     -3.02094  eV     1   --> A              
     e(  9 -  9) =      2.19076  eV     1   --> A              
     e( 10 - 10) =      2.52786  eV     1   --> A              
     e( 11 - 11) =      8.28065  eV     1   --> A              
     e( 12 - 12) =      8.60404  eV     1   --> A              
     e( 13 - 13) =      9.96321  eV     1   --> A              
     e( 14 - 14) =     10.38645  eV     1   --> A              
     e( 15 - 15) =     10.91004  eV     1   --> A              
     e( 16 - 16) =     11.42503  eV     1   --> A              

 **************************************************************************

 **************************************************************************

                    xk=(  -0.25333,   0.43879,   0.00000  )

     Band symmetry, C_1 (1)     point group:

     e(  1 -  1) =    -15.74545  eV     1   --> A              
     e(  2 -  2) =    -15.61928  eV     1   --> A              
     e(  3 -  3) =    -11.22621  eV     1   --> A              
     e(  4 -  4) =    -11.18107  eV     1   --> A              
     e(  5 -  5) =     -9.62965  eV     1   --> A              
     e(  6 -  6) =     -9.59626  eV     1   --> A              
     e(  7 -  7) =     -3.59314  eV     1   --> A              
     e(  8 -  8) =     -2.80354  eV     1   --> A              
     e(  9 -  9) =      1.92816  eV     1   --> A              
     e( 10 - 10) =      2.26941  eV     1   --> A              
     e( 11 - 11) =      8.58319  eV     1   --> A              
     e( 12 - 12) =      8.86631  eV     1   --> A              
     e( 13 - 13) =     10.15643  eV     1   --> A              
     e( 14 - 14) =     10.57400  eV     1   --> A              
     e( 15 - 15) =     11.09969  eV     1   --> A              
     e( 16 - 16) =     11.61429  eV     1   --> A              

 **************************************************************************

 **************************************************************************

                    xk=(  -0.26000,   0.45034,   0.00000  )

     Band symmetry, C_1 (1)     point group:

     e(  1 -  1) =    -15.52520  eV     1   --> A              
     e(  2 -  2) =    -15.40173  eV     1   --> A              
     e(  3 -  3) =    -11.41711  eV     1   --> A              
     e(  4 -  4) =    -11.37106  eV     1   --> A              
     e(  5 -  5) =     -9.80978  eV     1   --> A              
     e(  6 -  6) =     -9.77604  eV     1   --> A              
     e(  7 -  7) =     -3.35199  eV     1   --> A              
     e(  8 -  8) =     -2.58581  eV     1   --> A              
     e(  9 -  9) =      1.67084  eV     1   --> A              
     e( 10 - 10) =      2.01611  eV     1   --> A              
     e( 11 - 11) =      8.89129  eV     1   --> A              
     e( 12 - 12) =      9.11731  eV     1   --> A              
     e( 13 - 13) =     10.25034  eV     1   --> A              
     e( 14 - 14) =     10.83447  eV     1   --> A              
     e( 15 - 15) =     11.23221  eV     1   --> A              
     e( 16 - 16) =     11.77137  eV     1   --> A              

 **************************************************************************

 **************************************************************************

                    xk=(  -0.26666,   0.46188,   0.00000  )

     Band symmetry, C_1 (1)     point group:

     e(  1 -  1) =    -15.30188  eV     1   --> A              
     e(  2 -  2) =    -15.18126  eV     1   --> A              
     e(  3 -  3) =    -11.60329  eV     1   --> A              
     e(  4 -  4) =    -11.55633  eV     1   --> A              
     e(  5 -  5) =     -9.98446  eV     1   --> A              
     e(  6 -  6) =     -9.95053  eV     1   --> A              
     e(  7 -  7) =     -3.10948  eV     1   --> A              
     e(  8 -  8) =     -2.36849  eV     1   --> A              
     e(  9 -  9) =      1.41903  eV     1   --> A              
     e( 10 - 10) =      1.76818  eV     1   --> A              
     e( 11 - 11) =      9.20419  eV     1   --> A              
     e( 12 - 12) =      9.34832  eV     1   --> A              
     e( 13 - 13) =     10.27568  eV     1   --> A              
     e( 14 - 14) =     11.14056  eV     1   --> A              
     e( 15 - 15) =     11.31921  eV     1   --> A              
     e( 16 - 16) =     11.85565  eV     1   --> A              

 **************************************************************************

 **************************************************************************

                    xk=(  -0.27333,   0.47343,   0.00000  )

     Band symmetry, C_1 (1)     point group:

     e(  1 -  1) =    -15.07606  eV     1   --> A              
     e(  2 -  2) =    -14.95850  eV     1   --> A              
     e(  3 -  3) =    -11.78468  eV     1   --> A              
     e(  4 -  4) =    -11.73682  eV     1   --> A              
     e(  5 -  5) =    -10.15303  eV     1   --> A              
     e(  6 -  6) =    -10.11908  eV     1   --> A              
     e(  7 -  7) =     -2.86631  eV     1   --> A              
     e(  8 -  8) =     -2.15239  eV     1   --> A              
     e(  9 -  9) =      1.17297  eV     1   --> A              
     e( 10 - 10) =      1.52588  eV     1   --> A              
     e( 11 - 11) =      9.52080  eV     1   --> A              
     e( 12 - 12) =      9.54782  eV     1   --> A              
     e( 13 - 13) =     10.26251  eV     1   --> A              
     e( 14 - 14) =     11.39287  eV     1   --> A              
     e( 15 - 15) =     11.46700  eV     1   --> A              
     e( 16 - 16) =     11.93139  eV     1   --> A              

 **************************************************************************

 **************************************************************************

                    xk=(  -0.28000,   0.48498,   0.00000  )

     Band symmetry, C_1 (1)     point group:

     e(  1 -  1) =    -14.84848  eV     1   --> A              
     e(  2 -  2) =    -14.73426  eV     1   --> A              
     e(  3 -  3) =    -11.96123  eV     1   --> A              
     e(  4 -  4) =    -11.91249  eV     1   --> A              
     e(  5 -  5) =    -10.31465  eV     1   --> A              
     e(  6 -  6) =    -10.28091  eV     1   --> A              
     e(  7 -  7) =     -2.62324  eV     1   --> A              
     e(  8 -  8) =     -1.93842  eV     1   --> A              
     e(  9 -  9) =      0.93292  eV     1   --> A              
     e( 10 - 10) =      1.28949  eV     1   --> A              
     e( 11 - 11) =      9.70296  eV     1   --> A              
     e( 12 - 12) =      9.84028  eV     1   --> A              
     e( 13 - 13) =     10.22637  eV     1   --> A              
     e( 14 - 14) =     11.48690  eV     1   --> A              
     e( 15 - 15) =     11.79357  eV     1   --> A              
     e( 16 - 16) =     12.00962  eV     1   --> A              

 **************************************************************************

 **************************************************************************

                    xk=(  -0.28666,   0.49652,   0.00000  )

     Band symmetry, C_1 (1)     point group:

     e(  1 -  1) =    -14.62012  eV     1   --> A              
     e(  2 -  2) =    -14.50958  eV     1   --> A              
     e(  3 -  3) =    -12.13286  eV     1   --> A              
     e(  4 -  4) =    -12.08325  eV     1   --> A              
     e(  5 -  5) =    -10.46826  eV     1   --> A              
     e(  6 -  6) =    -10.43507  eV     1   --> A              
     e(  7 -  7) =     -2.38115  eV     1   --> A              
     e(  8 -  8) =     -1.72757  eV     1   --> A              
     e(  9 -  9) =      0.69914  eV     1   --> A              
     e( 10 - 10) =      1.05933  eV     1   --> A              
     e( 11 - 11) =      9.80720  eV     1   --> A              
     e( 12 - 12) =     10.15504  eV     1   --> A              
     e( 13 - 13) =     10.18192  eV     1   --> A              
     e( 14 - 14) =     11.62368  eV     1   --> A              
     e( 15 - 15) =     11.99477  eV     1   --> A              
     e( 16 - 16) =     12.20932  eV     1   --> A              

 **************************************************************************

 **************************************************************************

                    xk=(  -0.29333,   0.50807,   0.00000  )

     Band symmetry, C_1 (1)     point group:

     e(  1 -  1) =    -14.39225  eV     1   --> A              
     e(  2 -  2) =    -14.28587  eV     1   --> A              
     e(  3 -  3) =    -12.29952  eV     1   --> A              
     e(  4 -  4) =    -12.24906  eV     1   --> A              
     e(  5 -  5) =    -10.61250  eV     1   --> A              
     e(  6 -  6) =    -10.58028  eV     1   --> A              
     e(  7 -  7) =     -2.14103  eV     1   --> A              
     e(  8 -  8) =     -1.52096  eV     1   --> A              
     e(  9 -  9) =      0.47194  eV     1   --> A              
     e( 10 - 10) =      0.83575  eV     1   --> A              
     e( 11 - 11) =      9.86347  eV     1   --> A              
     e( 12 - 12) =     10.11935  eV     1   --> A              
     e( 13 - 13) =     10.47935  eV     1   --> A              
     e( 14 - 14) =     11.80778  eV     1   --> A              
     e( 15 - 15) =     12.04822  eV     1   --> A              
     e( 16 - 16) =     12.29835  eV     1   --> A              

 **************************************************************************

 **************************************************************************

                    xk=(  -0.30000,   0.51962,   0.00000  )

     Band symmetry, C_1 (1)     point group:

     e(  1 -  1) =    -14.16662  eV     1   --> A              
     e(  2 -  2) =    -14.06506  eV     1   --> A              
     e(  3 -  3) =    -12.46115  eV     1   --> A              
     e(  4 -  4) =    -12.40986  eV     1   --> A              
     e(  5 -  5) =    -10.74551  eV     1   --> A              
     e(  6 -  6) =    -10.71489  eV     1   --> A              
     e(  7 -  7) =     -1.90406  eV     1   --> A              
     e(  8 -  8) =     -1.31994  eV     1   --> A              
     e(  9 -  9) =      0.25177  eV     1   --> A              
     e( 10 - 10) =      0.61928  eV     1   --> A              
     e( 11 - 11) =      9.88390  eV     1   --> A              
     e( 12 - 12) =     10.06142  eV     1   --> A              
     e( 13 - 13) =     10.79182  eV     1   --> A              
     e( 14 - 14) =     12.02673  eV     1   --> A              
     e( 15 - 15) =     12.07381  eV     1   --> A              
     e( 16 - 16) =     12.33245  eV     1   --> A              

 **************************************************************************

 **************************************************************************

                    xk=(  -0.30666,   0.53116,   0.00000  )

     Band symmetry, C_1 (1)     point group:

     e(  1 -  1) =    -13.94562  eV     1   --> A              
     e(  2 -  2) =    -13.84979  eV     1   --> A              
     e(  3 -  3) =    -12.61768  eV     1   --> A              
     e(  4 -  4) =    -12.56558  eV     1   --> A              
     e(  5 -  5) =    -10.86474  eV     1   --> A              
     e(  6 -  6) =    -10.83658  eV     1   --> A              
     e(  7 -  7) =     -1.67179  eV     1   --> A              
     e(  8 -  8) =     -1.12625  eV     1   --> A              
     e(  9 -  9) =      0.03934  eV     1   --> A              
     e( 10 - 10) =      0.41083  eV     1   --> A              
     e( 11 - 11) =      9.88301  eV     1   --> A              
     e( 12 - 12) =     10.00588  eV     1   --> A              
     e( 13 - 13) =     11.09295  eV     1   --> A              
     e( 14 - 14) =     12.08416  eV     1   --> A              
     e( 15 - 15) =     12.23354  eV     1   --> A              
     e( 16 - 16) =     12.38142  eV     1   --> A              

 **************************************************************************

 **************************************************************************

                    xk=(  -0.31333,   0.54271,   0.00000  )

     Band symmetry, C_1 (1)     point group:

     e(  1 -  1) =    -13.73260  eV     1   --> A              
     e(  2 -  2) =    -13.64375  eV     1   --> A              
     e(  3 -  3) =    -12.76903  eV     1   --> A              
     e(  4 -  4) =    -12.71615  eV     1   --> A              
     e(  5 -  5) =    -10.96667  eV     1   --> A              
     e(  6 -  6) =    -10.94219  eV     1   --> A              
     e(  7 -  7) =     -1.44651  eV     1   --> A              
     e(  8 -  8) =     -0.94253  eV     1   --> A              
     e(  9 -  9) =     -0.16393  eV     1   --> A              
     e( 10 - 10) =      0.21215  eV     1   --> A              
     e( 11 - 11) =      9.87307  eV     1   --> A              
     e( 12 - 12) =      9.95615  eV     1   --> A              
     e( 13 - 13) =     11.37324  eV     1   --> A              
     e( 14 - 14) =     12.08318  eV     1   --> A              
     e( 15 - 15) =     12.28686  eV     1   --> A              
     e( 16 - 16) =     12.56388  eV     1   --> A              

 **************************************************************************

 **************************************************************************

                    xk=(  -0.32000,   0.55426,   0.00000  )

     Band symmetry, C_1 (1)     point group:

     e(  1 -  1) =    -13.53226  eV     1   --> A              
     e(  2 -  2) =    -13.45211  eV     1   --> A              
     e(  3 -  3) =    -12.91501  eV     1   --> A              
     e(  4 -  4) =    -12.86141  eV     1   --> A              
     e(  5 -  5) =    -11.04642  eV     1   --> A              
     e(  6 -  6) =    -11.02726  eV     1   --> A              
     e(  7 -  7) =     -1.23295  eV     1   --> A              
     e(  8 -  8) =     -0.77424  eV     1   --> A              
     e(  9 -  9) =     -0.35427  eV     1   --> A              
     e( 10 - 10) =      0.02782  eV     1   --> A              
     e( 11 - 11) =      9.86303  eV     1   --> A              
     e( 12 - 12) =      9.91479  eV     1   --> A              
     e( 13 - 13) =     11.61572  eV     1   --> A              
     e( 14 - 14) =     12.07833  eV     1   --> A              
     e( 15 - 15) =     12.26451  eV     1   --> A              
     e( 16 - 16) =     12.76898  eV     1   --> A              

 **************************************************************************

 **************************************************************************

                    xk=(  -0.32666,   0.56581,   0.00000  )

     Band symmetry, C_1 (1)     point group:

     e(  1 -  1) =    -13.35145  eV     1   --> A              
     e(  2 -  2) =    -13.28214  eV     1   --> A              
     e(  3 -  3) =    -13.05484  eV     1   --> A              
     e(  4 -  4) =    -13.00068  eV     1   --> A              
     e(  5 -  5) =    -11.09777  eV     1   --> A              
     e(  6 -  6) =    -11.08575  eV     1   --> A              
     e(  7 -  7) =     -1.04599  eV     1   --> A              
     e(  8 -  8) =     -0.63761  eV     1   --> A              
     e(  9 -  9) =     -0.51767  eV     1   --> A              
     e( 10 - 10) =     -0.12679  eV     1   --> A              
     e( 11 - 11) =      9.85894  eV     1   --> A              
     e( 12 - 12) =      9.88405  eV     1   --> A              
     e( 13 - 13) =     11.78447  eV     1   --> A              
     e( 14 - 14) =     12.09254  eV     1   --> A              
     e( 15 - 15) =     12.21754  eV     1   --> A              
     e( 16 - 16) =     12.90439  eV     1   --> A              

 **************************************************************************

 **************************************************************************

                    xk=(  -0.33333,   0.57735,   0.00000  )

     point group C_3 (3)    
     there are  3 classes
     the character table:

       E     C3    C3^2 
A      1.00  1.00  1.00
E      1.00 -0.50 -0.50
E*     1.00 -0.50 -0.50
     imaginary part
A      0.00  0.00  0.00
E      0.00  0.87 -0.87
E*     0.00 -0.87  0.87

     the symmetry operations in each class and the name of the first element:

     E        1
                                                                 
     C3       2
                                                                 
     C3^2     3
                                                                 

     Band symmetry, C_3 (3)     point group:

     e(  1 -  1) =    -13.22195  eV     1   --> A              
     e(  2 -  2) =    -13.16704  eV     1   --> E*             
     e(  3 -  3) =    -13.16086  eV     1   --> E              
     e(  4 -  4) =    -13.11184  eV     1   --> A              
     e(  5 -  5) =    -11.11482  eV     1   --> E              
     e(  6 -  6) =    -11.10870  eV     1   --> E*             
     e(  7 -  7) =     -0.95297  eV     1   --> A              
     e(  8 -  8) =     -0.59082  eV     1   --> E*             
     e(  9 -  9) =     -0.58489  eV     1   --> E              
     e( 10 - 10) =     -0.19711  eV     1   --> A              
     e( 11 - 11) =      9.86307  eV     1   --> E              
     e( 12 - 12) =      9.86739  eV     1   --> E*             
     e( 13 - 13) =     11.83650  eV     1   --> A              
     e( 14 - 14) =     12.15298  eV     1   -->   ?
     e( 15 - 15) =     12.15328  eV     1   -->   ?
     e( 16 - 16) =     12.94612  eV     1   --> A              

 **************************************************************************

 **************************************************************************

                    xk=(  -0.32666,   0.57735,   0.00000  )

     point group C_1 (1)    
     there are  1 classes
     the character table:

       E    
A      1.00

     the symmetry operations in each class and the name of the first element:

     E        1
                                                                 

     Band symmetry, C_1 (1)     point group:

     e(  1 -  1) =    -13.26597  eV     1   --> A              
     e(  2 -  2) =    -13.20950  eV     1   --> A              
     e(  3 -  3) =    -13.12035  eV     1   --> A              
     e(  4 -  4) =    -13.07363  eV     1   --> A              
     e(  5 -  5) =    -11.11064  eV     1   --> A              
     e(  6 -  6) =    -11.10203  eV     1   --> A              
     e(  7 -  7) =     -0.97692  eV     1   --> A              
     e(  8 -  8) =     -0.61663  eV     1   --> A              
     e(  9 -  9) =     -0.55293  eV     1   --> A              
     e( 10 - 10) =     -0.17997  eV     1   --> A              
     e( 11 - 11) =      9.86051  eV     1   --> A              
     e( 12 - 12) =      9.87332  eV     1   --> A              
     e( 13 - 13) =     11.82810  eV     1   --> A              
     e( 14 - 14) =     12.11545  eV     1   --> A              
     e( 15 - 15) =     12.18640  eV     1   --> A              
     e( 16 - 16) =     12.93744  eV     1   --> A              

 **************************************************************************

 **************************************************************************

                    xk=(  -0.32000,   0.57735,   0.00000  )

     Band symmetry, C_1 (1)     point group:

     e(  1 -  1) =    -13.32804  eV     1   --> A              
     e(  2 -  2) =    -13.27155  eV     1   --> A              
     e(  3 -  3) =    -13.06656  eV     1   --> A              
     e(  4 -  4) =    -13.02745  eV     1   --> A              
     e(  5 -  5) =    -11.09655  eV     1   --> A              
     e(  6 -  6) =    -11.08264  eV     1   --> A              
     e(  7 -  7) =     -1.03338  eV     1   --> A              
     e(  8 -  8) =     -0.67089  eV     1   --> A              
     e(  9 -  9) =     -0.48620  eV     1   --> A              
     e( 10 - 10) =     -0.13802  eV     1   --> A              
     e( 11 - 11) =      9.85982  eV     1   --> A              
     e( 12 - 12) =      9.88422  eV     1   --> A              
     e( 13 - 13) =     11.80754  eV     1   --> A              
     e( 14 - 14) =     12.07467  eV     1   --> A              
     e( 15 - 15) =     12.20889  eV     1   --> A              
     e( 16 - 16) =     12.91384  eV     1   --> A              

 **************************************************************************

 **************************************************************************

                    xk=(  -0.31333,   0.57735,   0.00000  )

     Band symmetry, C_1 (1)     point group:

     e(  1 -  1) =    -13.39060  eV     1   --> A              
     e(  2 -  2) =    -13.33387  eV     1   --> A              
     e(  3 -  3) =    -13.02086  eV     1   --> A              
     e(  4 -  4) =    -12.98979  eV     1   --> A              
     e(  5 -  5) =    -11.07117  eV     1   --> A              
     e(  6 -  6) =    -11.05109  eV     1   --> A              
     e(  7 -  7) =     -1.10413  eV     1   --> A              
     e(  8 -  8) =     -0.73839  eV     1   --> A              
     e(  9 -  9) =     -0.40578  eV     1   --> A              
     e( 10 - 10) =     -0.08392  eV     1   --> A              
     e( 11 - 11) =      9.86256  eV     1   --> A              
     e( 12 - 12) =      9.89884  eV     1   --> A              
     e( 13 - 13) =     11.77924  eV     1   --> A              
     e( 14 - 14) =     12.03121  eV     1   --> A              
     e( 15 - 15) =     12.21527  eV     1   --> A              
     e( 16 - 16) =     12.87759  eV     1   --> A              

 **************************************************************************

 **************************************************************************

                    xk=(  -0.30666,   0.57735,   0.00000  )

     Band symmetry, C_1 (1)     point group:

     e(  1 -  1) =    -13.45232  eV     1   --> A              
     e(  2 -  2) =    -13.39531  eV     1   --> A              
     e(  3 -  3) =    -12.98485  eV     1   --> A              
     e(  4 -  4) =    -12.96176  eV     1   --> A              
     e(  5 -  5) =    -11.03406  eV     1   --> A              
     e(  6 -  6) =    -11.00764  eV     1   --> A              
     e(  7 -  7) =     -1.18054  eV     1   --> A              
     e(  8 -  8) =     -0.81187  eV     1   --> A              
     e(  9 -  9) =     -0.32044  eV     1   --> A              
     e( 10 - 10) =     -0.02489  eV     1   --> A              
     e( 11 - 11) =      9.86886  eV     1   --> A              
     e( 12 - 12) =      9.91713  eV     1   --> A              
     e( 13 - 13) =     11.74549  eV     1   --> A              
     e( 14 - 14) =     11.98535  eV     1   --> A              
     e( 15 - 15) =     12.20305  eV     1   --> A              
     e( 16 - 16) =     12.83147  eV     1   --> A              

 **************************************************************************

 **************************************************************************

                    xk=(  -0.30000,   0.57735,   0.00000  )

     Band symmetry, C_1 (1)     point group:

     e(  1 -  1) =    -13.51293  eV     1   --> A              
     e(  2 -  2) =    -13.45562  eV     1   --> A              
     e(  3 -  3) =    -12.95876  eV     1   --> A              
     e(  4 -  4) =    -12.94317  eV     1   --> A              
     e(  5 -  5) =    -10.98534  eV     1   --> A              
     e(  6 -  6) =    -10.95279  eV     1   --> A              
     e(  7 -  7) =     -1.25896  eV     1   --> A              
     e(  8 -  8) =     -0.88784  eV     1   --> A              
     e(  9 -  9) =     -0.23393  eV     1   --> A              
     e( 10 - 10) =      0.03554  eV     1   --> A              
     e( 11 - 11) =      9.87875  eV     1   --> A              
     e( 12 - 12) =      9.93917  eV     1   --> A              
     e( 13 - 13) =     11.70763  eV     1   --> A              
     e( 14 - 14) =     11.93743  eV     1   --> A              
     e( 15 - 15) =     12.17155  eV     1   --> A              
     e( 16 - 16) =     12.77570  eV     1   --> A              

 **************************************************************************

 **************************************************************************

                    xk=(  -0.29333,   0.57735,   0.00000  )

     Band symmetry, C_1 (1)     point group:

     e(  1 -  1) =    -13.57233  eV     1   --> A              
     e(  2 -  2) =    -13.51470  eV     1   --> A              
     e(  3 -  3) =    -12.94243  eV     1   --> A              
     e(  4 -  4) =    -12.93320  eV     1   --> A              
     e(  5 -  5) =    -10.92549  eV     1   --> A              
     e(  6 -  6) =    -10.88728  eV     1   --> A              
     e(  7 -  7) =     -1.33775  eV     1   --> A              
     e(  8 -  8) =     -0.96455  eV     1   --> A              
     e(  9 -  9) =     -0.14798  eV     1   --> A              
     e( 10 - 10) =      0.09560  eV     1   --> A              
     e( 11 - 11) =      9.89224  eV     1   --> A              
     e( 12 - 12) =      9.96498  eV     1   --> A              
     e( 13 - 13) =     11.66636  eV     1   --> A              
     e( 14 - 14) =     11.88777  eV     1   --> A              
     e( 15 - 15) =     12.12128  eV     1   --> A              
     e( 16 - 16) =     12.71014  eV     1   --> A              

 **************************************************************************

 **************************************************************************

                    xk=(  -0.28666,   0.57735,   0.00000  )

     Band symmetry, C_1 (1)     point group:

     e(  1 -  1) =    -13.63047  eV     1   --> A              
     e(  2 -  2) =    -13.57252  eV     1   --> A              
     e(  3 -  3) =    -12.93609  eV     1   --> A              
     e(  4 -  4) =    -12.93001  eV     1   --> A              
     e(  5 -  5) =    -10.85535  eV     1   --> A              
     e(  6 -  6) =    -10.81210  eV     1   --> A              
     e(  7 -  7) =     -1.41607  eV     1   --> A              
     e(  8 -  8) =     -1.04107  eV     1   --> A              
     e(  9 -  9) =     -0.06350  eV     1   --> A              
     e( 10 - 10) =      0.15433  eV     1   --> A              
     e( 11 - 11) =      9.90924  eV     1   --> A              
     e( 12 - 12) =      9.99445  eV     1   --> A              
     e( 13 - 13) =     11.62205  eV     1   --> A              
     e( 14 - 14) =     11.83663  eV     1   --> A              
     e( 15 - 15) =     12.05368  eV     1   --> A              
     e( 16 - 16) =     12.63493  eV     1   --> A              

 **************************************************************************

 **************************************************************************

                    xk=(  -0.28000,   0.57735,   0.00000  )

     Band symmetry, C_1 (1)     point group:

     e(  1 -  1) =    -13.68733  eV     1   --> A              
     e(  2 -  2) =    -13.62907  eV     1   --> A              
     e(  3 -  3) =    -12.93993  eV     1   --> A              
     e(  4 -  4) =    -12.93146  eV     1   --> A              
     e(  5 -  5) =    -10.77593  eV     1   --> A              
[...]
     e( 14 - 14) =      7.81281  eV     1   --> A'             
     e( 15 - 15) =      7.89847  eV     1   --> A'             
     e( 16 - 16) =      8.21296  eV     1   --> A'             

 **************************************************************************

 **************************************************************************

                    xk=(   0.00000,   0.16166,   0.00000  )

     Band symmetry, C_s (m)     point group:

     e(  1 -  1) =    -19.68013  eV     1   --> A'             
     e(  2 -  2) =    -19.51208  eV     1   --> A'             
     e(  3 -  3) =     -8.16305  eV     1   --> A'             
     e(  4 -  4) =     -7.10721  eV     1   --> A'             
     e(  5 -  5) =     -5.33875  eV     1   --> A'             
     e(  6 -  6) =     -5.30689  eV     1   --> A'             
     e(  7 -  7) =     -4.49874  eV     1   --> A''            
     e(  8 -  8) =     -4.47612  eV     1   --> A''            
     e(  9 -  9) =      3.18947  eV     1   --> A'             
     e( 10 - 10) =      3.61930  eV     1   --> A'             
     e( 11 - 11) =      4.78336  eV     1   --> A'             
     e( 12 - 12) =      5.89617  eV     1   --> A'             
     e( 13 - 13) =      6.26790  eV     1   --> A'             
     e( 14 - 14) =      7.83062  eV     1   --> A'             
     e( 15 - 15) =      7.90089  eV     1   --> A'             
     e( 16 - 16) =      8.13872  eV     1   --> A'             

 **************************************************************************

 **************************************************************************

                    xk=(   0.00000,   0.15011,   0.00000  )

     Band symmetry, C_s (m)     point group:

     e(  1 -  1) =    -19.74374  eV     1   --> A'             
     e(  2 -  2) =    -19.57502  eV     1   --> A'             
     e(  3 -  3) =     -8.23979  eV     1   --> A'             
     e(  4 -  4) =     -7.18117  eV     1   --> A'             
     e(  5 -  5) =     -5.12967  eV     1   --> A'             
     e(  6 -  6) =     -5.09997  eV     1   --> A'             
     e(  7 -  7) =     -4.39843  eV     1   --> A''            
     e(  8 -  8) =     -4.37659  eV     1   --> A''            
     e(  9 -  9) =      3.10399  eV     1   --> A'             
     e( 10 - 10) =      3.53332  eV     1   --> A'             
     e( 11 - 11) =      4.69544  eV     1   --> A'             
     e( 12 - 12) =      5.80911  eV     1   --> A'             
     e( 13 - 13) =      6.18737  eV     1   --> A'             
     e( 14 - 14) =      7.84349  eV     1   --> A'             
     e( 15 - 15) =      7.89422  eV     1   --> A'             
     e( 16 - 16) =      8.07352  eV     1   --> A'             

 **************************************************************************

 **************************************************************************

                    xk=(   0.00000,   0.13856,   0.00000  )

     Band symmetry, C_s (m)     point group:

     e(  1 -  1) =    -19.80267  eV     1   --> A'             
     e(  2 -  2) =    -19.63334  eV     1   --> A'             
     e(  3 -  3) =     -8.31094  eV     1   --> A'             
     e(  4 -  4) =     -7.24979  eV     1   --> A'             
     e(  5 -  5) =     -4.93021  eV     1   --> A'             
     e(  6 -  6) =     -4.90261  eV     1   --> A'             
     e(  7 -  7) =     -4.30142  eV     1   --> A''            
     e(  8 -  8) =     -4.28040  eV     1   --> A''            
     e(  9 -  9) =      3.02484  eV     1   --> A'             
     e( 10 - 10) =      3.45366  eV     1   --> A'             
     e( 11 - 11) =      4.61403  eV     1   --> A'             
     e( 12 - 12) =      5.72838  eV     1   --> A'             
     e( 13 - 13) =      6.11261  eV     1   --> A'             
     e( 14 - 14) =      7.84873  eV     1   --> A'             
     e( 15 - 15) =      7.87769  eV     1   --> A'             
     e( 16 - 16) =      8.02333  eV     1   --> A'             

 **************************************************************************

 **************************************************************************

                    xk=(   0.00000,   0.12702,   0.00000  )

     Band symmetry, C_s (m)     point group:

     e(  1 -  1) =    -19.85693  eV     1   --> A'             
     e(  2 -  2) =    -19.68703  eV     1   --> A'             
     e(  3 -  3) =     -8.37650  eV     1   --> A'             
     e(  4 -  4) =     -7.31303  eV     1   --> A'             
     e(  5 -  5) =     -4.74134  eV     1   --> A'             
     e(  6 -  6) =     -4.71577  eV     1   --> A'             
     e(  7 -  7) =     -4.20836  eV     1   --> A''            
     e(  8 -  8) =     -4.18820  eV     1   --> A''            
     e(  9 -  9) =      2.95201  eV     1   --> A'             
     e( 10 - 10) =      3.38034  eV     1   --> A'             
     e( 11 - 11) =      4.53914  eV     1   --> A'             
     e( 12 - 12) =      5.65415  eV     1   --> A'             
     e( 13 - 13) =      6.04374  eV     1   --> A'             
     e( 14 - 14) =      7.82956  eV     1   --> A'             
     e( 15 - 15) =      7.86740  eV     1   --> A'             
     e( 16 - 16) =      7.98913  eV     1   --> A'             

 **************************************************************************

 **************************************************************************

                    xk=(   0.00000,   0.11547,   0.00000  )

     Band symmetry, C_s (m)     point group:

     e(  1 -  1) =    -19.90650  eV     1   --> A'             
     e(  2 -  2) =    -19.73608  eV     1   --> A'             
     e(  3 -  3) =     -8.43643  eV     1   --> A'             
     e(  4 -  4) =     -7.37086  eV     1   --> A'             
     e(  5 -  5) =     -4.56413  eV     1   --> A'             
     e(  6 -  6) =     -4.54048  eV     1   --> A'             
     e(  7 -  7) =     -4.12001  eV     1   --> A''            
     e(  8 -  8) =     -4.10073  eV     1   --> A''            
     e(  9 -  9) =      2.88550  eV     1   --> A'             
     e( 10 - 10) =      3.31337  eV     1   --> A'             
     e( 11 - 11) =      4.47075  eV     1   --> A'             
     e( 12 - 12) =      5.58632  eV     1   --> A'             
     e( 13 - 13) =      5.98070  eV     1   --> A'             
     e( 14 - 14) =      7.78855  eV     1   --> A'             
     e( 15 - 15) =      7.86625  eV     1   --> A'             
     e( 16 - 16) =      7.96586  eV     1   --> A'             

 **************************************************************************

 **************************************************************************

                    xk=(   0.00000,   0.10392,   0.00000  )

     Band symmetry, C_s (m)     point group:

     e(  1 -  1) =    -19.95137  eV     1   --> A'             
     e(  2 -  2) =    -19.78048  eV     1   --> A'             
     e(  3 -  3) =     -8.49071  eV     1   --> A'             
     e(  4 -  4) =     -7.42326  eV     1   --> A'             
     e(  5 -  5) =     -4.39957  eV     1   --> A'             
     e(  6 -  6) =     -4.37775  eV     1   --> A'             
     e(  7 -  7) =     -4.03706  eV     1   --> A''            
     e(  8 -  8) =     -4.01870  eV     1   --> A''            
     e(  9 -  9) =      2.82533  eV     1   --> A'             
     e( 10 - 10) =      3.25277  eV     1   --> A'             
     e( 11 - 11) =      4.40893  eV     1   --> A'             
     e( 12 - 12) =      5.52489  eV     1   --> A'             
     e( 13 - 13) =      5.92365  eV     1   --> A'             
     e( 14 - 14) =      7.74345  eV     1   -->   ?
     e( 15 - 15) =      7.86382  eV     1   --> A'             
     e( 16 - 16) =      7.94744  eV     1   --> A'             

 **************************************************************************

 **************************************************************************

                    xk=(   0.00000,   0.09238,   0.00000  )

     Band symmetry, C_s (m)     point group:

     e(  1 -  1) =    -19.99153  eV     1   --> A'             
     e(  2 -  2) =    -19.82022  eV     1   --> A'             
     e(  3 -  3) =     -8.53933  eV     1   --> A'             
     e(  4 -  4) =     -7.47021  eV     1   --> A'             
     e(  5 -  5) =     -4.24872  eV     1   --> A'             
     e(  6 -  6) =     -4.22861  eV     1   --> A'             
     e(  7 -  7) =     -3.96026  eV     1   --> A''            
     e(  8 -  8) =     -3.94279  eV     1   --> A''            
     e(  9 -  9) =      2.77149  eV     1   --> A'             
     e( 10 - 10) =      3.19852  eV     1   --> A'             
     e( 11 - 11) =      4.35352  eV     1   --> A'             
     e( 12 - 12) =      5.46997  eV     1   --> A'             
     e( 13 - 13) =      5.87251  eV     1   --> A'             
     e( 14 - 14) =      7.69999  eV     1   -->   ?
     e( 15 - 15) =      7.85914  eV     1   --> A'             
     e( 16 - 16) =      7.93063  eV     1   -->   ?

 **************************************************************************

 **************************************************************************

                    xk=(   0.00000,   0.08083,   0.00000  )

     Band symmetry, C_s (m)     point group:

     e(  1 -  1) =    -20.02698  eV     1   --> A'             
     e(  2 -  2) =    -19.85530  eV     1   --> A'             
     e(  3 -  3) =     -8.58227  eV     1   --> A'             
     e(  4 -  4) =     -7.51168  eV     1   --> A'             
     e(  5 -  5) =     -4.11261  eV     1   --> A'             
     e(  6 -  6) =     -4.09410  eV     1   --> A'             
     e(  7 -  7) =     -3.89034  eV     1   --> A''            
     e(  8 -  8) =     -3.87378  eV     1   --> A''            
     e(  9 -  9) =      2.72398  eV     1   --> A'             
     e( 10 - 10) =      3.15065  eV     1   --> A'             
     e( 11 - 11) =      4.30466  eV     1   --> A'             
     e( 12 - 12) =      5.42148  eV     1   --> A'             
     e( 13 - 13) =      5.82738  eV     1   --> A'             
     e( 14 - 14) =      7.65958  eV     1   -->   ?
     e( 15 - 15) =      7.85240  eV     1   --> A'             
     e( 16 - 16) =      7.91445  eV     1   -->   ?

 **************************************************************************

 **************************************************************************

                    xk=(   0.00000,   0.06928,   0.00000  )

     Band symmetry, C_s (m)     point group:

     e(  1 -  1) =    -20.05772  eV     1   --> A'             
     e(  2 -  2) =    -19.88572  eV     1   --> A'             
     e(  3 -  3) =     -8.61951  eV     1   --> A'             
     e(  4 -  4) =     -7.54768  eV     1   --> A'             
     e(  5 -  5) =     -3.99224  eV     1   --> A'             
     e(  6 -  6) =     -3.97519  eV     1   --> A'             
     e(  7 -  7) =     -3.82801  eV     1   --> A''            
     e(  8 -  8) =     -3.81234  eV     1   --> A''            
     e(  9 -  9) =      2.68281  eV     1   --> A'             
     e( 10 - 10) =      3.10915  eV     1   --> A'             
     e( 11 - 11) =      4.26232  eV     1   --> A'             
     e( 12 - 12) =      5.37947  eV     1   --> A'             
     e( 13 - 13) =      5.78827  eV     1   --> A'             
     e( 14 - 14) =      7.62399  eV     1   -->   ?
     e( 15 - 15) =      7.84440  eV     1   --> A'             
     e( 16 - 16) =      7.89818  eV     1   -->   ?

 **************************************************************************

 **************************************************************************

                    xk=(   0.00000,   0.05774,   0.00000  )

     Band symmetry, C_s (m)     point group:

     e(  1 -  1) =    -20.08374  eV     1   --> A'             
     e(  2 -  2) =    -19.91146  eV     1   --> A'             
     e(  3 -  3) =     -8.65104  eV     1   --> A'             
     e(  4 -  4) =     -7.57814  eV     1   --> A'             
     e(  5 -  5) =     -3.88856  eV     1   --> A'             
     e(  6 -  6) =     -3.87277  eV     1   --> A'             
     e(  7 -  7) =     -3.77395  eV     1   --> A''            
     e(  8 -  8) =     -3.75909  eV     1   --> A''            
     e(  9 -  9) =      2.64797  eV     1   --> A'             
     e( 10 - 10) =      3.07403  eV     1   --> A'             
     e( 11 - 11) =      4.22650  eV     1   --> A'             
     e( 12 - 12) =      5.34392  eV     1   --> A'             
     e( 13 - 13) =      5.75516  eV     1   --> A'             
     e( 14 - 14) =      7.59361  eV     1   -->   ?
     e( 15 - 15) =      7.83586  eV     1   --> A'             
     e( 16 - 16) =      7.88275  eV     1   -->   ?

 **************************************************************************

 **************************************************************************

                    xk=(   0.00000,   0.04619,   0.00000  )

     Band symmetry, C_s (m)     point group:

     e(  1 -  1) =    -20.10503  eV     1   --> A'             
     e(  2 -  2) =    -19.93253  eV     1   --> A'             
     e(  3 -  3) =     -8.67685  eV     1   --> A'             
     e(  4 -  4) =     -7.60309  eV     1   --> A'             
     e(  5 -  5) =     -3.80241  eV     1   --> A'             
     e(  6 -  6) =     -3.78773  eV     1   --> A'             
     e(  7 -  7) =     -3.72876  eV     1   --> A''            
     e(  8 -  8) =     -3.71466  eV     1   --> A''            
     e(  9 -  9) =      2.61947  eV     1   --> A'             
     e( 10 - 10) =      3.04530  eV     1   --> A'             
     e( 11 - 11) =      4.19719  eV     1   --> A'             
     e( 12 - 12) =      5.31483  eV     1   --> A'             
     e( 13 - 13) =      5.72808  eV     1   --> A'             
     e( 14 - 14) =      7.56865  eV     1   -->   ?
     e( 15 - 15) =      7.82756  eV     1   --> A'             
     e( 16 - 16) =      7.86877  eV     1   -->   ?

 **************************************************************************

 **************************************************************************

                    xk=(   0.00000,   0.03464,   0.00000  )

     Band symmetry, C_s (m)     point group:

     e(  1 -  1) =    -20.12159  eV     1   --> A'             
     e(  2 -  2) =    -19.94892  eV     1   --> A'             
     e(  3 -  3) =     -8.69694  eV     1   --> A'             
     e(  4 -  4) =     -7.62251  eV     1   --> A'             
     e(  5 -  5) =     -3.73457  eV     1   --> A'             
     e(  6 -  6) =     -3.72081  eV     1   --> A'             
     e(  7 -  7) =     -3.69301  eV     1   --> A''            
     e(  8 -  8) =     -3.67956  eV     1   --> A''            
     e(  9 -  9) =      2.59730  eV     1   --> A'             
     e( 10 - 10) =      3.02295  eV     1   --> A'             
     e( 11 - 11) =      4.17439  eV     1   --> A'             
     e( 12 - 12) =      5.29220  eV     1   --> A'             
     e( 13 - 13) =      5.70701  eV     1   --> A'             
     e( 14 - 14) =      7.54899  eV     1   -->   ?
     e( 15 - 15) =      7.82023  eV     1   --> A'             
     e( 16 - 16) =      7.85712  eV     1   -->   ?

 **************************************************************************

 **************************************************************************

                    xk=(   0.00000,   0.02309,   0.00000  )

     Band symmetry, C_s (m)     point group:

     e(  1 -  1) =    -20.13343  eV     1   --> A'             
     e(  2 -  2) =    -19.96063  eV     1   --> A'             
     e(  3 -  3) =     -8.71129  eV     1   --> A'             
     e(  4 -  4) =     -7.63638  eV     1   --> A'             
     e(  5 -  5) =     -3.68563  eV     1   --> A'             
     e(  6 -  6) =     -3.67253  eV     1   --> A'             
     e(  7 -  7) =     -3.66715  eV     1   --> A''            
     e(  8 -  8) =     -3.65418  eV     1   --> A''            
     e(  9 -  9) =      2.58147  eV     1   --> A'             
     e( 10 - 10) =      3.00698  eV     1   --> A'             
     e( 11 - 11) =      4.15811  eV     1   --> A'             
     e( 12 - 12) =      5.27606  eV     1   --> A'             
     e( 13 - 13) =      5.69196  eV     1   --> A'             
     e( 14 - 14) =      7.53503  eV     1   --> A'             
     e( 15 - 15) =      7.81453  eV     1   --> A'             
     e( 16 - 16) =      7.84840  eV     1   -->   ?

 **************************************************************************

 **************************************************************************

                    xk=(   0.00000,   0.01155,   0.00000  )

     Band symmetry, C_s (m)     point group:

     e(  1 -  1) =    -20.14053  eV     1   --> A'             
     e(  2 -  2) =    -19.96765  eV     1   --> A'             
     e(  3 -  3) =     -8.71991  eV     1   --> A'             
     e(  4 -  4) =     -7.64470  eV     1   --> A'             
     e(  5 -  5) =     -3.65609  eV     1   --> A'             
     e(  6 -  6) =     -3.65149  eV     1   --> A''            
     e(  7 -  7) =     -3.64340  eV     1   --> A'             
     e(  8 -  8) =     -3.63882  eV     1   --> A''            
     e(  9 -  9) =      2.57197  eV     1   --> A'             
     e( 10 - 10) =      2.99740  eV     1   --> A'             
     e( 11 - 11) =      4.14835  eV     1   --> A'             
     e( 12 - 12) =      5.26635  eV     1   --> A'             
     e( 13 - 13) =      5.68295  eV     1   --> A'             
     e( 14 - 14) =      7.52739  eV     1   -->   ?
     e( 15 - 15) =      7.81089  eV     1   --> A'             
     e( 16 - 16) =      7.81995  eV     1   --> A''            

 **************************************************************************

 **************************************************************************

                    xk=(   0.00000,   0.00000,   0.00000  )

     point group C_3v (3m)  
     there are  3 classes
     the character table:

       E     2C3   3s_v 
A_1    1.00  1.00  1.00
A_2    1.00  1.00 -1.00
E      2.00 -1.00  0.00

     the symmetry operations in each class and the name of the first element:

     E        1
                                                                 
     2C3      2    3
                                                                 
     3s_v     4    5    6
                                                                 

     Band symmetry, C_3v (3m)   point group:

     e(  1 -  1) =    -20.14289  eV     1   --> A_1  L_1       
     e(  2 -  2) =    -19.96999  eV     1   --> A_1  L_1       
     e(  3 -  3) =     -8.72279  eV     1   --> A_1  L_1       
     e(  4 -  4) =     -7.64748  eV     1   --> A_1  L_1       
     e(  5 -  6) =     -3.64626  eV     2   --> E    L_3       
     e(  7 -  8) =     -3.63369  eV     2   --> E    L_3       
     e(  9 -  9) =      2.56881  eV     1   --> A_1  L_1       
     e( 10 - 10) =      2.99421  eV     1   --> A_1  L_1       
     e( 11 - 11) =      4.14512  eV     1   --> A_1  L_1       
     e( 12 - 12) =      5.26314  eV     1   --> A_1  L_1       
     e( 13 - 13) =      5.67998  eV     1   --> A_1  L_1       
     e( 14 - 15) =      7.80955  eV     2   -->   ?
     e( 16 - 16) =      7.84083  eV     1   -->   ?

 **************************************************************************

     BANDS        :     13.43s CPU     14.27s WALL


   This run was terminated on:  14:59:13  14Apr2025            

=------------------------------------------------------------------------------=
   JOB DONE.
=------------------------------------------------------------------------------=
