
     Program BANDS v.7.2 starts on 15Apr2024 at 17:11:42 

     This program is part of the open-source Quantum ESPRESSO suite
     for quantum simulation of materials; please cite
         "P. Giannozzi et al., J. Phys.:Condens. Matter 21 395502 (2009);
         "P. Giannozzi et al., J. Phys.:Condens. Matter 29 465901 (2017);
         "P. Giannozzi et al., J. Chem. Phys. 152 154105 (2020);
          URL http://www.quantum-espresso.org", 
     in publications or presentations arising from this work. More details at
     http://www.quantum-espresso.org/quote

     Parallel version (MPI & OpenMP), running on       8 processor cores
     Number of MPI processes:                 8
     Threads/MPI process:                     1

     MPI processes distributed on     1 nodes
     R & G space division:  proc/nbgrp/npool/nimage =       8
     0 MiB available memory on the printing compute node when the environment starts


     Reading xml data from directory:

     ./tmp/C2L_AB_PBE_vdW.save/

     IMPORTANT: XC functional enforced from input :
     Exchange-correlation= VDW-DF2-B86R
                           (   1   4  26   0   2   0   0)
     Any further DFT definition will be discarded
     Please, verify this is what you really want


     Parallelization info
     --------------------
     sticks:   dense  smooth     PW     G-vecs:    dense   smooth      PW
     Min          45      45     13                 5519     5519     941
     Max          46      46     14                 5546     5546     968
     Sum         361     361    109                44285    44285    7663

     Using Slab Decomposition



     %%%%%%%%%%%%%%%%%%%%%%%%%%%%%%%%%%%%%%%%%%%%%%%%%%%%%%%%%%%%%%%%%%%%%%%%
     %                                                                      %
     % You are using vdW-DF, which was implemented by the Thonhauser group. %
     % Please cite the following two papers that made this development      %
     % possible and the two reviews that describe the various versions:     %
     %                                                                      %
     %   T. Thonhauser et al., PRL 115, 136402 (2015).                      %
     %   T. Thonhauser et al., PRB 76, 125112 (2007).                       %
     %   K. Berland et al., Rep. Prog. Phys. 78, 066501 (2015).             %
     %   D.C. Langreth et al., J. Phys.: Condens. Matter 21, 084203 (2009). %
     %                                                                      %
     % If you are calculating stress with vdW-DF, please also cite:         %
     %                                                                      %
     %   R. Sabatini et al., J. Phys.: Condens. Matter 24, 424209 (2012).   %
     %                                                                      %
     %%%%%%%%%%%%%%%%%%%%%%%%%%%%%%%%%%%%%%%%%%%%%%%%%%%%%%%%%%%%%%%%%%%%%%%%

     %%%%%%%%%%%%%%%%%%%%%%%%%%%%%%%%%%%%%%%%%%%%%%%%%%%%%%%%%%%%%%%%%%%%%%%%
     %                                                                      %
     %  vdW-DF NEWS:                                                        %
     %                                                                      %
     %  * vdW-DF3 is now available. DOI: 10.1021/acs.jctc.0c00471           %
     %    use with input_dft = 'vdW-DF3-opt1' or 'vdW-DF3-opt2'             %
     %                                                                      %
     %  * Unscreened and range-separated hybrid vdW-DF-cx functionals       %
     %    DOI: 10.1063/1.4986522 and 10.1088/1361-648X/ac2ad2               %
     %    use with input_dft = 'vdW-DF-cx0'    and 'vdW-DF-ahcx'            %
     %  * Unscreened and range-separated hybrid vdW-DF2-b86r functionals    %
     %    DOI: 10.1063/1.4986522 and DOI: 10.1103/PhysRevX.12.041003        %
     %    use with input_dft = 'vdW-DF2-br0' and 'vdW-DF2-ahbr'             %
     %                                                                      %
     %%%%%%%%%%%%%%%%%%%%%%%%%%%%%%%%%%%%%%%%%%%%%%%%%%%%%%%%%%%%%%%%%%%%%%%%


     Reading collected, re-writing distributed wavefunctions
     high-symmetry point:  0.0000 0.0000 0.0000   x coordinate   0.0000
     high-symmetry point: -0.3333 0.5774 0.0000   x coordinate   0.6667
     high-symmetry point:  0.0000 0.5774 0.0000   x coordinate   1.0000
     high-symmetry point:  0.0000 0.0000 0.0000   x coordinate   1.5773

     Plottable bands (eV) written to file Bande_C2L_AB_PBE_vdW.dat.gnu
     Bands written to file Bande_C2L_AB_PBE_vdW.dat

 **************************************************************************

                    xk=(   0.00000,   0.00000,   0.00000  )

     point group C_3v (3m)  
     there are  3 classes
     the character table:

       E     2C3   3s_v 
A_1    1.00  1.00  1.00
A_2    1.00  1.00 -1.00
E      2.00 -1.00  0.00

     the symmetry operations in each class and the name of the first element:

     E        1
                                                                 
     2C3      2    3
                                                                 
     3s_v     4    5    6
                                                                 

     Band symmetry, C_3v (3m)   point group:

     e(  1 -  1) =    -20.15420  eV     1   --> A_1  L_1       
     e(  2 -  2) =    -19.98018  eV     1   --> A_1  L_1       
     e(  3 -  3) =     -8.72403  eV     1   --> A_1  L_1       
     e(  4 -  4) =     -7.64835  eV     1   --> A_1  L_1       
     e(  5 -  6) =     -3.64262  eV     2   --> E    L_3       
     e(  7 -  8) =     -3.62026  eV     2   --> E    L_3       
     e(  9 -  9) =      2.56222  eV     1   --> A_1  L_1       
     e( 10 - 10) =      2.98456  eV     1   --> A_1  L_1       
     e( 11 - 11) =      4.05121  eV     1   --> A_1  L_1       
     e( 12 - 12) =      5.19380  eV     1   --> A_1  L_1       
     e( 13 - 13) =      5.64326  eV     1   --> A_1  L_1       
     e( 14 - 14) =      7.48109  eV     1   -->   ?
     e( 15 - 16) =      7.82205  eV     2   -->   ?

 **************************************************************************

 **************************************************************************

                    xk=(  -0.00667,   0.01155,   0.00000  )

     point group C_1 (1)    
     there are  1 classes
     the character table:

       E    
A      1.00

     the symmetry operations in each class and the name of the first element:

     E        1
                                                                 

     Band symmetry, C_1 (1)     point group:

     e(  1 -  1) =    -20.15093  eV     1   --> A              
     e(  2 -  2) =    -19.97699  eV     1   --> A              
     e(  3 -  3) =     -8.71990  eV     1   --> A              
     e(  4 -  4) =     -7.64455  eV     1   --> A              
     e(  5 -  5) =     -3.65590  eV     1   --> A              
     e(  6 -  6) =     -3.64962  eV     1   --> A              
     e(  7 -  7) =     -3.63352  eV     1   --> A              
     e(  8 -  8) =     -3.62723  eV     1   --> A              
     e(  9 -  9) =      2.56646  eV     1   --> A              
     e( 10 - 10) =      2.98883  eV     1   --> A              
     e( 11 - 11) =      4.05556  eV     1   --> A              
     e( 12 - 12) =      5.19813  eV     1   --> A              
     e( 13 - 13) =      5.64734  eV     1   --> A              
     e( 14 - 14) =      7.48494  eV     1   --> A              
     e( 15 - 15) =      7.82433  eV     1   --> A              
     e( 16 - 16) =      7.83637  eV     1   --> A              

 **************************************************************************

 **************************************************************************

                    xk=(  -0.01333,   0.02309,   0.00000  )

     Band symmetry, C_1 (1)     point group:

     e(  1 -  1) =    -20.14147  eV     1   --> A              
     e(  2 -  2) =    -19.96761  eV     1   --> A              
     e(  3 -  3) =     -8.70843  eV     1   --> A              
     e(  4 -  4) =     -7.63350  eV     1   --> A              
     e(  5 -  5) =     -3.69479  eV     1   --> A              
     e(  6 -  6) =     -3.67326  eV     1   --> A              
     e(  7 -  7) =     -3.66946  eV     1   --> A              
     e(  8 -  8) =     -3.64810  eV     1   --> A              
     e(  9 -  9) =      2.57913  eV     1   --> A              
     e( 10 - 10) =      3.00161  eV     1   --> A              
     e( 11 - 11) =      4.06859  eV     1   --> A              
     e( 12 - 12) =      5.21106  eV     1   --> A              
     e( 13 - 13) =      5.65940  eV     1   --> A              
     e( 14 - 14) =      7.49618  eV     1   --> A              
     e( 15 - 15) =      7.82956  eV     1   --> A              
     e( 16 - 16) =      7.86832  eV     1   --> A              

 **************************************************************************

 **************************************************************************

                    xk=(  -0.02000,   0.03464,   0.00000  )

     Band symmetry, C_1 (1)     point group:

     e(  1 -  1) =    -20.12569  eV     1   --> A              
     e(  2 -  2) =    -19.95199  eV     1   --> A              
     e(  3 -  3) =     -8.68929  eV     1   --> A              
     e(  4 -  4) =     -7.61502  eV     1   --> A              
     e(  5 -  5) =     -3.76008  eV     1   --> A              
     e(  6 -  6) =     -3.73751  eV     1   --> A              
     e(  7 -  7) =     -3.70490  eV     1   --> A              
     e(  8 -  8) =     -3.68260  eV     1   --> A              
     e(  9 -  9) =      2.60026  eV     1   --> A              
     e( 10 - 10) =      3.02291  eV     1   --> A              
     e( 11 - 11) =      4.09032  eV     1   --> A              
     e( 12 - 12) =      5.23262  eV     1   --> A              
     e( 13 - 13) =      5.67953  eV     1   --> A              
     e( 14 - 14) =      7.51547  eV     1   --> A              
     e( 15 - 15) =      7.83827  eV     1   --> A              
     e( 16 - 16) =      7.93859  eV     1   --> A              

 **************************************************************************

 **************************************************************************

                    xk=(  -0.02667,   0.04619,   0.00000  )

     Band symmetry, C_1 (1)     point group:

     e(  1 -  1) =    -20.10358  eV     1   --> A              
     e(  2 -  2) =    -19.93010  eV     1   --> A              
     e(  3 -  3) =     -8.66233  eV     1   --> A              
     e(  4 -  4) =     -7.58883  eV     1   --> A              
     e(  5 -  5) =     -3.84890  eV     1   --> A              
     e(  6 -  6) =     -3.82619  eV     1   --> A              
     e(  7 -  7) =     -3.75289  eV     1   --> A              
     e(  8 -  8) =     -3.73052  eV     1   --> A              
     e(  9 -  9) =      2.62985  eV     1   --> A              
     e( 10 - 10) =      3.05277  eV     1   --> A              
     e( 11 - 11) =      4.12074  eV     1   --> A              
     e( 12 - 12) =      5.26281  eV     1   --> A              
     e( 13 - 13) =      5.70772  eV     1   --> A              
     e( 14 - 14) =      7.54170  eV     1   --> A              
     e( 15 - 15) =      7.85035  eV     1   --> A              
     e( 16 - 16) =      7.89884  eV     1   --> A              

 **************************************************************************

 **************************************************************************

                    xk=(  -0.03333,   0.05774,   0.00000  )

     Band symmetry, C_1 (1)     point group:

     e(  1 -  1) =    -20.07526  eV     1   --> A              
     e(  2 -  2) =    -19.90204  eV     1   --> A              
     e(  3 -  3) =     -8.62806  eV     1   --> A              
     e(  4 -  4) =     -7.55586  eV     1   --> A              
     e(  5 -  5) =     -3.96096  eV     1   --> A              
     e(  6 -  6) =     -3.93781  eV     1   --> A              
     e(  7 -  7) =     -3.81447  eV     1   --> A              
     e(  8 -  8) =     -3.79199  eV     1   --> A              
     e(  9 -  9) =      2.66787  eV     1   --> A              
     e( 10 - 10) =      3.09109  eV     1   --> A              
     e( 11 - 11) =      4.15984  eV     1   --> A              
     e( 12 - 12) =      5.30160  eV     1   --> A              
     e( 13 - 13) =      5.74395  eV     1   --> A              
     e( 14 - 14) =      7.57502  eV     1   --> A              
     e( 15 - 15) =      7.86636  eV     1   --> A              
     e( 16 - 16) =      7.91966  eV     1   --> A              

 **************************************************************************

 **************************************************************************

                    xk=(  -0.04000,   0.06928,   0.00000  )

     Band symmetry, C_1 (1)     point group:

     e(  1 -  1) =    -20.04056  eV     1   --> A              
     e(  2 -  2) =    -19.86768  eV     1   --> A              
     e(  3 -  3) =     -8.58587  eV     1   --> A              
     e(  4 -  4) =     -7.51516  eV     1   --> A              
     e(  5 -  5) =     -4.09311  eV     1   --> A              
     e(  6 -  6) =     -4.06959  eV     1   --> A              
     e(  7 -  7) =     -3.88878  eV     1   --> A              
     e(  8 -  8) =     -3.86620  eV     1   --> A              
     e(  9 -  9) =      2.71437  eV     1   --> A              
     e( 10 - 10) =      3.13797  eV     1   --> A              
     e( 11 - 11) =      4.20765  eV     1   --> A              
     e( 12 - 12) =      5.34905  eV     1   --> A              
     e( 13 - 13) =      5.78828  eV     1   --> A              
     e( 14 - 14) =      7.61640  eV     1   --> A              
     e( 15 - 15) =      7.88723  eV     1   --> A              
     e( 16 - 16) =      7.94849  eV     1   --> A              

 **************************************************************************

 **************************************************************************

                    xk=(  -0.04667,   0.08083,   0.00000  )

     Band symmetry, C_1 (1)     point group:

     e(  1 -  1) =    -19.99955  eV     1   --> A              
     e(  2 -  2) =    -19.82709  eV     1   --> A              
     e(  3 -  3) =     -8.53606  eV     1   --> A              
     e(  4 -  4) =     -7.46686  eV     1   --> A              
     e(  5 -  5) =     -4.24418  eV     1   --> A              
     e(  6 -  6) =     -4.21991  eV     1   --> A              
     e(  7 -  7) =     -3.97598  eV     1   --> A              
     e(  8 -  8) =     -3.95317  eV     1   --> A              
     e(  9 -  9) =      2.76932  eV     1   --> A              
     e( 10 - 10) =      3.19337  eV     1   --> A              
     e( 11 - 11) =      4.26415  eV     1   --> A              
     e( 12 - 12) =      5.40510  eV     1   --> A              
     e( 13 - 13) =      5.84065  eV     1   --> A              
     e( 14 - 14) =      7.66481  eV     1   --> A              
     e( 15 - 15) =      7.91275  eV     1   --> A              
     e( 16 - 16) =      7.98222  eV     1   --> A              

 **************************************************************************

 **************************************************************************

                    xk=(  -0.05333,   0.09238,   0.00000  )

     Band symmetry, C_1 (1)     point group:

     e(  1 -  1) =    -19.95226  eV     1   --> A              
     e(  2 -  2) =    -19.78027  eV     1   --> A              
     e(  3 -  3) =     -8.47879  eV     1   --> A              
     e(  4 -  4) =     -7.41158  eV     1   --> A              
     e(  5 -  5) =     -4.41260  eV     1   --> A              
     e(  6 -  6) =     -4.38779  eV     1   --> A              
     e(  7 -  7) =     -4.07498  eV     1   --> A              
     e(  8 -  8) =     -4.05202  eV     1   --> A              
     e(  9 -  9) =      2.83273  eV     1   --> A              
     e( 10 - 10) =      3.25725  eV     1   --> A              
     e( 11 - 11) =      4.32935  eV     1   --> A              
     e( 12 - 12) =      5.46978  eV     1   --> A              
     e( 13 - 13) =      5.90107  eV     1   --> A              
     e( 14 - 14) =      7.72042  eV     1   --> A              
     e( 15 - 15) =      7.94385  eV     1   --> A              
     e( 16 - 16) =      8.02230  eV     1   --> A              

 **************************************************************************

 **************************************************************************

                    xk=(  -0.06000,   0.10392,   0.00000  )

     Band symmetry, C_1 (1)     point group:

     e(  1 -  1) =    -19.89871  eV     1   --> A              
     e(  2 -  2) =    -19.72731  eV     1   --> A              
     e(  3 -  3) =     -8.41404  eV     1   --> A              
     e(  4 -  4) =     -7.34904  eV     1   --> A              
     e(  5 -  5) =     -4.59563  eV     1   --> A              
     e(  6 -  6) =     -4.57034  eV     1   --> A              
     e(  7 -  7) =     -4.18537  eV     1   --> A              
     e(  8 -  8) =     -4.16225  eV     1   --> A              
     e(  9 -  9) =      2.90459  eV     1   --> A              
     e( 10 - 10) =      3.32962  eV     1   --> A              
     e( 11 - 11) =      4.40324  eV     1   --> A              
     e( 12 - 12) =      5.54305  eV     1   --> A              
     e( 13 - 13) =      5.96954  eV     1   --> A              
     e( 14 - 14) =      7.78323  eV     1   --> A              
     e( 15 - 15) =      7.97928  eV     1   --> A              
     e( 16 - 16) =      8.06839  eV     1   --> A              

 **************************************************************************

 **************************************************************************

                    xk=(  -0.06667,   0.11547,   0.00000  )

     Band symmetry, C_1 (1)     point group:

     e(  1 -  1) =    -19.83888  eV     1   --> A              
     e(  2 -  2) =    -19.66811  eV     1   --> A              
     e(  3 -  3) =     -8.34169  eV     1   --> A              
     e(  4 -  4) =     -7.27894  eV     1   --> A              
     e(  5 -  5) =     -4.79242  eV     1   --> A              
     e(  6 -  6) =     -4.76647  eV     1   --> A              
     e(  7 -  7) =     -4.30693  eV     1   --> A              
     e(  8 -  8) =     -4.28364  eV     1   --> A              
     e(  9 -  9) =      2.98491  eV     1   --> A              
     e( 10 - 10) =      3.41051  eV     1   --> A              
     e( 11 - 11) =      4.48582  eV     1   --> A              
     e( 12 - 12) =      5.62496  eV     1   --> A              
     e( 13 - 13) =      6.04603  eV     1   --> A              
     e( 14 - 14) =      7.85301  eV     1   --> A              
     e( 15 - 15) =      8.02120  eV     1   --> A              
     e( 16 - 16) =      8.12183  eV     1   --> A              

 **************************************************************************

 **************************************************************************

                    xk=(  -0.07333,   0.12702,   0.00000  )

     Band symmetry, C_1 (1)     point group:

     e(  1 -  1) =    -19.77281  eV     1   --> A              
     e(  2 -  2) =    -19.60271  eV     1   --> A              
     e(  3 -  3) =     -8.26189  eV     1   --> A              
     e(  4 -  4) =     -7.20196  eV     1   --> A              
     e(  5 -  5) =     -4.99957  eV     1   --> A              
     e(  6 -  6) =     -4.97273  eV     1   --> A              
     e(  7 -  7) =     -4.43918  eV     1   --> A              
     e(  8 -  8) =     -4.41556  eV     1   --> A              
     e(  9 -  9) =      3.07369  eV     1   --> A              
     e( 10 - 10) =      3.49985  eV     1   --> A              
     e( 11 - 11) =      4.57708  eV     1   --> A              
     e( 12 - 12) =      5.71545  eV     1   --> A              
     e( 13 - 13) =      6.13057  eV     1   --> A              
     e( 14 - 14) =      7.92980  eV     1   --> A              
     e( 15 - 15) =      8.06874  eV     1   --> A              
     e( 16 - 16) =      8.18215  eV     1   --> A              

 **************************************************************************

 **************************************************************************

                    xk=(  -0.08000,   0.13856,   0.00000  )

     Band symmetry, C_1 (1)     point group:

     e(  1 -  1) =    -19.70052  eV     1   --> A              
     e(  2 -  2) =    -19.53119  eV     1   --> A              
     e(  3 -  3) =     -8.17464  eV     1   --> A              
     e(  4 -  4) =     -7.11787  eV     1   --> A              
     e(  5 -  5) =     -5.21693  eV     1   --> A              
     e(  6 -  6) =     -5.18956  eV     1   --> A              
     e(  7 -  7) =     -4.58090  eV     1   --> A              
     e(  8 -  8) =     -4.55709  eV     1   --> A              
     e(  9 -  9) =      3.17091  eV     1   --> A              
     e( 10 - 10) =      3.59765  eV     1   --> A              
     e( 11 - 11) =      4.67704  eV     1   --> A              
     e( 12 - 12) =      5.81452  eV     1   --> A              
     e( 13 - 13) =      6.22313  eV     1   --> A              
     e( 14 - 14) =      8.01214  eV     1   --> A              
     e( 15 - 15) =      8.12250  eV     1   --> A              
     e( 16 - 16) =      8.24783  eV     1   --> A              

 **************************************************************************

 **************************************************************************

                    xk=(  -0.08667,   0.15011,   0.00000  )

     Band symmetry, C_1 (1)     point group:

     e(  1 -  1) =    -19.62200  eV     1   --> A              
     e(  2 -  2) =    -19.45346  eV     1   --> A              
     e(  3 -  3) =     -8.07998  eV     1   --> A              
     e(  4 -  4) =     -7.02671  eV     1   --> A              
     e(  5 -  5) =     -5.44226  eV     1   --> A              
     e(  6 -  6) =     -5.41428  eV     1   --> A              
     e(  7 -  7) =     -4.73173  eV     1   --> A              
     e(  8 -  8) =     -4.70765  eV     1   --> A              
     e(  9 -  9) =      3.27658  eV     1   --> A              
     e( 10 - 10) =      3.70391  eV     1   --> A              
     e( 11 - 11) =      4.78570  eV     1   --> A              
     e( 12 - 12) =      5.92222  eV     1   --> A              
     e( 13 - 13) =      6.32362  eV     1   --> A              
     e( 14 - 14) =      8.10075  eV     1   --> A              
     e( 15 - 15) =      8.18159  eV     1   --> A              
     e( 16 - 16) =      8.32079  eV     1   --> A              

 **************************************************************************

 **************************************************************************

                    xk=(  -0.09333,   0.16166,   0.00000  )

     Band symmetry, C_1 (1)     point group:

     e(  1 -  1) =    -19.53727  eV     1   --> A              
     e(  2 -  2) =    -19.36970  eV     1   --> A              
     e(  3 -  3) =     -7.97805  eV     1   --> A              
     e(  4 -  4) =     -6.92847  eV     1   --> A              
     e(  5 -  5) =     -5.67438  eV     1   --> A              
     e(  6 -  6) =     -5.64567  eV     1   --> A              
     e(  7 -  7) =     -4.89121  eV     1   --> A              
     e(  8 -  8) =     -4.86676  eV     1   --> A              
     e(  9 -  9) =      3.39068  eV     1   --> A              
     e( 10 - 10) =      3.81860  eV     1   --> A              
     e( 11 - 11) =      4.90304  eV     1   --> A              
     e( 12 - 12) =      6.03846  eV     1   --> A              
     e( 13 - 13) =      6.43206  eV     1   --> A              
     e( 14 - 14) =      8.19488  eV     1   --> A              
     e( 15 - 15) =      8.24533  eV     1   --> A              
     e( 16 - 16) =      8.39772  eV     1   --> A              

 **************************************************************************

 **************************************************************************

                    xk=(  -0.10000,   0.17321,   0.00000  )

     Band symmetry, C_1 (1)     point group:

     e(  1 -  1) =    -19.44634  eV     1   --> A              
     e(  2 -  2) =    -19.27969  eV     1   --> A              
     e(  3 -  3) =     -7.86858  eV     1   --> A              
     e(  4 -  4) =     -6.82318  eV     1   --> A              
     e(  5 -  5) =     -5.91140  eV     1   --> A              
     e(  6 -  6) =     -5.88192  eV     1   --> A              
     e(  7 -  7) =     -5.05815  eV     1   --> A              
     e(  8 -  8) =     -5.03342  eV     1   --> A              
     e(  9 -  9) =      3.51321  eV     1   --> A              
     e( 10 - 10) =      3.94172  eV     1   --> A              
     e( 11 - 11) =      5.02907  eV     1   --> A              
     e( 12 - 12) =      6.16330  eV     1   --> A              
     e( 13 - 13) =      6.54844  eV     1   --> A              
     e( 14 - 14) =      8.28972  eV     1   --> A              
     e( 15 - 15) =      8.31291  eV     1   --> A              
     e( 16 - 16) =      8.44479  eV     1   --> A              

 **************************************************************************

 **************************************************************************

                    xk=(  -0.10667,   0.18475,   0.00000  )

     Band symmetry, C_1 (1)     point group:

     e(  1 -  1) =    -19.34925  eV     1   --> A              
     e(  2 -  2) =    -19.18361  eV     1   --> A              
     e(  3 -  3) =     -7.75192  eV     1   --> A              
     e(  4 -  4) =     -6.71105  eV     1   --> A              
     e(  5 -  5) =     -6.15214  eV     1   --> A              
     e(  6 -  6) =     -6.12201  eV     1   --> A              
     e(  7 -  7) =     -5.23204  eV     1   --> A              
     e(  8 -  8) =     -5.20677  eV     1   --> A              
     e(  9 -  9) =      3.64417  eV     1   --> A              
     e( 10 - 10) =      4.07322  eV     1   --> A              
     e( 11 - 11) =      5.16379  eV     1   --> A              
     e( 12 - 12) =      6.29669  eV     1   --> A              
     e( 13 - 13) =      6.67263  eV     1   --> A              
     e( 14 - 14) =      8.24741  eV     1   --> A              
     e( 15 - 15) =      8.34778  eV     1   --> A              
     e( 16 - 16) =      8.41612  eV     1   --> A              

 **************************************************************************

 **************************************************************************

                    xk=(  -0.11333,   0.19630,   0.00000  )

     Band symmetry, C_1 (1)     point group:

     e(  1 -  1) =    -19.24606  eV     1   --> A              
     e(  2 -  2) =    -19.08149  eV     1   --> A              
     e(  3 -  3) =     -7.62820  eV     1   --> A              
     e(  4 -  4) =     -6.59240  eV     1   --> A              
     e(  5 -  5) =     -6.39679  eV     1   --> A              
     e(  6 -  6) =     -6.36569  eV     1   --> A              
     e(  7 -  7) =     -5.41293  eV     1   --> A              
     e(  8 -  8) =     -5.38714  eV     1   --> A              
     e(  9 -  9) =      3.78352  eV     1   --> A              
     e( 10 - 10) =      4.21308  eV     1   --> A              
     e( 11 - 11) =      5.30718  eV     1   --> A              
     e( 12 - 12) =      6.43863  eV     1   --> A              
     e( 13 - 13) =      6.80479  eV     1   --> A              
     e( 14 - 14) =      7.99130  eV     1   --> A              
     e( 15 - 15) =      8.19070  eV     1   --> A              
     e( 16 - 16) =      8.52744  eV     1   --> A              

 **************************************************************************

 **************************************************************************

                    xk=(  -0.12000,   0.20785,   0.00000  )

     Band symmetry, C_1 (1)     point group:

     e(  1 -  1) =    -19.13671  eV     1   --> A              
     e(  2 -  2) =    -18.97337  eV     1   --> A              
     e(  3 -  3) =     -7.49735  eV     1   --> A              
     e(  4 -  4) =     -6.64321  eV     1   --> A              
     e(  5 -  5) =     -6.61194  eV     1   --> A              
     e(  6 -  6) =     -6.46587  eV     1   --> A              
     e(  7 -  7) =     -5.59905  eV     1   --> A              
     e(  8 -  8) =     -5.57271  eV     1   --> A              
     e(  9 -  9) =      3.93126  eV     1   --> A              
     e( 10 - 10) =      4.36129  eV     1   --> A              
     e( 11 - 11) =      5.45925  eV     1   --> A              
     e( 12 - 12) =      6.58905  eV     1   --> A              
     e( 13 - 13) =      6.94437  eV     1   --> A              
     e( 14 - 14) =      7.71682  eV     1   --> A              
     e( 15 - 15) =      7.93447  eV     1   --> A              
     e( 16 - 16) =      8.61153  eV     1   --> A              

 **************************************************************************

 **************************************************************************

                    xk=(  -0.12667,   0.21939,   0.00000  )

     Band symmetry, C_1 (1)     point group:

     e(  1 -  1) =    -19.02135  eV     1   --> A              
     e(  2 -  2) =    -18.85913  eV     1   --> A              
     e(  3 -  3) =     -7.35916  eV     1   --> A              
     e(  4 -  4) =     -6.89101  eV     1   --> A              
     e(  5 -  5) =     -6.85873  eV     1   --> A              
     e(  6 -  6) =     -6.33366  eV     1   --> A              
     e(  7 -  7) =     -5.79024  eV     1   --> A              
     e(  8 -  8) =     -5.76348  eV     1   --> A              
     e(  9 -  9) =      4.08736  eV     1   --> A              
     e( 10 - 10) =      4.51781  eV     1   --> A              
     e( 11 - 11) =      5.61997  eV     1   --> A              
     e( 12 - 12) =      6.74793  eV     1   --> A              
     e( 13 - 13) =      7.09155  eV     1   --> A              
     e( 14 - 14) =      7.43383  eV     1   --> A              
     e( 15 - 15) =      7.66200  eV     1   --> A              
     e( 16 - 16) =      8.70745  eV     1   --> A              

 **************************************************************************

 **************************************************************************

                    xk=(  -0.13333,   0.23094,   0.00000  )

     Band symmetry, C_1 (1)     point group:

     e(  1 -  1) =    -18.90000  eV     1   --> A              
     e(  2 -  2) =    -18.73931  eV     1   --> A              
     e(  3 -  3) =     -7.21568  eV     1   --> A              
     e(  4 -  4) =     -7.13850  eV     1   --> A              
     e(  5 -  5) =     -7.10630  eV     1   --> A              
     e(  6 -  6) =     -6.19507  eV     1   --> A              
     e(  7 -  7) =     -5.98608  eV     1   --> A              
     e(  8 -  8) =     -5.95870  eV     1   --> A              
     e(  9 -  9) =      4.25181  eV     1   --> A              
     e( 10 - 10) =      4.68251  eV     1   --> A              
     e( 11 - 11) =      5.78935  eV     1   --> A              
     e( 12 - 12) =      6.91504  eV     1   --> A              
     e( 13 - 13) =      7.14513  eV     1   --> A              
     e( 14 - 14) =      7.24595  eV     1   --> A              
     e( 15 - 15) =      7.38243  eV     1   --> A              
     e( 16 - 16) =      8.81273  eV     1   --> A              

 **************************************************************************

 **************************************************************************

                    xk=(  -0.14000,   0.24249,   0.00000  )

     Band symmetry, C_1 (1)     point group:

     e(  1 -  1) =    -18.77261  eV     1   --> A              
     e(  2 -  2) =    -18.61324  eV     1   --> A              
     e(  3 -  3) =     -7.38812  eV     1   --> A              
     e(  4 -  4) =     -7.35398  eV     1   --> A              
     e(  5 -  5) =     -7.06243  eV     1   --> A              
     e(  6 -  6) =     -6.18533  eV     1   --> A              
     e(  7 -  7) =     -6.15736  eV     1   --> A              
     e(  8 -  8) =     -6.04984  eV     1   --> A              
     e(  9 -  9) =      4.42459  eV     1   --> A              
     e( 10 - 10) =      4.85543  eV     1   --> A              
     e( 11 - 11) =      5.96738  eV     1   --> A              
     e( 12 - 12) =      6.85271  eV     1   --> A              
     e( 13 - 13) =      7.07625  eV     1   --> A              
     e( 14 - 14) =      7.11279  eV     1   --> A              
     e( 15 - 15) =      7.40772  eV     1   --> A              
     e( 16 - 16) =      8.92725  eV     1   --> A              

 **************************************************************************

 **************************************************************************

                    xk=(  -0.14667,   0.25404,   0.00000  )

     Band symmetry, C_1 (1)     point group:

     e(  1 -  1) =    -18.63926  eV     1   --> A              
     e(  2 -  2) =    -18.48124  eV     1   --> A              
     e(  3 -  3) =     -7.63606  eV     1   --> A              
     e(  4 -  4) =     -7.60121  eV     1   --> A              
     e(  5 -  5) =     -6.90402  eV     1   --> A              
     e(  6 -  6) =     -6.38788  eV     1   --> A              
     e(  7 -  7) =     -6.35933  eV     1   --> A              
     e(  8 -  8) =     -5.89833  eV     1   --> A              
     e(  9 -  9) =      4.60565  eV     1   --> A              
     e( 10 - 10) =      5.03648  eV     1   --> A              
     e( 11 - 11) =      6.15403  eV     1   --> A              
     e( 12 - 12) =      6.55630  eV     1   --> A              
     e( 13 - 13) =      6.80811  eV     1   --> A              
     e( 14 - 14) =      7.27661  eV     1   --> A              
     e( 15 - 15) =      7.57652  eV     1   --> A              
     e( 16 - 16) =      9.04788  eV     1   --> A              

 **************************************************************************

 **************************************************************************

                    xk=(  -0.15333,   0.26558,   0.00000  )

     Band symmetry, C_1 (1)     point group:

     e(  1 -  1) =    -18.50003  eV     1   --> A              
     e(  2 -  2) =    -18.34339  eV     1   --> A              
     e(  3 -  3) =     -7.88310  eV     1   --> A              
     e(  4 -  4) =     -7.84734  eV     1   --> A              
     e(  5 -  5) =     -6.73885  eV     1   --> A              
     e(  6 -  6) =     -6.59310  eV     1   --> A              
     e(  7 -  7) =     -6.56387  eV     1   --> A              
     e(  8 -  8) =     -5.74035  eV     1   --> A              
     e(  9 -  9) =      4.79496  eV     1   --> A              
     e( 10 - 10) =      5.22557  eV     1   --> A              
     e( 11 - 11) =      6.25791  eV     1   --> A              
     e( 12 - 12) =      6.34949  eV     1   --> A              
     e( 13 - 13) =      6.51712  eV     1   --> A              
     e( 14 - 14) =      7.46892  eV     1   --> A              
     e( 15 - 15) =      7.75201  eV     1   --> A              
     e( 16 - 16) =      9.17559  eV     1   --> A              

 **************************************************************************

 **************************************************************************

                    xk=(  -0.16000,   0.27713,   0.00000  )

     Band symmetry, C_1 (1)     point group:

     e(  1 -  1) =    -18.35490  eV     1   --> A              
     e(  2 -  2) =    -18.19970  eV     1   --> A              
     e(  3 -  3) =     -8.12784  eV     1   --> A              
     e(  4 -  4) =     -8.09145  eV     1   --> A              
     e(  5 -  5) =     -6.79995  eV     1   --> A              
     e(  6 -  6) =     -6.77011  eV     1   --> A              
     e(  7 -  7) =     -6.56712  eV     1   --> A              
     e(  8 -  8) =     -5.57671  eV     1   --> A              
     e(  9 -  9) =      4.99247  eV     1   --> A              
     e( 10 - 10) =      5.42243  eV     1   --> A              
     e( 11 - 11) =      5.95818  eV     1   --> A              
     e( 12 - 12) =      6.22488  eV     1   --> A              
     e( 13 - 13) =      6.55325  eV     1   --> A              
     e( 14 - 14) =      7.66973  eV     1   --> A              
     e( 15 - 15) =      7.93403  eV     1   --> A              
     e( 16 - 16) =      9.31042  eV     1   --> A              

 **************************************************************************

 **************************************************************************

                    xk=(  -0.16667,   0.28868,   0.00000  )

     Band symmetry, C_1 (1)     point group:

     e(  1 -  1) =    -18.20404  eV     1   --> A              
     e(  2 -  2) =    -18.05039  eV     1   --> A              
     e(  3 -  3) =     -8.37097  eV     1   --> A              
     e(  4 -  4) =     -8.33384  eV     1   --> A              
     e(  5 -  5) =     -7.00838  eV     1   --> A              
     e(  6 -  6) =     -6.97795  eV     1   --> A              
     e(  7 -  7) =     -6.38928  eV     1   --> A              
     e(  8 -  8) =     -5.40748  eV     1   --> A              
     e(  9 -  9) =      5.19795  eV     1   --> A              
     e( 10 - 10) =      5.62587  eV     1   --> A              
     e( 11 - 11) =      5.65807  eV     1   --> A              
     e( 12 - 12) =      5.93311  eV     1   --> A              
     e( 13 - 13) =      6.76569  eV     1   --> A              
     e( 14 - 14) =      7.87883  eV     1   --> A              
     e( 15 - 15) =      8.12191  eV     1   --> A              
     e( 16 - 16) =      9.45124  eV     1   --> A              

 **************************************************************************

 **************************************************************************

                    xk=(  -0.17333,   0.30022,   0.00000  )

     Band symmetry, C_1 (1)     point group:

     e(  1 -  1) =    -18.04732  eV     1   --> A              
     e(  2 -  2) =    -17.89534  eV     1   --> A              
     e(  3 -  3) =     -8.61187  eV     1   --> A              
     e(  4 -  4) =     -8.57382  eV     1   --> A              
     e(  5 -  5) =     -7.21773  eV     1   --> A              
     e(  6 -  6) =     -7.18638  eV     1   --> A              
     e(  7 -  7) =     -6.20494  eV     1   --> A              
     e(  8 -  8) =     -5.23218  eV     1   --> A              
     e(  9 -  9) =      5.35198  eV     1   --> A              
     e( 10 - 10) =      5.41715  eV     1   --> A              
     e( 11 - 11) =      5.63279  eV     1   --> A              
     e( 12 - 12) =      5.84525  eV     1   --> A              
     e( 13 - 13) =      6.98668  eV     1   --> A              
     e( 14 - 14) =      8.09604  eV     1   --> A              
     e( 15 - 15) =      8.31541  eV     1   --> A              
     e( 16 - 16) =      9.59733  eV     1   --> A              

 **************************************************************************

 **************************************************************************

                    xk=(  -0.18000,   0.31177,   0.00000  )

     Band symmetry, C_1 (1)     point group:

     e(  1 -  1) =    -17.88489  eV     1   --> A              
     e(  2 -  2) =    -17.73456  eV     1   --> A              
     e(  3 -  3) =     -8.85033  eV     1   --> A              
     e(  4 -  4) =     -8.81142  eV     1   --> A              
     e(  5 -  5) =     -7.42750  eV     1   --> A              
     e(  6 -  6) =     -7.39544  eV     1   --> A              
     e(  7 -  7) =     -6.01458  eV     1   --> A              
     e(  8 -  8) =     -5.05171  eV     1   --> A              
     e(  9 -  9) =      5.05620  eV     1   --> A              
     e( 10 - 10) =      5.34195  eV     1   --> A              
     e( 11 - 11) =      5.63507  eV     1   --> A              
     e( 12 - 12) =      6.06312  eV     1   --> A              
     e( 13 - 13) =      7.21622  eV     1   --> A              
     e( 14 - 14) =      8.32127  eV     1   --> A              
     e( 15 - 15) =      8.51374  eV     1   --> A              
     e( 16 - 16) =      9.74923  eV     1   --> A              

 **************************************************************************

 **************************************************************************

                    xk=(  -0.18666,   0.32332,   0.00000  )

     Band symmetry, C_1 (1)     point group:

     e(  1 -  1) =    -17.71687  eV     1   --> A              
     e(  2 -  2) =    -17.56842  eV     1   --> A              
     e(  3 -  3) =     -9.08578  eV     1   --> A              
     e(  4 -  4) =     -9.04589  eV     1   --> A              
     e(  5 -  5) =     -7.63727  eV     1   --> A              
     e(  6 -  6) =     -7.60456  eV     1   --> A              
     e(  7 -  7) =     -5.81827  eV     1   --> A              
     e(  8 -  8) =     -4.86612  eV     1   --> A              
     e(  9 -  9) =      4.75793  eV     1   --> A              
     e( 10 - 10) =      5.05009  eV     1   --> A              
     e( 11 - 11) =      5.86493  eV     1   --> A              
     e( 12 - 12) =      6.29067  eV     1   --> A              
     e( 13 - 13) =      7.45416  eV     1   --> A              
     e( 14 - 14) =      8.55428  eV     1   --> A              
     e( 15 - 15) =      8.71587  eV     1   --> A              
     e( 16 - 16) =      9.90553  eV     1   --> A              

 **************************************************************************

 **************************************************************************

                    xk=(  -0.19333,   0.33486,   0.00000  )

     Band symmetry, C_1 (1)     point group:

     e(  1 -  1) =    -17.54333  eV     1   --> A              
     e(  2 -  2) =    -17.39664  eV     1   --> A              
     e(  3 -  3) =     -9.31816  eV     1   --> A              
     e(  4 -  4) =     -9.27747  eV     1   --> A              
     e(  5 -  5) =     -7.84638  eV     1   --> A              
     e(  6 -  6) =     -7.81296  eV     1   --> A              
     e(  7 -  7) =     -5.61634  eV     1   --> A              
     e(  8 -  8) =     -4.67567  eV     1   --> A              
     e(  9 -  9) =      4.46083  eV     1   --> A              
     e( 10 - 10) =      4.75919  eV     1   --> A              
     e( 11 - 11) =      6.10291  eV     1   --> A              
     e( 12 - 12) =      6.52569  eV     1   --> A              
     e( 13 - 13) =      7.70045  eV     1   --> A              
     e( 14 - 14) =      8.79485  eV     1   --> A              
     e( 15 - 15) =      8.92065  eV     1   --> A              
     e( 16 - 16) =     10.06675  eV     1   --> A              

 **************************************************************************

 **************************************************************************

                    xk=(  -0.20000,   0.34641,   0.00000  )

     Band symmetry, C_1 (1)     point group:

     e(  1 -  1) =    -17.36439  eV     1   --> A              
     e(  2 -  2) =    -17.21959  eV     1   --> A              
     e(  3 -  3) =     -9.54711  eV     1   --> A              
     e(  4 -  4) =     -9.50558  eV     1   --> A              
     e(  5 -  5) =     -8.05444  eV     1   --> A              
     e(  6 -  6) =     -8.02042  eV     1   --> A              
     e(  7 -  7) =     -5.40895  eV     1   --> A              
     e(  8 -  8) =     -4.48059  eV     1   --> A              
     e(  9 -  9) =      4.16612  eV     1   --> A              
     e( 10 - 10) =      4.47029  eV     1   --> A              
     e( 11 - 11) =      6.34880  eV     1   --> A              
     e( 12 - 12) =      6.76776  eV     1   --> A              
     e( 13 - 13) =      7.95503  eV     1   --> A              
     e( 14 - 14) =      9.04265  eV     1   --> A              
     e( 15 - 15) =      9.12655  eV     1   --> A              
     e( 16 - 16) =     10.23095  eV     1   --> A              

 **************************************************************************

 **************************************************************************

                    xk=(  -0.20666,   0.35796,   0.00000  )

     Band symmetry, C_1 (1)     point group:

     e(  1 -  1) =    -17.18023  eV     1   --> A              
     e(  2 -  2) =    -17.03719  eV     1   --> A              
     e(  3 -  3) =     -9.77202  eV     1   --> A              
     e(  4 -  4) =     -9.72953  eV     1   --> A              
     e(  5 -  5) =     -8.26094  eV     1   --> A              
     e(  6 -  6) =     -8.22629  eV     1   --> A              
     e(  7 -  7) =     -5.19630  eV     1   --> A              
     e(  8 -  8) =     -4.28133  eV     1   --> A              
     e(  9 -  9) =      3.87442  eV     1   --> A              
     e( 10 - 10) =      4.18426  eV     1   --> A              
     e( 11 - 11) =      6.60248  eV     1   --> A              
     e( 12 - 12) =      7.01642  eV     1   --> A              
     e( 13 - 13) =      8.21773  eV     1   --> A              
     e( 14 - 14) =      9.29742  eV     1   --> A              
     e( 15 - 15) =      9.33159  eV     1   --> A              
     e( 16 - 16) =     10.39894  eV     1   --> A              

 **************************************************************************

 **************************************************************************

                    xk=(  -0.21333,   0.36951,   0.00000  )

     Band symmetry, C_1 (1)     point group:

     e(  1 -  1) =    -16.99100  eV     1   --> A              
     e(  2 -  2) =    -16.84974  eV     1   --> A              
     e(  3 -  3) =     -9.99335  eV     1   --> A              
     e(  4 -  4) =     -9.94996  eV     1   --> A              
     e(  5 -  5) =     -8.46562  eV     1   --> A              
     e(  6 -  6) =     -8.43050  eV     1   --> A              
     e(  7 -  7) =     -4.97870  eV     1   --> A              
     e(  8 -  8) =     -4.07830  eV     1   --> A              
     e(  9 -  9) =      3.58570  eV     1   --> A              
     e( 10 - 10) =      3.90127  eV     1   --> A              
     e( 11 - 11) =      6.86380  eV     1   --> A              
     e( 12 - 12) =      7.27114  eV     1   --> A              
     e( 13 - 13) =      8.48825  eV     1   --> A              
     e( 14 - 14) =      9.53222  eV     1   --> A              
     e( 15 - 15) =      9.55808  eV     1   --> A              
     e( 16 - 16) =     10.56920  eV     1   --> A              

 **************************************************************************

 **************************************************************************

                    xk=(  -0.22000,   0.38105,   0.00000  )

     Band symmetry, C_1 (1)     point group:

     e(  1 -  1) =    -16.79640  eV     1   --> A              
     e(  2 -  2) =    -16.65722  eV     1   --> A              
     e(  3 -  3) =    -10.21092  eV     1   --> A              
     e(  4 -  4) =    -10.16663  eV     1   --> A              
     e(  5 -  5) =     -8.66829  eV     1   --> A              
     e(  6 -  6) =     -8.63238  eV     1   --> A              
     e(  7 -  7) =     -4.75654  eV     1   --> A              
     e(  8 -  8) =     -3.87138  eV     1   --> A              
     e(  9 -  9) =      3.30022  eV     1   --> A              
     e( 10 - 10) =      3.62077  eV     1   --> A              
     e( 11 - 11) =      7.13273  eV     1   --> A              
     e( 12 - 12) =      7.53133  eV     1   --> A              
     e( 13 - 13) =      8.76622  eV     1   --> A              
     e( 14 - 14) =      9.72591  eV     1   --> A              
     e( 15 - 15) =      9.82342  eV     1   --> A              
     e( 16 - 16) =     10.74042  eV     1   --> A              

 **************************************************************************

 **************************************************************************

                    xk=(  -0.22666,   0.39260,   0.00000  )

     Band symmetry, C_1 (1)     point group:

     e(  1 -  1) =    -16.59705  eV     1   --> A              
     e(  2 -  2) =    -16.45987  eV     1   --> A              
     e(  3 -  3) =    -10.42418  eV     1   --> A              
     e(  4 -  4) =    -10.37896  eV     1   --> A              
     e(  5 -  5) =     -8.86810  eV     1   --> A              
     e(  6 -  6) =     -8.83167  eV     1   --> A              
     e(  7 -  7) =     -4.53015  eV     1   --> A              
     e(  8 -  8) =     -3.66135  eV     1   --> A              
     e(  9 -  9) =      3.01859  eV     1   --> A              
     e( 10 - 10) =      3.34384  eV     1   --> A              
     e( 11 - 11) =      7.40896  eV     1   --> A              
     e( 12 - 12) =      7.79605  eV     1   --> A              
     e( 13 - 13) =      9.05081  eV     1   --> A              
     e( 14 - 14) =      9.90735  eV     1   --> A              
     e( 15 - 15) =     10.09176  eV     1   --> A              
     e( 16 - 16) =     10.91181  eV     1   --> A              

 **************************************************************************

 **************************************************************************

                    xk=(  -0.23333,   0.40415,   0.00000  )

     Band symmetry, C_1 (1)     point group:

     e(  1 -  1) =    -16.39285  eV     1   --> A              
     e(  2 -  2) =    -16.25787  eV     1   --> A              
     e(  3 -  3) =    -10.63337  eV     1   --> A              
     e(  4 -  4) =    -10.58729  eV     1   --> A              
     e(  5 -  5) =     -9.06480  eV     1   --> A              
     e(  6 -  6) =     -9.02785  eV     1   --> A              
     e(  7 -  7) =     -4.29953  eV     1   --> A              
     e(  8 -  8) =     -3.44815  eV     1   --> A              
     e(  9 -  9) =      2.74109  eV     1   --> A              
     e( 10 - 10) =      3.07078  eV     1   --> A              
     e( 11 - 11) =      7.69238  eV     1   --> A              
     e( 12 - 12) =      8.06407  eV     1   --> A              
     e( 13 - 13) =      9.34036  eV     1   --> A              
     e( 14 - 14) =     10.07205  eV     1   --> A              
     e( 15 - 15) =     10.35960  eV     1   --> A              
     e( 16 - 16) =     11.08290  eV     1   --> A              

 **************************************************************************

 **************************************************************************

                    xk=(  -0.24000,   0.41569,   0.00000  )

     Band symmetry, C_1 (1)     point group:

     e(  1 -  1) =    -16.18413  eV     1   --> A              
     e(  2 -  2) =    -16.05140  eV     1   --> A              
     e(  3 -  3) =    -10.83798  eV     1   --> A              
     e(  4 -  4) =    -10.79107  eV     1   --> A              
     e(  5 -  5) =     -9.25756  eV     1   --> A              
     e(  6 -  6) =     -9.22042  eV     1   --> A              
     e(  7 -  7) =     -4.06564  eV     1   --> A              
     e(  8 -  8) =     -3.23312  eV     1   --> A              
     e(  9 -  9) =      2.46855  eV     1   --> A              
     e( 10 - 10) =      2.80264  eV     1   --> A              
     e( 11 - 11) =      7.98265  eV     1   --> A              
     e( 12 - 12) =      8.33355  eV     1   --> A              
     e( 13 - 13) =      9.63067  eV     1   --> A              
     e( 14 - 14) =     10.21721  eV     1   --> A              
     e( 15 - 15) =     10.62038  eV     1   --> A              
     e( 16 - 16) =     11.25407  eV     1   --> A              

 **************************************************************************

 **************************************************************************

                    xk=(  -0.24666,   0.42724,   0.00000  )

     Band symmetry, C_1 (1)     point group:

     e(  1 -  1) =    -15.97129  eV     1   --> A              
     e(  2 -  2) =    -15.84099  eV     1   --> A              
     e(  3 -  3) =    -11.03808  eV     1   --> A              
     e(  4 -  4) =    -10.99034  eV     1   --> A              
     e(  5 -  5) =     -9.44708  eV     1   --> A              
     e(  6 -  6) =     -9.40932  eV     1   --> A              
     e(  7 -  7) =     -3.82917  eV     1   --> A              
     e(  8 -  8) =     -3.01651  eV     1   --> A              
     e(  9 -  9) =      2.20065  eV     1   --> A              
     e( 10 - 10) =      2.53906  eV     1   --> A              
     e( 11 - 11) =      8.27948  eV     1   --> A              
     e( 12 - 12) =      8.60178  eV     1   --> A              
     e( 13 - 13) =      9.90887  eV     1   --> A              
     e( 14 - 14) =     10.34957  eV     1   --> A              
     e( 15 - 15) =     10.86155  eV     1   --> A              
     e( 16 - 16) =     11.42732  eV     1   --> A              

 **************************************************************************

 **************************************************************************

                    xk=(  -0.25333,   0.43879,   0.00000  )

     Band symmetry, C_1 (1)     point group:

     e(  1 -  1) =    -15.75456  eV     1   --> A              
     e(  2 -  2) =    -15.62670  eV     1   --> A              
     e(  3 -  3) =    -11.23382  eV     1   --> A              
     e(  4 -  4) =    -11.18522  eV     1   --> A              
     e(  5 -  5) =     -9.63223  eV     1   --> A              
     e(  6 -  6) =     -9.59406  eV     1   --> A              
     e(  7 -  7) =     -3.58980  eV     1   --> A              
     e(  8 -  8) =     -2.79904  eV     1   --> A              
     e(  9 -  9) =      1.93769  eV     1   --> A              
     e( 10 - 10) =      2.28025  eV     1   --> A              
     e( 11 - 11) =      8.58238  eV     1   --> A              
     e( 12 - 12) =      8.86485  eV     1   --> A              
     e( 13 - 13) =     10.13363  eV     1   --> A              
     e( 14 - 14) =     10.50775  eV     1   --> A              
     e( 15 - 15) =     11.06317  eV     1   --> A              
     e( 16 - 16) =     11.60906  eV     1   --> A              

 **************************************************************************

 **************************************************************************

                    xk=(  -0.26000,   0.45034,   0.00000  )

     Band symmetry, C_1 (1)     point group:

     e(  1 -  1) =    -15.53417  eV     1   --> A              
     e(  2 -  2) =    -15.40892  eV     1   --> A              
     e(  3 -  3) =    -11.42488  eV     1   --> A              
     e(  4 -  4) =    -11.37533  eV     1   --> A              
     e(  5 -  5) =     -9.81262  eV     1   --> A              
     e(  6 -  6) =     -9.77418  eV     1   --> A              
     e(  7 -  7) =     -3.34832  eV     1   --> A              
     e(  8 -  8) =     -2.58102  eV     1   --> A              
     e(  9 -  9) =      1.68022  eV     1   --> A              
     e( 10 - 10) =      2.02683  eV     1   --> A              
     e( 11 - 11) =      8.89086  eV     1   --> A              
     e( 12 - 12) =      9.11678  eV     1   --> A              
     e( 13 - 13) =     10.24917  eV     1   --> A              
     e( 14 - 14) =     10.74830  eV     1   --> A              
     e( 15 - 15) =     11.20794  eV     1   --> A              
     e( 16 - 16) =     11.78933  eV     1   --> A              

 **************************************************************************

 **************************************************************************

                    xk=(  -0.26666,   0.46188,   0.00000  )

     Band symmetry, C_1 (1)     point group:

     e(  1 -  1) =    -15.31084  eV     1   --> A              
     e(  2 -  2) =    -15.18830  eV     1   --> A              
     e(  3 -  3) =    -11.61088  eV     1   --> A              
     e(  4 -  4) =    -11.56064  eV     1   --> A              
     e(  5 -  5) =     -9.98742  eV     1   --> A              
     e(  6 -  6) =     -9.94867  eV     1   --> A              
     e(  7 -  7) =     -3.10546  eV     1   --> A              
     e(  8 -  8) =     -2.36359  eV     1   --> A              
     e(  9 -  9) =      1.42834  eV     1   --> A              
     e( 10 - 10) =      1.77904  eV     1   --> A              
     e( 11 - 11) =      9.20411  eV     1   --> A              
     e( 12 - 12) =      9.34885  eV     1   --> A              
     e( 13 - 13) =     10.28045  eV     1   --> A              
     e( 14 - 14) =     11.05025  eV     1   --> A              
     e( 15 - 15) =     11.30340  eV     1   --> A              
     e( 16 - 16) =     11.87090  eV     1   --> A              

 **************************************************************************

 **************************************************************************

                    xk=(  -0.27333,   0.47343,   0.00000  )

     Band symmetry, C_1 (1)     point group:

     e(  1 -  1) =    -15.08499  eV     1   --> A              
     e(  2 -  2) =    -14.96535  eV     1   --> A              
     e(  3 -  3) =    -11.79258  eV     1   --> A              
     e(  4 -  4) =    -11.74157  eV     1   --> A              
     e(  5 -  5) =    -10.15619  eV     1   --> A              
     e(  6 -  6) =    -10.11744  eV     1   --> A              
     e(  7 -  7) =     -2.86200  eV     1   --> A              
     e(  8 -  8) =     -2.14726  eV     1   --> A              
     e(  9 -  9) =      1.18195  eV     1   --> A              
     e( 10 - 10) =      1.53639  eV     1   --> A              
     e( 11 - 11) =      9.51980  eV     1   --> A              
     e( 12 - 12) =      9.55069  eV     1   --> A              
     e( 13 - 13) =     10.26842  eV     1   --> A              
     e( 14 - 14) =     11.37724  eV     1   --> A              
     e( 15 - 15) =     11.38245  eV     1   --> A              
     e( 16 - 16) =     11.94508  eV     1   --> A              

 **************************************************************************

 **************************************************************************

                    xk=(  -0.28000,   0.48498,   0.00000  )

     Band symmetry, C_1 (1)     point group:

     e(  1 -  1) =    -14.85722  eV     1   --> A              
     e(  2 -  2) =    -14.74091  eV     1   --> A              
     e(  3 -  3) =    -11.96924  eV     1   --> A              
     e(  4 -  4) =    -11.91741  eV     1   --> A              
     e(  5 -  5) =    -10.31794  eV     1   --> A              
     e(  6 -  6) =    -10.27934  eV     1   --> A              
     e(  7 -  7) =     -2.61863  eV     1   --> A              
     e(  8 -  8) =     -1.93303  eV     1   --> A              
     e(  9 -  9) =      0.94161  eV     1   --> A              
     e( 10 - 10) =      1.29971  eV     1   --> A              
     e( 11 - 11) =      9.70447  eV     1   --> A              
     e( 12 - 12) =      9.84205  eV     1   --> A              
     e( 13 - 13) =     10.23231  eV     1   --> A              
     e( 14 - 14) =     11.47828  eV     1   --> A              
     e( 15 - 15) =     11.71438  eV     1   --> A              
     e( 16 - 16) =     12.01454  eV     1   --> A              

 **************************************************************************

 **************************************************************************

                    xk=(  -0.28666,   0.49652,   0.00000  )

     Band symmetry, C_1 (1)     point group:

     e(  1 -  1) =    -14.62866  eV     1   --> A              
     e(  2 -  2) =    -14.51637  eV     1   --> A              
     e(  3 -  3) =    -12.14111  eV     1   --> A              
     e(  4 -  4) =    -12.08829  eV     1   --> A              
     e(  5 -  5) =    -10.47165  eV     1   --> A              
     e(  6 -  6) =    -10.43354  eV     1   --> A              
     e(  7 -  7) =     -2.37617  eV     1   --> A              
     e(  8 -  8) =     -1.72184  eV     1   --> A              
     e(  9 -  9) =      0.70765  eV     1   --> A              
     e( 10 - 10) =      1.06919  eV     1   --> A              
     e( 11 - 11) =      9.80941  eV     1   --> A              
     e( 12 - 12) =     10.15662  eV     1   --> A              
     e( 13 - 13) =     10.18820  eV     1   --> A              
     e( 14 - 14) =     11.61710  eV     1   --> A              
     e( 15 - 15) =     11.98930  eV     1   --> A              
     e( 16 - 16) =     12.14170  eV     1   --> A              

 **************************************************************************

 **************************************************************************

                    xk=(  -0.29333,   0.50807,   0.00000  )

     Band symmetry, C_1 (1)     point group:

     e(  1 -  1) =    -14.40079  eV     1   --> A              
     e(  2 -  2) =    -14.29276  eV     1   --> A              
     e(  3 -  3) =    -12.30765  eV     1   --> A              
     e(  4 -  4) =    -12.25403  eV     1   --> A              
     e(  5 -  5) =    -10.61581  eV     1   --> A              
     e(  6 -  6) =    -10.57873  eV     1   --> A              
     e(  7 -  7) =     -2.13597  eV     1   --> A              
     e(  8 -  8) =     -1.51445  eV     1   --> A              
     e(  9 -  9) =      0.48045  eV     1   --> A              
     e( 10 - 10) =      0.84536  eV     1   --> A              
     e( 11 - 11) =      9.86593  eV     1   --> A              
     e( 12 - 12) =     10.12424  eV     1   --> A              
     e( 13 - 13) =     10.48264  eV     1   --> A              
     e( 14 - 14) =     11.80337  eV     1   --> A              
     e( 15 - 15) =     12.06307  eV     1   --> A              
     e( 16 - 16) =     12.31142  eV     1   --> A              

 **************************************************************************

 **************************************************************************

                    xk=(  -0.30000,   0.51962,   0.00000  )

     Band symmetry, C_1 (1)     point group:

     e(  1 -  1) =    -14.17507  eV     1   --> A              
     e(  2 -  2) =    -14.07182  eV     1   --> A              
     e(  3 -  3) =    -12.46944  eV     1   --> A              
     e(  4 -  4) =    -12.41502  eV     1   --> A              
     e(  5 -  5) =    -10.74911  eV     1   --> A              
     e(  6 -  6) =    -10.71334  eV     1   --> A              
     e(  7 -  7) =     -1.89858  eV     1   --> A              
     e(  8 -  8) =     -1.31314  eV     1   --> A              
     e(  9 -  9) =      0.26017  eV     1   --> A              
     e( 10 - 10) =      0.62868  eV     1   --> A              
     e( 11 - 11) =      9.88632  eV     1   --> A              
     e( 12 - 12) =     10.06593  eV     1   --> A              
     e( 13 - 13) =     10.79612  eV     1   --> A              
     e( 14 - 14) =     12.02542  eV     1   --> A              
     e( 15 - 15) =     12.08991  eV     1   --> A              
     e( 16 - 16) =     12.34422  eV     1   --> A              

 **************************************************************************

 **************************************************************************

                    xk=(  -0.30666,   0.53116,   0.00000  )

     Band symmetry, C_1 (1)     point group:

     e(  1 -  1) =    -13.95413  eV     1   --> A              
     e(  2 -  2) =    -13.85655  eV     1   --> A              
     e(  3 -  3) =    -12.62606  eV     1   --> A              
     e(  4 -  4) =    -12.57074  eV     1   --> A              
     e(  5 -  5) =    -10.86855  eV     1   --> A              
     e(  6 -  6) =    -10.83494  eV     1   --> A              
     e(  7 -  7) =     -1.66568  eV     1   --> A              
     e(  8 -  8) =     -1.11932  eV     1   --> A              
     e(  9 -  9) =      0.04746  eV     1   --> A              
     e( 10 - 10) =      0.41964  eV     1   --> A              
     e( 11 - 11) =      9.88529  eV     1   --> A              
     e( 12 - 12) =     10.01003  eV     1   --> A              
     e( 13 - 13) =     11.09846  eV     1   --> A              
     e( 14 - 14) =     12.09977  eV     1   --> A              
     e( 15 - 15) =     12.24090  eV     1   --> A              
     e( 16 - 16) =     12.38669  eV     1   --> A              

 **************************************************************************

 **************************************************************************

                    xk=(  -0.31333,   0.54271,   0.00000  )

     Band symmetry, C_1 (1)     point group:

     e(  1 -  1) =    -13.74106  eV     1   --> A              
     e(  2 -  2) =    -13.65027  eV     1   --> A              
     e(  3 -  3) =    -12.77764  eV     1   --> A              
     e(  4 -  4) =    -12.72165  eV     1   --> A              
     e(  5 -  5) =    -10.97087  eV     1   --> A              
     e(  6 -  6) =    -10.94030  eV     1   --> A              
     e(  7 -  7) =     -1.44009  eV     1   --> A              
     e(  8 -  8) =     -0.93543  eV     1   --> A              
     e(  9 -  9) =     -0.15607  eV     1   --> A              
     e( 10 - 10) =      0.22070  eV     1   --> A              
     e( 11 - 11) =      9.87519  eV     1   --> A              
     e( 12 - 12) =      9.96005  eV     1   --> A              
     e( 13 - 13) =     11.38034  eV     1   --> A              
     e( 14 - 14) =     12.09788  eV     1   --> A              
     e( 15 - 15) =     12.30051  eV     1   --> A              
     e( 16 - 16) =     12.56562  eV     1   --> A              

 **************************************************************************

 **************************************************************************

                    xk=(  -0.32000,   0.55426,   0.00000  )

     Band symmetry, C_1 (1)     point group:

     e(  1 -  1) =    -13.54082  eV     1   --> A              
     e(  2 -  2) =    -13.45860  eV     1   --> A              
     e(  3 -  3) =    -12.92369  eV     1   --> A              
     e(  4 -  4) =    -12.86693  eV     1   --> A              
     e(  5 -  5) =    -11.05129  eV     1   --> A              
     e(  6 -  6) =    -11.02482  eV     1   --> A              
     e(  7 -  7) =     -1.22624  eV     1   --> A              
     e(  8 -  8) =     -0.76714  eV     1   --> A              
     e(  9 -  9) =     -0.34661  eV     1   --> A              
     e( 10 - 10) =      0.03605  eV     1   --> A              
     e( 11 - 11) =      9.86494  eV     1   --> A              
     e( 12 - 12) =      9.91859  eV     1   --> A              
     e( 13 - 13) =     11.62513  eV     1   --> A              
     e( 14 - 14) =     12.09172  eV     1   --> A              
     e( 15 - 15) =     12.27758  eV     1   --> A              
     e( 16 - 16) =     12.77520  eV     1   --> A              

 **************************************************************************

 **************************************************************************

                    xk=(  -0.32666,   0.56581,   0.00000  )

     Band symmetry, C_1 (1)     point group:

     e(  1 -  1) =    -13.36000  eV     1   --> A              
     e(  2 -  2) =    -13.28837  eV     1   --> A              
     e(  3 -  3) =    -13.06362  eV     1   --> A              
     e(  4 -  4) =    -13.00630  eV     1   --> A              
     e(  5 -  5) =    -11.10380  eV     1   --> A              
     e(  6 -  6) =    -11.08190  eV     1   --> A              
     e(  7 -  7) =     -1.03889  eV     1   --> A              
     e(  8 -  8) =     -0.63032  eV     1   --> A              
     e(  9 -  9) =     -0.50985  eV     1   --> A              
     e( 10 - 10) =     -0.11873  eV     1   --> A              
     e( 11 - 11) =      9.86033  eV     1   --> A              
     e( 12 - 12) =      9.88820  eV     1   --> A              
     e( 13 - 13) =     11.79680  eV     1   --> A              
     e( 14 - 14) =     12.10395  eV     1   --> A              
     e( 15 - 15) =     12.22965  eV     1   --> A              
     e( 16 - 16) =     12.91503  eV     1   --> A              

 **************************************************************************

 **************************************************************************

                    xk=(  -0.33333,   0.57735,   0.00000  )

     point group C_3 (3)    
     there are  3 classes
     the character table:

       E     C3    C3^2 
A      1.00  1.00  1.00
E      1.00 -0.50 -0.50
E*     1.00 -0.50 -0.50
     imaginary part
A      0.00  0.00  0.00
E      0.00  0.87 -0.87
E*     0.00 -0.87  0.87

     the symmetry operations in each class and the name of the first element:

     E        1
                                                                 
     C3       2
                                                                 
     C3^2     3
                                                                 

     Band symmetry, C_3 (3)     point group:

     e(  1 -  1) =    -13.23019  eV     1   --> A              
     e(  2 -  2) =    -13.18109  eV     1   --> E*             
     e(  3 -  3) =    -13.16161  eV     1   --> E              
     e(  4 -  4) =    -13.11835  eV     1   --> A              
     e(  5 -  5) =    -11.12247  eV     1   --> E              
     e(  6 -  6) =    -11.10332  eV     1   --> E*             
     e(  7 -  7) =     -0.94548  eV     1   --> A              
     e(  8 -  8) =     -0.58970  eV     1   --> E*             
     e(  9 -  9) =     -0.57108  eV     1   --> E              
     e( 10 - 10) =     -0.18918  eV     1   --> A              
     e( 11 - 11) =      9.86189  eV     1   --> E              
     e( 12 - 12) =      9.87403  eV     1   --> E*             
     e( 13 - 13) =     11.85010  eV     1   --> A              
     e( 14 - 14) =     12.16331  eV     1   -->   ?
     e( 15 - 15) =     12.16492  eV     1   -->   ?
     e( 16 - 16) =     12.95820  eV     1   --> A              

 **************************************************************************

 **************************************************************************

                    xk=(  -0.32666,   0.57735,   0.00000  )

     point group C_1 (1)    
     there are  1 classes
     the character table:

       E    
A      1.00

     the symmetry operations in each class and the name of the first element:

     E        1
                                                                 

     Band symmetry, C_1 (1)     point group:

     e(  1 -  1) =    -13.27467  eV     1   --> A              
     e(  2 -  2) =    -13.21591  eV     1   --> A              
     e(  3 -  3) =    -13.12887  eV     1   --> A              
     e(  4 -  4) =    -13.07932  eV     1   --> A              
     e(  5 -  5) =    -11.11749  eV     1   --> A              
     e(  6 -  6) =    -11.09738  eV     1   --> A              
     e(  7 -  7) =     -0.96951  eV     1   --> A              
     e(  8 -  8) =     -0.61018  eV     1   --> A              
     e(  9 -  9) =     -0.54439  eV     1   --> A              
     e( 10 - 10) =     -0.17200  eV     1   --> A              
     e( 11 - 11) =      9.86103  eV     1   --> A              
     e( 12 - 12) =      9.87825  eV     1   --> A              
     e( 13 - 13) =     11.84153  eV     1   --> A              
     e( 14 - 14) =     12.12598  eV     1   --> A              
     e( 15 - 15) =     12.19816  eV     1   --> A              
     e( 16 - 16) =     12.94946  eV     1   --> A              

 **************************************************************************

 **************************************************************************

                    xk=(  -0.32000,   0.57735,   0.00000  )

     Band symmetry, C_1 (1)     point group:

     e(  1 -  1) =    -13.33695  eV     1   --> A              
     e(  2 -  2) =    -13.27775  eV     1   --> A              
     e(  3 -  3) =    -13.07561  eV     1   --> A              
     e(  4 -  4) =    -13.03282  eV     1   --> A              
     e(  5 -  5) =    -11.10225  eV     1   --> A              
     e(  6 -  6) =    -11.07947  eV     1   --> A              
     e(  7 -  7) =     -1.02619  eV     1   --> A              
     e(  8 -  8) =     -0.66384  eV     1   --> A              
     e(  9 -  9) =     -0.47869  eV     1   --> A              
     e( 10 - 10) =     -0.13013  eV     1   --> A              
     e( 11 - 11) =      9.86113  eV     1   --> A              
     e( 12 - 12) =      9.88837  eV     1   --> A              
     e( 13 - 13) =     11.82043  eV     1   --> A              
     e( 14 - 14) =     12.08475  eV     1   --> A              
     e( 15 - 15) =     12.22132  eV     1   --> A              
     e( 16 - 16) =     12.92518  eV     1   --> A              

 **************************************************************************

 **************************************************************************

                    xk=(  -0.31333,   0.57735,   0.00000  )

     Band symmetry, C_1 (1)     point group:

     e(  1 -  1) =    -13.39949  eV     1   --> A              
     e(  2 -  2) =    -13.34004  eV     1   --> A              
     e(  3 -  3) =    -13.03025  eV     1   --> A              
     e(  4 -  4) =    -12.99449  eV     1   --> A              
     e(  5 -  5) =    -11.07580  eV     1   --> A              
     e(  6 -  6) =    -11.04879  eV     1   --> A              
     e(  7 -  7) =     -1.09706  eV     1   --> A              
     e(  8 -  8) =     -0.73122  eV     1   --> A              
     e(  9 -  9) =     -0.39829  eV     1   --> A              
     e( 10 - 10) =     -0.07592  eV     1   --> A              
     e( 11 - 11) =      9.86422  eV     1   --> A              
     e( 12 - 12) =      9.90274  eV     1   --> A              
     e( 13 - 13) =     11.79172  eV     1   --> A              
     e( 14 - 14) =     12.04100  eV     1   --> A              
     e( 15 - 15) =     12.22843  eV     1   --> A              
     e( 16 - 16) =     12.88868  eV     1   --> A              

 **************************************************************************

 **************************************************************************

                    xk=(  -0.30666,   0.57735,   0.00000  )

     Band symmetry, C_1 (1)     point group:

     e(  1 -  1) =    -13.46105  eV     1   --> A              
     e(  2 -  2) =    -13.40141  eV     1   --> A              
     e(  3 -  3) =    -12.99494  eV     1   --> A              
     e(  4 -  4) =    -12.96577  eV     1   --> A              
     e(  5 -  5) =    -11.03815  eV     1   --> A              
     e(  6 -  6) =    -11.00601  eV     1   --> A              
     e(  7 -  7) =     -1.17366  eV     1   --> A              
     e(  8 -  8) =     -0.80457  eV     1   --> A              
     e(  9 -  9) =     -0.31271  eV     1   --> A              
     e( 10 - 10) =     -0.01670  eV     1   --> A              
     e( 11 - 11) =      9.87072  eV     1   --> A              
     e( 12 - 12) =      9.92098  eV     1   --> A              
     e( 13 - 13) =     11.75753  eV     1   --> A              
     e( 14 - 14) =     11.99461  eV     1   --> A              
     e( 15 - 15) =     12.21683  eV     1   --> A              
     e( 16 - 16) =     12.84141  eV     1   --> A              

 **************************************************************************

 **************************************************************************

                    xk=(  -0.30000,   0.57735,   0.00000  )

     Band symmetry, C_1 (1)     point group:

     e(  1 -  1) =    -13.52170  eV     1   --> A              
     e(  2 -  2) =    -13.46174  eV     1   --> A              
     e(  3 -  3) =    -12.96976  eV     1   --> A              
     e(  4 -  4) =    -12.94601  eV     1   --> A              
     e(  5 -  5) =    -10.98900  eV     1   --> A              
     e(  6 -  6) =    -10.95160  eV     1   --> A              
     e(  7 -  7) =     -1.25215  eV     1   --> A              
     e(  8 -  8) =     -0.88056  eV     1   --> A              
     e(  9 -  9) =     -0.22611  eV     1   --> A              
     e( 10 - 10) =      0.04378  eV     1   --> A              
     e( 11 - 11) =      9.88075  eV     1   --> A              
     e( 12 - 12) =      9.94308  eV     1   --> A              
     e( 13 - 13) =     11.71937  eV     1   --> A              
     e( 14 - 14) =     11.94635  eV     1   --> A              
     e( 15 - 15) =     12.18592  eV     1   --> A              
     e( 16 - 16) =     12.78497  eV     1   --> A              

 **************************************************************************

 **************************************************************************

                    xk=(  -0.29333,   0.57735,   0.00000  )

     Band symmetry, C_1 (1)     point group:

     e(  1 -  1) =    -13.58114  eV     1   --> A              
     e(  2 -  2) =    -13.52089  eV     1   --> A              
     e(  3 -  3) =    -12.95475  eV     1   --> A              
     e(  4 -  4) =    -12.93454  eV     1   --> A              
     e(  5 -  5) =    -10.92887  eV     1   --> A              
     e(  6 -  6) =    -10.88640  eV     1   --> A              
     e(  7 -  7) =     -1.33109  eV     1   --> A              
     e(  8 -  8) =     -0.95734  eV     1   --> A              
     e(  9 -  9) =     -0.14004  eV     1   --> A              
     e( 10 - 10) =      0.10390  eV     1   --> A              
     e( 11 - 11) =      9.89434  eV     1   --> A              
     e( 12 - 12) =      9.96898  eV     1   --> A              
     e( 13 - 13) =     11.67761  eV     1   --> A              
     e( 14 - 14) =     11.89629  eV     1   --> A              
     e( 15 - 15) =     12.13580  eV     1   --> A              
     e( 16 - 16) =     12.71997  eV     1   --> A              

 **************************************************************************

 **************************************************************************

                    xk=(  -0.28666,   0.57735,   0.00000  )

     Band symmetry, C_1 (1)     point group:

     e(  1 -  1) =    -13.63934  eV     1   --> A              
     e(  2 -  2) =    -13.57871  eV     1   --> A              
     e(  3 -  3) =    -12.94928  eV     1   --> A              
     e(  4 -  4) =    -12.93026  eV     1   --> A              
     e(  5 -  5) =    -10.85870  eV     1   --> A              
     e(  6 -  6) =    -10.81141  eV     1   --> A              
     e(  7 -  7) =     -1.40950  eV     1   --> A              
     e(  8 -  8) =     -1.03394  eV     1   --> A              
[...]
     e( 16 - 16) =      8.17626  eV     1   --> A'             

 **************************************************************************

 **************************************************************************

                    xk=(   0.00000,   0.16166,   0.00000  )

     Band symmetry, C_s (m)     point group:

     e(  1 -  1) =    -19.69110  eV     1   --> A'             
     e(  2 -  2) =    -19.52184  eV     1   --> A'             
     e(  3 -  3) =     -8.16343  eV     1   --> A'             
     e(  4 -  4) =     -7.10732  eV     1   --> A'             
     e(  5 -  5) =     -5.33920  eV     1   --> A'             
     e(  6 -  6) =     -5.30175  eV     1   --> A'             
     e(  7 -  7) =     -4.49653  eV     1   --> A''            
     e(  8 -  8) =     -4.46789  eV     1   --> A''            
     e(  9 -  9) =      3.18344  eV     1   --> A'             
     e( 10 - 10) =      3.61024  eV     1   --> A'             
     e( 11 - 11) =      4.69001  eV     1   --> A'             
     e( 12 - 12) =      5.82722  eV     1   --> A'             
     e( 13 - 13) =      6.23339  eV     1   --> A'             
     e( 14 - 14) =      7.83940  eV     1   --> A'             
     e( 15 - 15) =      7.90354  eV     1   --> A'             
     e( 16 - 16) =      8.10637  eV     1   --> A'             

 **************************************************************************

 **************************************************************************

                    xk=(   0.00000,   0.15011,   0.00000  )

     Band symmetry, C_s (m)     point group:

     e(  1 -  1) =    -19.75479  eV     1   --> A'             
     e(  2 -  2) =    -19.58487  eV     1   --> A'             
     e(  3 -  3) =     -8.24042  eV     1   --> A'             
     e(  4 -  4) =     -7.18145  eV     1   --> A'             
     e(  5 -  5) =     -5.12974  eV     1   --> A'             
     e(  6 -  6) =     -5.09414  eV     1   --> A'             
     e(  7 -  7) =     -4.39600  eV     1   --> A''            
     e(  8 -  8) =     -4.36820  eV     1   --> A''            
     e(  9 -  9) =      3.09789  eV     1   --> A'             
     e( 10 - 10) =      3.52417  eV     1   --> A'             
     e( 11 - 11) =      4.60204  eV     1   --> A'             
     e( 12 - 12) =      5.74006  eV     1   --> A'             
     e( 13 - 13) =      6.15251  eV     1   --> A'             
     e( 14 - 14) =      7.84979  eV     1   --> A'             
     e( 15 - 15) =      7.89069  eV     1   --> A'             
     e( 16 - 16) =      8.05050  eV     1   --> A'             

 **************************************************************************

 **************************************************************************

                    xk=(   0.00000,   0.13856,   0.00000  )

     Band symmetry, C_s (m)     point group:

     e(  1 -  1) =    -19.81374  eV     1   --> A'             
     e(  2 -  2) =    -19.64320  eV     1   --> A'             
     e(  3 -  3) =     -8.31150  eV     1   --> A'             
     e(  4 -  4) =     -7.25001  eV     1   --> A'             
     e(  5 -  5) =     -4.92945  eV     1   --> A'             
     e(  6 -  6) =     -4.89607  eV     1   --> A'             
     e(  7 -  7) =     -4.29874  eV     1   --> A''            
     e(  8 -  8) =     -4.27139  eV     1   --> A''            
     e(  9 -  9) =      3.01866  eV     1   --> A'             
     e( 10 - 10) =      3.44446  eV     1   --> A'             
     e( 11 - 11) =      4.52056  eV     1   --> A'             
     e( 12 - 12) =      5.65932  eV     1   --> A'             
     e( 13 - 13) =      6.07752  eV     1   --> A'             
     e( 14 - 14) =      7.84070  eV     1   --> A'             
     e( 15 - 15) =      7.87671  eV     1   --> A'             
     e( 16 - 16) =      8.01293  eV     1   --> A'             

 **************************************************************************

 **************************************************************************

                    xk=(   0.00000,   0.12702,   0.00000  )

     Band symmetry, C_s (m)     point group:

     e(  1 -  1) =    -19.86804  eV     1   --> A'             
     e(  2 -  2) =    -19.69696  eV     1   --> A'             
     e(  3 -  3) =     -8.37712  eV     1   --> A'             
     e(  4 -  4) =     -7.31331  eV     1   --> A'             
     e(  5 -  5) =     -4.74018  eV     1   --> A'             
     e(  6 -  6) =     -4.70852  eV     1   --> A'             
     e(  7 -  7) =     -4.20592  eV     1   --> A''            
     e(  8 -  8) =     -4.17912  eV     1   --> A''            
     e(  9 -  9) =      2.94576  eV     1   --> A'             
     e( 10 - 10) =      3.37108  eV     1   --> A'             
     e( 11 - 11) =      4.44558  eV     1   --> A'             
     e( 12 - 12) =      5.58502  eV     1   --> A'             
     e( 13 - 13) =      6.00834  eV     1   --> A'             
     e( 14 - 14) =      7.80149  eV     1   --> A'             
     e( 15 - 15) =      7.87654  eV     1   --> A'             
     e( 16 - 16) =      7.98984  eV     1   --> A'             

 **************************************************************************

 **************************************************************************

                    xk=(   0.00000,   0.11547,   0.00000  )

     Band symmetry, C_s (m)     point group:

     e(  1 -  1) =    -19.91765  eV     1   --> A'             
     e(  2 -  2) =    -19.74605  eV     1   --> A'             
     e(  3 -  3) =     -8.43712  eV     1   --> A'             
     e(  4 -  4) =     -7.37135  eV     1   --> A'             
     e(  5 -  5) =     -4.56280  eV     1   --> A'             
     e(  6 -  6) =     -4.53273  eV     1   --> A'             
     e(  7 -  7) =     -4.11731  eV     1   --> A''            
     e(  8 -  8) =     -4.09105  eV     1   --> A''            
     e(  9 -  9) =      2.87919  eV     1   --> A'             
     e( 10 - 10) =      3.30404  eV     1   --> A'             
     e( 11 - 11) =      4.37713  eV     1   --> A'             
     e( 12 - 12) =      5.51715  eV     1   --> A'             
     e( 13 - 13) =      5.94512  eV     1   --> A'             
     e( 14 - 14) =      7.75355  eV     1   -->   ?
     e( 15 - 15) =      7.87702  eV     1   --> A'             
     e( 16 - 16) =      7.97274  eV     1   --> A'             

 **************************************************************************

 **************************************************************************

                    xk=(   0.00000,   0.10392,   0.00000  )

     Band symmetry, C_s (m)     point group:

     e(  1 -  1) =    -19.96253  eV     1   --> A'             
     e(  2 -  2) =    -19.79043  eV     1   --> A'             
     e(  3 -  3) =     -8.49136  eV     1   --> A'             
     e(  4 -  4) =     -7.42373  eV     1   --> A'             
     e(  5 -  5) =     -4.39782  eV     1   --> A'             
     e(  6 -  6) =     -4.36919  eV     1   --> A'             
     e(  7 -  7) =     -4.03416  eV     1   --> A''            
     e(  8 -  8) =     -4.00839  eV     1   --> A''            
     e(  9 -  9) =      2.81897  eV     1   --> A'             
     e( 10 - 10) =      3.24339  eV     1   --> A'             
     e( 11 - 11) =      4.31521  eV     1   --> A'             
     e( 12 - 12) =      5.45575  eV     1   --> A'             
     e( 13 - 13) =      5.88783  eV     1   --> A'             
     e( 14 - 14) =      7.70479  eV     1   --> A'             
     e( 15 - 15) =      7.87582  eV     1   --> A'             
     e( 16 - 16) =      7.95813  eV     1   --> A'             

 **************************************************************************

 **************************************************************************

                    xk=(   0.00000,   0.09238,   0.00000  )

     Band symmetry, C_s (m)     point group:

     e(  1 -  1) =    -20.00270  eV     1   --> A'             
     e(  2 -  2) =    -19.83023  eV     1   --> A'             
     e(  3 -  3) =     -8.53996  eV     1   --> A'             
     e(  4 -  4) =     -7.47050  eV     1   --> A'             
     e(  5 -  5) =     -4.24689  eV     1   --> A'             
     e(  6 -  6) =     -4.21990  eV     1   --> A'             
     e(  7 -  7) =     -3.95748  eV     1   --> A''            
     e(  8 -  8) =     -3.93228  eV     1   --> A''            
     e(  9 -  9) =      2.76509  eV     1   --> A'             
     e( 10 - 10) =      3.18911  eV     1   --> A'             
     e( 11 - 11) =      4.25981  eV     1   --> A'             
     e( 12 - 12) =      5.40078  eV     1   --> A'             
     e( 13 - 13) =      5.83654  eV     1   --> A'             
     e( 14 - 14) =      7.65944  eV     1   --> A'             
     e( 15 - 15) =      7.87066  eV     1   --> A'             
     e( 16 - 16) =      7.94310  eV     1   -->   ?

 **************************************************************************

 **************************************************************************

                    xk=(   0.00000,   0.08083,   0.00000  )

     Band symmetry, C_s (m)     point group:

     e(  1 -  1) =    -20.03813  eV     1   --> A'             
     e(  2 -  2) =    -19.86533  eV     1   --> A'             
     e(  3 -  3) =     -8.58294  eV     1   --> A'             
     e(  4 -  4) =     -7.51197  eV     1   --> A'             
     e(  5 -  5) =     -4.11106  eV     1   --> A'             
     e(  6 -  6) =     -4.08494  eV     1   --> A'             
     e(  7 -  7) =     -3.88735  eV     1   --> A''            
     e(  8 -  8) =     -3.86283  eV     1   --> A''            
     e(  9 -  9) =      2.71754  eV     1   --> A'             
     e( 10 - 10) =      3.14120  eV     1   --> A'             
     e( 11 - 11) =      4.21091  eV     1   --> A'             
     e( 12 - 12) =      5.35229  eV     1   --> A'             
     e( 13 - 13) =      5.79126  eV     1   --> A'             
     e( 14 - 14) =      7.61846  eV     1   --> A'             
     e( 15 - 15) =      7.86433  eV     1   --> A'             
     e( 16 - 16) =      7.92805  eV     1   -->   ?

 **************************************************************************

 **************************************************************************

                    xk=(   0.00000,   0.06928,   0.00000  )

     Band symmetry, C_s (m)     point group:

     e(  1 -  1) =    -20.06892  eV     1   --> A'             
     e(  2 -  2) =    -19.89580  eV     1   --> A'             
     e(  3 -  3) =     -8.62032  eV     1   --> A'             
     e(  4 -  4) =     -7.54819  eV     1   --> A'             
     e(  5 -  5) =     -3.99047  eV     1   --> A'             
     e(  6 -  6) =     -3.96533  eV     1   --> A'             
     e(  7 -  7) =     -3.82508  eV     1   --> A''            
     e(  8 -  8) =     -3.80105  eV     1   --> A''            
     e(  9 -  9) =      2.67633  eV     1   --> A'             
     e( 10 - 10) =      3.09964  eV     1   --> A'             
     e( 11 - 11) =      4.16854  eV     1   --> A'             
     e( 12 - 12) =      5.31024  eV     1   --> A'             
     e( 13 - 13) =      5.75200  eV     1   --> A'             
     e( 14 - 14) =      7.58229  eV     1   --> A'             
     e( 15 - 15) =      7.85651  eV     1   --> A'             
     e( 16 - 16) =      7.91246  eV     1   -->   ?

 **************************************************************************

 **************************************************************************

                    xk=(   0.00000,   0.05774,   0.00000  )

     Band symmetry, C_s (m)     point group:

     e(  1 -  1) =    -20.09495  eV     1   --> A'             
     e(  2 -  2) =    -19.92157  eV     1   --> A'             
     e(  3 -  3) =     -8.65199  eV     1   --> A'             
     e(  4 -  4) =     -7.57875  eV     1   --> A'             
     e(  5 -  5) =     -3.88617  eV     1   --> A'             
     e(  6 -  6) =     -3.86204  eV     1   --> A'             
     e(  7 -  7) =     -3.77087  eV     1   --> A''            
     e(  8 -  8) =     -3.74740  eV     1   --> A''            
     e(  9 -  9) =      2.64146  eV     1   --> A'             
     e( 10 - 10) =      3.06448  eV     1   --> A'             
     e( 11 - 11) =      4.13268  eV     1   --> A'             
     e( 12 - 12) =      5.27468  eV     1   --> A'             
     e( 13 - 13) =      5.71877  eV     1   --> A'             
     e( 14 - 14) =      7.55153  eV     1   --> A'             
     e( 15 - 15) =      7.84829  eV     1   --> A'             
     e( 16 - 16) =      7.89856  eV     1   -->   ?

 **************************************************************************

 **************************************************************************

                    xk=(   0.00000,   0.04619,   0.00000  )

     Band symmetry, C_s (m)     point group:

     e(  1 -  1) =    -20.11622  eV     1   --> A'             
     e(  2 -  2) =    -19.94263  eV     1   --> A'             
     e(  3 -  3) =     -8.67787  eV     1   --> A'             
     e(  4 -  4) =     -7.60384  eV     1   --> A'             
     e(  5 -  5) =     -3.79934  eV     1   --> A'             
     e(  6 -  6) =     -3.77582  eV     1   --> A'             
     e(  7 -  7) =     -3.72495  eV     1   --> A''            
     e(  8 -  8) =     -3.70189  eV     1   --> A''            
     e(  9 -  9) =      2.61294  eV     1   --> A'             
     e( 10 - 10) =      3.03570  eV     1   --> A'             
     e( 11 - 11) =      4.10336  eV     1   --> A'             
     e( 12 - 12) =      5.24555  eV     1   --> A'             
     e( 13 - 13) =      5.69160  eV     1   --> A'             
     e( 14 - 14) =      7.52638  eV     1   -->   ?
     e( 15 - 15) =      7.84035  eV     1   --> A'             
     e( 16 - 16) =      7.88495  eV     1   -->   ?

 **************************************************************************

 **************************************************************************

                    xk=(   0.00000,   0.03464,   0.00000  )

     Band symmetry, C_s (m)     point group:

     e(  1 -  1) =    -20.13279  eV     1   --> A'             
     e(  2 -  2) =    -19.95904  eV     1   --> A'             
     e(  3 -  3) =     -8.69802  eV     1   --> A'             
     e(  4 -  4) =     -7.62335  eV     1   --> A'             
     e(  5 -  5) =     -3.73130  eV     1   --> A'             
     e(  6 -  6) =     -3.70827  eV     1   --> A'             
     e(  7 -  7) =     -3.68927  eV     1   --> A''            
     e(  8 -  8) =     -3.66655  eV     1   --> A''            
     e(  9 -  9) =      2.59075  eV     1   --> A'             
     e( 10 - 10) =      3.01333  eV     1   --> A'             
     e( 11 - 11) =      4.08054  eV     1   --> A'             
     e( 12 - 12) =      5.22291  eV     1   --> A'             
     e( 13 - 13) =      5.67045  eV     1   --> A'             
     e( 14 - 14) =      7.50647  eV     1   --> A'             
     e( 15 - 15) =      7.83317  eV     1   -->   ?
     e( 16 - 16) =      7.87687  eV     1   -->   ?

 **************************************************************************

 **************************************************************************

                    xk=(   0.00000,   0.02309,   0.00000  )

     Band symmetry, C_s (m)     point group:

     e(  1 -  1) =    -20.14461  eV     1   --> A'             
     e(  2 -  2) =    -19.97075  eV     1   --> A'             
     e(  3 -  3) =     -8.71234  eV     1   --> A'             
     e(  4 -  4) =     -7.63711  eV     1   --> A'             
     e(  5 -  5) =     -3.68168  eV     1   --> A'             
     e(  6 -  6) =     -3.66335  eV     1   --> A''            
     e(  7 -  7) =     -3.65901  eV     1   --> A'             
     e(  8 -  8) =     -3.64079  eV     1   --> A''            
     e(  9 -  9) =      2.57491  eV     1   --> A'             
     e( 10 - 10) =      2.99736  eV     1   --> A'             
     e( 11 - 11) =      4.06425  eV     1   --> A'             
     e( 12 - 12) =      5.20675  eV     1   --> A'             
     e( 13 - 13) =      5.65537  eV     1   --> A'             
     e( 14 - 14) =      7.49292  eV     1   --> A'             
     e( 15 - 15) =      7.82822  eV     1   --> A'             
     e( 16 - 16) =      7.86374  eV     1   -->   ?

 **************************************************************************

 **************************************************************************

                    xk=(   0.00000,   0.01155,   0.00000  )

     Band symmetry, C_s (m)     point group:

     e(  1 -  1) =    -20.15172  eV     1   --> A'             
     e(  2 -  2) =    -19.97779  eV     1   --> A'             
     e(  3 -  3) =     -8.72098  eV     1   --> A'             
     e(  4 -  4) =     -7.64548  eV     1   --> A'             
     e(  5 -  5) =     -3.65260  eV     1   --> A'             
     e(  6 -  6) =     -3.64789  eV     1   --> A''            
     e(  7 -  7) =     -3.63025  eV     1   --> A'             
     e(  8 -  8) =     -3.62551  eV     1   --> A''            
     e(  9 -  9) =      2.56540  eV     1   --> A'             
     e( 10 - 10) =      2.98777  eV     1   --> A'             
     e( 11 - 11) =      4.05449  eV     1   --> A'             
     e( 12 - 12) =      5.19705  eV     1   --> A'             
     e( 13 - 13) =      5.64633  eV     1   --> A'             
     e( 14 - 14) =      7.48401  eV     1   --> A'             
     e( 15 - 15) =      7.82384  eV     1   --> A'             
     e( 16 - 16) =      7.83270  eV     1   --> A''            

 **************************************************************************

 **************************************************************************

                    xk=(   0.00000,   0.00000,   0.00000  )

     point group C_3v (3m)  
     there are  3 classes
     the character table:

       E     2C3   3s_v 
A_1    1.00  1.00  1.00
A_2    1.00  1.00 -1.00
E      2.00 -1.00  0.00

     the symmetry operations in each class and the name of the first element:

     E        1
                                                                 
     2C3      2    3
                                                                 
     3s_v     4    5    6
                                                                 

     Band symmetry, C_3v (3m)   point group:

     e(  1 -  1) =    -20.15420  eV     1   --> A_1  L_1       
     e(  2 -  2) =    -19.98018  eV     1   --> A_1  L_1       
     e(  3 -  3) =     -8.72403  eV     1   --> A_1  L_1       
     e(  4 -  4) =     -7.64835  eV     1   --> A_1  L_1       
     e(  5 -  6) =     -3.64262  eV     2   --> E    L_3       
     e(  7 -  8) =     -3.62026  eV     2   --> E    L_3       
     e(  9 -  9) =      2.56222  eV     1   --> A_1  L_1       
     e( 10 - 10) =      2.98456  eV     1   --> A_1  L_1       
     e( 11 - 11) =      4.05123  eV     1   --> A_1  L_1       
     e( 12 - 12) =      5.19381  eV     1   --> A_1  L_1       
     e( 13 - 13) =      5.64327  eV     1   --> A_1  L_1       
     e( 14 - 14) =      7.48118  eV     1   -->   ?
     e( 15 - 15) =      7.82207  eV     1   -->   ?
     e( 16 - 16) =      7.82229  eV     1   -->   ?

 **************************************************************************

     BANDS        :     11.92s CPU     12.14s WALL


   This run was terminated on:  17:11:54  15Apr2024            

=------------------------------------------------------------------------------=
   JOB DONE.
=------------------------------------------------------------------------------=
