
     Program BANDS v.7.2 starts on  4Apr2024 at 16:46: 6 

     This program is part of the open-source Quantum ESPRESSO suite
     for quantum simulation of materials; please cite
         "P. Giannozzi et al., J. Phys.:Condens. Matter 21 395502 (2009);
         "P. Giannozzi et al., J. Phys.:Condens. Matter 29 465901 (2017);
         "P. Giannozzi et al., J. Chem. Phys. 152 154105 (2020);
          URL http://www.quantum-espresso.org", 
     in publications or presentations arising from this work. More details at
     http://www.quantum-espresso.org/quote

     Parallel version (MPI & OpenMP), running on       8 processor cores
     Number of MPI processes:                 8
     Threads/MPI process:                     1

     MPI processes distributed on     1 nodes
     R & G space division:  proc/nbgrp/npool/nimage =       8
     0 MiB available memory on the printing compute node when the environment starts


     Reading xml data from directory:

     ./tmp/C2L_AB_PBE_vdW.save/

     IMPORTANT: XC functional enforced from input :
     Exchange-correlation= VDW-DF2-B86R
                           (   1   4  26   0   2   0   0)
     Any further DFT definition will be discarded
     Please, verify this is what you really want


     Parallelization info
     --------------------
     sticks:   dense  smooth     PW     G-vecs:    dense   smooth      PW
     Min          45      45     13                 5519     5519     941
     Max          46      46     14                 5546     5546     968
     Sum         361     361    109                44285    44285    7663

     Using Slab Decomposition



     %%%%%%%%%%%%%%%%%%%%%%%%%%%%%%%%%%%%%%%%%%%%%%%%%%%%%%%%%%%%%%%%%%%%%%%%
     %                                                                      %
     % You are using vdW-DF, which was implemented by the Thonhauser group. %
     % Please cite the following two papers that made this development      %
     % possible and the two reviews that describe the various versions:     %
     %                                                                      %
     %   T. Thonhauser et al., PRL 115, 136402 (2015).                      %
     %   T. Thonhauser et al., PRB 76, 125112 (2007).                       %
     %   K. Berland et al., Rep. Prog. Phys. 78, 066501 (2015).             %
     %   D.C. Langreth et al., J. Phys.: Condens. Matter 21, 084203 (2009). %
     %                                                                      %
     % If you are calculating stress with vdW-DF, please also cite:         %
     %                                                                      %
     %   R. Sabatini et al., J. Phys.: Condens. Matter 24, 424209 (2012).   %
     %                                                                      %
     %%%%%%%%%%%%%%%%%%%%%%%%%%%%%%%%%%%%%%%%%%%%%%%%%%%%%%%%%%%%%%%%%%%%%%%%

     %%%%%%%%%%%%%%%%%%%%%%%%%%%%%%%%%%%%%%%%%%%%%%%%%%%%%%%%%%%%%%%%%%%%%%%%
     %                                                                      %
     %  vdW-DF NEWS:                                                        %
     %                                                                      %
     %  * vdW-DF3 is now available. DOI: 10.1021/acs.jctc.0c00471           %
     %    use with input_dft = 'vdW-DF3-opt1' or 'vdW-DF3-opt2'             %
     %                                                                      %
     %  * Unscreened and range-separated hybrid vdW-DF-cx functionals       %
     %    DOI: 10.1063/1.4986522 and 10.1088/1361-648X/ac2ad2               %
     %    use with input_dft = 'vdW-DF-cx0'    and 'vdW-DF-ahcx'            %
     %  * Unscreened and range-separated hybrid vdW-DF2-b86r functionals    %
     %    DOI: 10.1063/1.4986522 and DOI: 10.1103/PhysRevX.12.041003        %
     %    use with input_dft = 'vdW-DF2-br0' and 'vdW-DF2-ahbr'             %
     %                                                                      %
     %%%%%%%%%%%%%%%%%%%%%%%%%%%%%%%%%%%%%%%%%%%%%%%%%%%%%%%%%%%%%%%%%%%%%%%%


     Reading collected, re-writing distributed wavefunctions
     high-symmetry point:  0.0000 0.0000 0.0000   x coordinate   0.0000
     high-symmetry point: -0.3333 0.5774 0.0000   x coordinate   0.6667
     high-symmetry point:  0.0000 0.5774 0.0000   x coordinate   1.0000
     high-symmetry point:  0.0000 0.0000 0.0000   x coordinate   1.5773

     Plottable bands (eV) written to file Bande_C2L_AB_PBE_vdW.dat.gnu
     Bands written to file Bande_C2L_AB_PBE_vdW.dat

 **************************************************************************

                    xk=(   0.00000,   0.00000,   0.00000  )

     point group C_3v (3m)  
     there are  3 classes
     the character table:

       E     2C3   3s_v 
A_1    1.00  1.00  1.00
A_2    1.00  1.00 -1.00
E      2.00 -1.00  0.00

     the symmetry operations in each class and the name of the first element:

     E        1
                                                                 
     2C3      2    3
                                                                 
     3s_v     4    5    6
                                                                 

     Band symmetry, C_3v (3m)   point group:

     e(  1 -  1) =    -20.15575  eV     1   --> A_1  L_1       
     e(  2 -  2) =    -19.97888  eV     1   --> A_1  L_1       
     e(  3 -  3) =     -8.72430  eV     1   --> A_1  L_1       
     e(  4 -  4) =     -7.64825  eV     1   --> A_1  L_1       
     e(  5 -  6) =     -3.65146  eV     2   --> E    L_3       
     e(  7 -  8) =     -3.61173  eV     2   --> E    L_3       
     e(  9 -  9) =      2.56172  eV     1   --> A_1  L_1       
     e( 10 - 10) =      2.98468  eV     1   --> A_1  L_1       
     e( 11 - 11) =      4.05340  eV     1   --> A_1  L_1       
     e( 12 - 12) =      5.19090  eV     1   --> A_1  L_1       
     e( 13 - 13) =      5.64564  eV     1   --> A_1  L_1       
     e( 14 - 14) =      7.48296  eV     1   --> A_1  L_1       
     e( 15 - 16) =      7.81561  eV     2   --> E    L_3       

 **************************************************************************

 **************************************************************************

                    xk=(  -0.01587,   0.02749,   0.00000  )

     point group C_1 (1)    
     there are  1 classes
     the character table:

       E    
A      1.00

     the symmetry operations in each class and the name of the first element:

     E        1
                                                                 

     Band symmetry, C_1 (1)     point group:

     e(  1 -  1) =    -20.13775  eV     1   --> A              
     e(  2 -  2) =    -19.96110  eV     1   --> A              
     e(  3 -  3) =     -8.70230  eV     1   --> A              
     e(  4 -  4) =     -7.62720  eV     1   --> A              
     e(  5 -  5) =     -3.72557  eV     1   --> A              
     e(  6 -  6) =     -3.69139  eV     1   --> A              
     e(  7 -  7) =     -3.68505  eV     1   --> A              
     e(  8 -  8) =     -3.65103  eV     1   --> A              
     e(  9 -  9) =      2.58569  eV     1   --> A              
     e( 10 - 10) =      3.00884  eV     1   --> A              
     e( 11 - 11) =      4.07803  eV     1   --> A              
     e( 12 - 12) =      5.21536  eV     1   --> A              
     e( 13 - 13) =      5.66851  eV     1   --> A              
     e( 14 - 14) =      7.50439  eV     1   --> A              
     e( 15 - 15) =      7.82651  eV     1   --> A              
     e( 16 - 16) =      7.88994  eV     1   --> A              

 **************************************************************************

 **************************************************************************

                    xk=(  -0.03175,   0.05499,   0.00000  )

     Band symmetry, C_1 (1)     point group:

     e(  1 -  1) =    -20.08413  eV     1   --> A              
     e(  2 -  2) =    -19.90798  eV     1   --> A              
     e(  3 -  3) =     -8.63720  eV     1   --> A              
     e(  4 -  4) =     -7.56432  eV     1   --> A              
     e(  5 -  5) =     -3.94071  eV     1   --> A              
     e(  6 -  6) =     -3.90068  eV     1   --> A              
     e(  7 -  7) =     -3.80726  eV     1   --> A              
     e(  8 -  8) =     -3.76756  eV     1   --> A              
     e(  9 -  9) =      2.65756  eV     1   --> A              
     e( 10 - 10) =      3.08131  eV     1   --> A              
     e( 11 - 11) =      4.15193  eV     1   --> A              
     e( 12 - 12) =      5.28869  eV     1   --> A              
     e( 13 - 13) =      5.73699  eV     1   --> A              
     e( 14 - 14) =      7.56823  eV     1   --> A              
     e( 15 - 15) =      7.85766  eV     1   --> A              
     e( 16 - 16) =      7.91821  eV     1   --> A              

 **************************************************************************

 **************************************************************************

                    xk=(  -0.04762,   0.08248,   0.00000  )

     Band symmetry, C_1 (1)     point group:

     e(  1 -  1) =    -19.99474  eV     1   --> A              
     e(  2 -  2) =    -19.81948  eV     1   --> A              
     e(  3 -  3) =     -8.52862  eV     1   --> A              
     e(  4 -  4) =     -7.45930  eV     1   --> A              
     e(  5 -  5) =     -4.27559  eV     1   --> A              
     e(  6 -  6) =     -4.23480  eV     1   --> A              
     e(  7 -  7) =     -3.99810  eV     1   --> A              
     e(  8 -  8) =     -3.95816  eV     1   --> A              
     e(  9 -  9) =      2.77737  eV     1   --> A              
     e( 10 - 10) =      3.20209  eV     1   --> A              
     e( 11 - 11) =      4.27510  eV     1   --> A              
     e( 12 - 12) =      5.41091  eV     1   --> A              
     e( 13 - 13) =      5.85117  eV     1   --> A              
     e( 14 - 14) =      7.67409  eV     1   --> A              
     e( 15 - 15) =      7.91345  eV     1   --> A              
     e( 16 - 16) =      7.99051  eV     1   --> A              

 **************************************************************************

 **************************************************************************

                    xk=(  -0.06349,   0.10997,   0.00000  )

     Band symmetry, C_1 (1)     point group:

     e(  1 -  1) =    -19.86975  eV     1   --> A              
     e(  2 -  2) =    -19.69577  eV     1   --> A              
     e(  3 -  3) =     -8.37744  eV     1   --> A              
     e(  4 -  4) =     -7.31333  eV     1   --> A              
     e(  5 -  5) =     -4.70509  eV     1   --> A              
     e(  6 -  6) =     -4.66356  eV     1   --> A              
     e(  7 -  7) =     -4.25631  eV     1   --> A              
     e(  8 -  8) =     -4.21616  eV     1   --> A              
     e(  9 -  9) =      2.94512  eV     1   --> A              
     e( 10 - 10) =      3.37103  eV     1   --> A              
     e( 11 - 11) =      4.44755  eV     1   --> A              
     e( 12 - 12) =      5.58196  eV     1   --> A              
     e( 13 - 13) =      6.01095  eV     1   --> A              
     e( 14 - 14) =      7.82045  eV     1   --> A              
     e( 15 - 15) =      7.99786  eV     1   --> A              
     e( 16 - 16) =      8.09739  eV     1   --> A              

 **************************************************************************

 **************************************************************************

                    xk=(  -0.07936,   0.13746,   0.00000  )

     Band symmetry, C_1 (1)     point group:

     e(  1 -  1) =    -19.70927  eV     1   --> A              
     e(  2 -  2) =    -19.53694  eV     1   --> A              
     e(  3 -  3) =     -8.18355  eV     1   --> A              
     e(  4 -  4) =     -7.12608  eV     1   --> A              
     e(  5 -  5) =     -5.20366  eV     1   --> A              
     e(  6 -  6) =     -5.16109  eV     1   --> A              
     e(  7 -  7) =     -4.57549  eV     1   --> A              
     e(  8 -  8) =     -4.53503  eV     1   --> A              
     e(  9 -  9) =      3.16079  eV     1   --> A              
     e( 10 - 10) =      3.58809  eV     1   --> A              
     e( 11 - 11) =      4.66929  eV     1   --> A              
     e( 12 - 12) =      5.80182  eV     1   --> A              
     e( 13 - 13) =      6.21629  eV     1   --> A              
     e( 14 - 14) =      8.00521  eV     1   --> A              
     e( 15 - 15) =      8.11583  eV     1   --> A              
     e( 16 - 16) =      8.24283  eV     1   --> A              

 **************************************************************************

 **************************************************************************

                    xk=(  -0.09524,   0.16496,   0.00000  )

     Band symmetry, C_1 (1)     point group:

     e(  1 -  1) =    -19.51353  eV     1   --> A              
     e(  2 -  2) =    -19.34325  eV     1   --> A              
     e(  3 -  3) =     -7.94775  eV     1   --> A              
     e(  4 -  4) =     -6.89895  eV     1   --> A              
     e(  5 -  5) =     -5.74901  eV     1   --> A              
     e(  6 -  6) =     -5.70540  eV     1   --> A              
     e(  7 -  7) =     -4.94646  eV     1   --> A              
     e(  8 -  8) =     -4.90560  eV     1   --> A              
     e(  9 -  9) =      3.42434  eV     1   --> A              
     e( 10 - 10) =      3.85304  eV     1   --> A              
     e( 11 - 11) =      4.94029  eV     1   --> A              
     e( 12 - 12) =      6.07038  eV     1   --> A              
     e( 13 - 13) =      6.46681  eV     1   --> A              
     e( 14 - 14) =      8.22134  eV     1   --> A              
     e( 15 - 15) =      8.26576  eV     1   --> A              
     e( 16 - 16) =      8.41936  eV     1   --> A              

 **************************************************************************

 **************************************************************************

                    xk=(  -0.11111,   0.19245,   0.00000  )

     Band symmetry, C_1 (1)     point group:

     e(  1 -  1) =    -19.28279  eV     1   --> A              
     e(  2 -  2) =    -19.11484  eV     1   --> A              
     e(  3 -  3) =     -7.67054  eV     1   --> A              
     e(  4 -  4) =     -6.63259  eV     1   --> A              
     e(  5 -  5) =     -6.32222  eV     1   --> A              
     e(  6 -  6) =     -6.27743  eV     1   --> A              
     e(  7 -  7) =     -5.36018  eV     1   --> A              
     e(  8 -  8) =     -5.31867  eV     1   --> A              
     e(  9 -  9) =      3.73564  eV     1   --> A              
     e( 10 - 10) =      4.16565  eV     1   --> A              
     e( 11 - 11) =      5.26052  eV     1   --> A              
     e( 12 - 12) =      6.38748  eV     1   --> A              
     e( 13 - 13) =      6.76198  eV     1   --> A              
     e( 14 - 14) =      8.07875  eV     1   --> A              
     e( 15 - 15) =      8.26547  eV     1   --> A              
     e( 16 - 16) =      8.48030  eV     1   --> A              

 **************************************************************************

 **************************************************************************

                    xk=(  -0.12698,   0.21994,   0.00000  )

     Band symmetry, C_1 (1)     point group:

     e(  1 -  1) =    -19.01737  eV     1   --> A              
     e(  2 -  2) =    -18.85214  eV     1   --> A              
     e(  3 -  3) =     -7.35271  eV     1   --> A              
     e(  4 -  4) =     -6.90975  eV     1   --> A              
     e(  5 -  5) =     -6.86390  eV     1   --> A              
     e(  6 -  6) =     -6.32708  eV     1   --> A              
     e(  7 -  7) =     -5.80731  eV     1   --> A              
     e(  8 -  8) =     -5.76512  eV     1   --> A              
     e(  9 -  9) =      4.09452  eV     1   --> A              
     e( 10 - 10) =      4.52559  eV     1   --> A              
     e( 11 - 11) =      5.62992  eV     1   --> A              
     e( 12 - 12) =      6.75284  eV     1   --> A              
     e( 13 - 13) =      7.10080  eV     1   --> A              
     e( 14 - 14) =      7.41909  eV     1   --> A              
     e( 15 - 15) =      7.64969  eV     1   --> A              
     e( 16 - 16) =      8.70768  eV     1   --> A              

 **************************************************************************

 **************************************************************************

                    xk=(  -0.14286,   0.24744,   0.00000  )

     Band symmetry, C_1 (1)     point group:

     e(  1 -  1) =    -18.71791  eV     1   --> A              
     e(  2 -  2) =    -18.55596  eV     1   --> A              
     e(  3 -  3) =     -7.50102  eV     1   --> A              
     e(  4 -  4) =     -7.45370  eV     1   --> A              
     e(  5 -  5) =     -6.99568  eV     1   --> A              
     e(  6 -  6) =     -6.27940  eV     1   --> A              
     e(  7 -  7) =     -6.23633  eV     1   --> A              
     e(  8 -  8) =     -5.98556  eV     1   --> A              
     e(  9 -  9) =      4.50068  eV     1   --> A              
     e( 10 - 10) =      4.93217  eV     1   --> A              
     e( 11 - 11) =      6.04836  eV     1   --> A              
     e( 12 - 12) =      6.72506  eV     1   --> A              
     e( 13 - 13) =      6.97328  eV     1   --> A              
     e( 14 - 14) =      7.16839  eV     1   --> A              
     e( 15 - 15) =      7.48129  eV     1   --> A              
     e( 16 - 16) =      8.97498  eV     1   --> A              

 **************************************************************************

 **************************************************************************

                    xk=(  -0.15873,   0.27493,   0.00000  )

     Band symmetry, C_1 (1)     point group:

     e(  1 -  1) =    -18.38474  eV     1   --> A              
     e(  2 -  2) =    -18.22606  eV     1   --> A              
     e(  3 -  3) =     -8.08759  eV     1   --> A              
     e(  4 -  4) =     -8.03897  eV     1   --> A              
     e(  5 -  5) =     -6.76770  eV     1   --> A              
     e(  6 -  6) =     -6.72366  eV     1   --> A              
     e(  7 -  7) =     -6.60061  eV     1   --> A              
     e(  8 -  8) =     -5.60821  eV     1   --> A              
     e(  9 -  9) =      4.95374  eV     1   --> A              
     e( 10 - 10) =      5.38450  eV     1   --> A              
     e( 11 - 11) =      6.01438  eV     1   --> A              
     e( 12 - 12) =      6.28139  eV     1   --> A              
     e( 13 - 13) =      6.51576  eV     1   --> A              
     e( 14 - 14) =      7.62800  eV     1   --> A              
     e( 15 - 15) =      7.90096  eV     1   --> A              
     e( 16 - 16) =      9.28228  eV     1   --> A              

 **************************************************************************

 **************************************************************************

                    xk=(  -0.17460,   0.30242,   0.00000  )

     Band symmetry, C_1 (1)     point group:

     e(  1 -  1) =    -18.01862  eV     1   --> A              
     e(  2 -  2) =    -17.86365  eV     1   --> A              
     e(  3 -  3) =     -8.66362  eV     1   --> A              
     e(  4 -  4) =     -8.61355  eV     1   --> A              
     e(  5 -  5) =     -7.26469  eV     1   --> A              
     e(  6 -  6) =     -7.21948  eV     1   --> A              
     e(  7 -  7) =     -6.16947  eV     1   --> A              
     e(  8 -  8) =     -5.19818  eV     1   --> A              
     e(  9 -  9) =      5.29672  eV     1   --> A              
     e( 10 - 10) =      5.45543  eV     1   --> A              
     e( 11 - 11) =      5.57879  eV     1   --> A              
     e( 12 - 12) =      5.88562  eV     1   --> A              
     e( 13 - 13) =      7.03171  eV     1   --> A              
     e( 14 - 14) =      8.13550  eV     1   --> A              
     e( 15 - 15) =      8.35479  eV     1   --> A              
     e( 16 - 16) =      9.62416  eV     1   --> A              

 **************************************************************************

 **************************************************************************

                    xk=(  -0.19047,   0.32992,   0.00000  )

     Band symmetry, C_1 (1)     point group:

     e(  1 -  1) =    -17.62023  eV     1   --> A              
     e(  2 -  2) =    -17.46938  eV     1   --> A              
     e(  3 -  3) =     -9.22483  eV     1   --> A              
     e(  4 -  4) =     -9.17316  eV     1   --> A              
     e(  5 -  5) =     -7.76360  eV     1   --> A              
     e(  6 -  6) =     -7.71726  eV     1   --> A              
     e(  7 -  7) =     -5.70387  eV     1   --> A              
     e(  8 -  8) =     -4.75774  eV     1   --> A              
     e(  9 -  9) =      4.58694  eV     1   --> A              
     e( 10 - 10) =      4.88428  eV     1   --> A              
     e( 11 - 11) =      5.99944  eV     1   --> A              
     e( 12 - 12) =      6.42424  eV     1   --> A              
     e( 13 - 13) =      7.59577  eV     1   --> A              
     e( 14 - 14) =      8.68805  eV     1   --> A              
     e( 15 - 15) =      8.83444  eV     1   --> A              
     e( 16 - 16) =      9.99546  eV     1   --> A              

 **************************************************************************

 **************************************************************************

                    xk=(  -0.20635,   0.35741,   0.00000  )

     Band symmetry, C_1 (1)     point group:

     e(  1 -  1) =    -17.19101  eV     1   --> A              
     e(  2 -  2) =    -17.04438  eV     1   --> A              
     e(  3 -  3) =     -9.76697  eV     1   --> A              
     e(  4 -  4) =     -9.71363  eV     1   --> A              
     e(  5 -  5) =     -8.25773  eV     1   --> A              
     e(  6 -  6) =     -8.21040  eV     1   --> A              
     e(  7 -  7) =     -5.20685  eV     1   --> A              
     e(  8 -  8) =     -4.29078  eV     1   --> A              
     e(  9 -  9) =      3.88743  eV     1   --> A              
     e( 10 - 10) =      4.19846  eV     1   --> A              
     e( 11 - 11) =      6.58971  eV     1   --> A              
     e( 12 - 12) =      7.00462  eV     1   --> A              
     e( 13 - 13) =      8.20684  eV     1   --> A              
     e( 14 - 14) =      9.28225  eV     1   --> A              
     e( 15 - 15) =      9.32337  eV     1   --> A              
     e( 16 - 16) =     10.38952  eV     1   --> A              

 **************************************************************************

 **************************************************************************

                    xk=(  -0.22222,   0.38490,   0.00000  )

     Band symmetry, C_1 (1)     point group:

     e(  1 -  1) =    -16.73237  eV     1   --> A              
     e(  2 -  2) =    -16.59028  eV     1   --> A              
     e(  3 -  3) =    -10.28789  eV     1   --> A              
     e(  4 -  4) =    -10.23286  eV     1   --> A              
     e(  5 -  5) =     -8.74158  eV     1   --> A              
     e(  6 -  6) =     -8.69312  eV     1   --> A              
     e(  7 -  7) =     -4.68185  eV     1   --> A              
     e(  8 -  8) =     -3.80154  eV     1   --> A              
     e(  9 -  9) =      3.20516  eV     1   --> A              
     e( 10 - 10) =      3.52874  eV     1   --> A              
     e( 11 - 11) =      7.22349  eV     1   --> A              
     e( 12 - 12) =      7.61934  eV     1   --> A              
     e( 13 - 13) =      8.86209  eV     1   --> A              
     e( 14 - 14) =      9.78945  eV     1   --> A              
     e( 15 - 15) =      9.90996  eV     1   --> A              
     e( 16 - 16) =     10.79636  eV     1   --> A              

 **************************************************************************

 **************************************************************************

                    xk=(  -0.23809,   0.41239,   0.00000  )

     Band symmetry, C_1 (1)     point group:

     e(  1 -  1) =    -16.24623  eV     1   --> A              
     e(  2 -  2) =    -16.10910  eV     1   --> A              
     e(  3 -  3) =    -10.78511  eV     1   --> A              
     e(  4 -  4) =    -10.72838  eV     1   --> A              
     e(  5 -  5) =     -9.20907  eV     1   --> A              
     e(  6 -  6) =     -9.15987  eV     1   --> A              
     e(  7 -  7) =     -4.13314  eV     1   --> A              
     e(  8 -  8) =     -3.29457  eV     1   --> A              
     e(  9 -  9) =      2.54524  eV     1   --> A              
     e( 10 - 10) =      2.87941  eV     1   --> A              
     e( 11 - 11) =      7.89846  eV     1   --> A              
     e( 12 - 12) =      8.25681  eV     1   --> A              
     e( 13 - 13) =      9.54948  eV     1   --> A              
     e( 14 - 14) =     10.17892  eV     1   --> A              
     e( 15 - 15) =     10.54476  eV     1   --> A              
     e( 16 - 16) =     11.20385  eV     1   --> A              

 **************************************************************************

 **************************************************************************

                    xk=(  -0.25397,   0.43989,   0.00000  )

     Band symmetry, C_1 (1)     point group:

     e(  1 -  1) =    -15.73586  eV     1   --> A              
     e(  2 -  2) =    -15.60430  eV     1   --> A              
     e(  3 -  3) =    -11.25723  eV     1   --> A              
     e(  4 -  4) =    -11.19888  eV     1   --> A              
     e(  5 -  5) =     -9.65566  eV     1   --> A              
     e(  6 -  6) =     -9.60568  eV     1   --> A              
     e(  7 -  7) =     -3.56725  eV     1   --> A              
     e(  8 -  8) =     -2.77811  eV     1   --> A              
     e(  9 -  9) =      1.91215  eV     1   --> A              
     e( 10 - 10) =      2.25640  eV     1   --> A              
     e( 11 - 11) =      8.61083  eV     1   --> A              
     e( 12 - 12) =      8.88985  eV     1   --> A              
     e( 13 - 13) =     10.14994  eV     1   --> A              
     e( 14 - 14) =     10.52868  eV     1   --> A              
     e( 15 - 15) =     11.07799  eV     1   --> A              
     e( 16 - 16) =     11.62555  eV     1   --> A              

 **************************************************************************

 **************************************************************************

                    xk=(  -0.26984,   0.46738,   0.00000  )

     Band symmetry, C_1 (1)     point group:

     e(  1 -  1) =    -15.20577  eV     1   --> A              
     e(  2 -  2) =    -15.08046  eV     1   --> A              
     e(  3 -  3) =    -11.70283  eV     1   --> A              
     e(  4 -  4) =    -11.64287  eV     1   --> A              
     e(  5 -  5) =    -10.07455  eV     1   --> A              
     e(  6 -  6) =    -10.02416  eV     1   --> A              
     e(  7 -  7) =     -2.98995  eV     1   --> A              
     e(  8 -  8) =     -2.26017  eV     1   --> A              
     e(  9 -  9) =      1.30955  eV     1   --> A              
     e( 10 - 10) =      1.66328  eV     1   --> A              
     e( 11 - 11) =      9.35289  eV     1   --> A              
     e( 12 - 12) =      9.45058  eV     1   --> A              
     e( 13 - 13) =     10.27857  eV     1   --> A              
     e( 14 - 14) =     11.20615  eV     1   --> A              
     e( 15 - 15) =     11.33988  eV     1   --> A              
     e( 16 - 16) =     11.90645  eV     1   --> A              

 **************************************************************************

 **************************************************************************

                    xk=(  -0.28571,   0.49487,   0.00000  )

     Band symmetry, C_1 (1)     point group:

     e(  1 -  1) =    -14.66368  eV     1   --> A              
     e(  2 -  2) =    -14.54640  eV     1   --> A              
     e(  3 -  3) =    -12.12151  eV     1   --> A              
     e(  4 -  4) =    -12.05978  eV     1   --> A              
     e(  5 -  5) =    -10.45622  eV     1   --> A              
     e(  6 -  6) =    -10.40629  eV     1   --> A              
     e(  7 -  7) =     -2.41112  eV     1   --> A              
     e(  8 -  8) =     -1.75153  eV     1   --> A              
     e(  9 -  9) =      0.73999  eV     1   --> A              
     e( 10 - 10) =      1.10223  eV     1   --> A              
     e( 11 - 11) =      9.79697  eV     1   --> A              
     e( 12 - 12) =     10.11547  eV     1   --> A              
     e( 13 - 13) =     10.19165  eV     1   --> A              
     e( 14 - 14) =     11.59393  eV     1   --> A              
     e( 15 - 15) =     11.96476  eV     1   --> A              
     e( 16 - 16) =     12.11032  eV     1   --> A              

 **************************************************************************

 **************************************************************************

                    xk=(  -0.30158,   0.52237,   0.00000  )

     Band symmetry, C_1 (1)     point group:

     e(  1 -  1) =    -14.12447  eV     1   --> A              
     e(  2 -  2) =    -14.01756  eV     1   --> A              
     e(  3 -  3) =    -12.51165  eV     1   --> A              
     e(  4 -  4) =    -12.44825  eV     1   --> A              
     e(  5 -  5) =    -10.78522  eV     1   --> A              
     e(  6 -  6) =    -10.73745  eV     1   --> A              
     e(  7 -  7) =     -1.84315  eV     1   --> A              
     e(  8 -  8) =     -1.26590  eV     1   --> A              
     e(  9 -  9) =      0.20824  eV     1   --> A              
     e( 10 - 10) =      0.57876  eV     1   --> A              
     e( 11 - 11) =      9.88683  eV     1   --> A              
     e( 12 - 12) =     10.05277  eV     1   --> A              
     e( 13 - 13) =     10.86932  eV     1   --> A              
     e( 14 - 14) =     12.07952  eV     1   --> A              
     e( 15 - 15) =     12.09434  eV     1   --> A              
     e( 16 - 16) =     12.35066  eV     1   --> A              

 **************************************************************************

 **************************************************************************

                    xk=(  -0.31746,   0.54986,   0.00000  )

     Band symmetry, C_1 (1)     point group:

     e(  1 -  1) =    -13.61821  eV     1   --> A              
     e(  2 -  2) =    -13.52676  eV     1   --> A              
     e(  3 -  3) =    -12.87306  eV     1   --> A              
     e(  4 -  4) =    -12.80815  eV     1   --> A              
     e(  5 -  5) =    -11.03097  eV     1   --> A              
     e(  6 -  6) =    -10.98829  eV     1   --> A              
     e(  7 -  7) =     -1.30627  eV     1   --> A              
     e(  8 -  8) =     -0.82845  eV     1   --> A              
     e(  9 -  9) =     -0.27652  eV     1   --> A              
     e( 10 - 10) =      0.10477  eV     1   --> A              
     e( 11 - 11) =      9.86685  eV     1   --> A              
     e( 12 - 12) =      9.93464  eV     1   --> A              
     e( 13 - 13) =     11.53766  eV     1   --> A              
     e( 14 - 14) =     12.09345  eV     1   --> A              
     e( 15 - 15) =     12.28988  eV     1   --> A              
     e( 16 - 16) =     12.70030  eV     1   --> A              

 **************************************************************************

 **************************************************************************

                    xk=(  -0.33333,   0.57735,   0.00000  )

     point group C_3 (3)    
     there are  3 classes
     the character table:

       E     C3    C3^2 
A      1.00  1.00  1.00
E      1.00 -0.50 -0.50
E*     1.00 -0.50 -0.50
     imaginary part
A      0.00  0.00  0.00
E      0.00  0.87 -0.87
E*     0.00 -0.87  0.87

     the symmetry operations in each class and the name of the first element:

     E        1
                                                                 
     C3       2
                                                                 
     C3^2     3
                                                                 

     Band symmetry, C_3 (3)     point group:

     e(  1 -  1) =    -13.23256  eV     1   --> A              
     e(  2 -  2) =    -13.19037  eV     1   --> E              
     e(  3 -  3) =    -13.15257  eV     1   --> E*             
     e(  4 -  4) =    -13.11631  eV     1   --> A              
     e(  5 -  5) =    -11.13172  eV     1   --> E*             
     e(  6 -  6) =    -11.09436  eV     1   --> E              
     e(  7 -  7) =     -0.94591  eV     1   --> A              
     e(  8 -  8) =     -0.59834  eV     1   --> E              
     e(  9 -  9) =     -0.56252  eV     1   --> E*             
     e( 10 - 10) =     -0.18907  eV     1   --> A              
     e( 11 - 11) =      9.85607  eV     1   --> E*             
     e( 12 - 12) =      9.87965  eV     1   --> E              
     e( 13 - 13) =     11.84978  eV     1   --> A              
     e( 14 - 14) =     12.16219  eV     1   --> E              
     e( 15 - 15) =     12.16568  eV     1   --> E*             
     e( 16 - 16) =     12.95818  eV     1   --> A              

 **************************************************************************

 **************************************************************************

                    xk=(  -0.30303,   0.57735,   0.00000  )

     point group C_1 (1)    
     there are  1 classes
     the character table:

       E    
A      1.00

     the symmetry operations in each class and the name of the first element:

     E        1
                                                                 

     Band symmetry, C_1 (1)     point group:

     e(  1 -  1) =    -13.49841  eV     1   --> A              
     e(  2 -  2) =    -13.43070  eV     1   --> A              
     e(  3 -  3) =    -12.98757  eV     1   --> A              
     e(  4 -  4) =    -12.94653  eV     1   --> A              
     e(  5 -  5) =    -11.01912  eV     1   --> A              
     e(  6 -  6) =    -10.97162  eV     1   --> A              
     e(  7 -  7) =     -1.21699  eV     1   --> A              
     e(  8 -  8) =     -0.84556  eV     1   --> A              
     e(  9 -  9) =     -0.26606  eV     1   --> A              
     e( 10 - 10) =      0.01677  eV     1   --> A              
     e( 11 - 11) =      9.87395  eV     1   --> A              
     e( 12 - 12) =      9.93419  eV     1   --> A              
     e( 13 - 13) =     11.73682  eV     1   --> A              
     e( 14 - 14) =     11.96837  eV     1   --> A              
     e( 15 - 15) =     12.20204  eV     1   --> A              
     e( 16 - 16) =     12.81147  eV     1   --> A              

 **************************************************************************

 **************************************************************************

                    xk=(  -0.27272,   0.57735,   0.00000  )

     Band symmetry, C_1 (1)     point group:

     e(  1 -  1) =    -13.76080  eV     1   --> A              
     e(  2 -  2) =    -13.69178  eV     1   --> A              
     e(  3 -  3) =    -12.97200  eV     1   --> A              
     e(  4 -  4) =    -12.93307  eV     1   --> A              
     e(  5 -  5) =    -10.68758  eV     1   --> A              
     e(  6 -  6) =    -10.62376  eV     1   --> A              
     e(  7 -  7) =     -1.57112  eV     1   --> A              
     e(  8 -  8) =     -1.19144  eV     1   --> A              
     e(  9 -  9) =      0.11289  eV     1   --> A              
     e( 10 - 10) =      0.28001  eV     1   --> A              
     e( 11 - 11) =      9.95699  eV     1   --> A              
     e( 12 - 12) =     10.07275  eV     1   --> A              
     e( 13 - 13) =     11.52945  eV     1   --> A              
     e( 14 - 14) =     11.73343  eV     1   --> A              
     e( 15 - 15) =     11.87927  eV     1   --> A              
     e( 16 - 16) =     12.44517  eV     1   --> A              

 **************************************************************************

 **************************************************************************

                    xk=(  -0.24242,   0.57735,   0.00000  )

     Band symmetry, C_1 (1)     point group:

     e(  1 -  1) =    -13.99659  eV     1   --> A              
     e(  2 -  2) =    -13.92645  eV     1   --> A              
     e(  3 -  3) =    -13.07241  eV     1   --> A              
     e(  4 -  4) =    -13.02579  eV     1   --> A              
     e(  5 -  5) =    -10.21283  eV     1   --> A              
     e(  6 -  6) =    -10.14153  eV     1   --> A              
     e(  7 -  7) =     -1.89827  eV     1   --> A              
     e(  8 -  8) =     -1.51321  eV     1   --> A              
     e(  9 -  9) =      0.43835  eV     1   --> A              
     e( 10 - 10) =      0.49911  eV     1   --> A              
     e( 11 - 11) =     10.09533  eV     1   --> A              
     e( 12 - 12) =     10.27460  eV     1   --> A              
     e( 13 - 13) =     11.17763  eV     1   --> A              
     e( 14 - 14) =     11.41845  eV     1   --> A              
     e( 15 - 15) =     11.47554  eV     1   --> A              
     e( 16 - 16) =     11.76555  eV     1   --> A              

 **************************************************************************

 **************************************************************************

                    xk=(  -0.21212,   0.57735,   0.00000  )

     Band symmetry, C_1 (1)     point group:

     e(  1 -  1) =    -14.20483  eV     1   --> A              
     e(  2 -  2) =    -14.13366  eV     1   --> A              
     e(  3 -  3) =    -13.21351  eV     1   --> A              
     e(  4 -  4) =    -13.16133  eV     1   --> A              
     e(  5 -  5) =     -9.67368  eV     1   --> A              
     e(  6 -  6) =     -9.60210  eV     1   --> A              
     e(  7 -  7) =     -2.19092  eV     1   --> A              
     e(  8 -  8) =     -1.80180  eV     1   --> A              
     e(  9 -  9) =      0.65153  eV     1   --> A              
     e( 10 - 10) =      0.71453  eV     1   --> A              
     e( 11 - 11) =     10.15187  eV     1   --> A              
     e( 12 - 12) =     10.44439  eV     1   --> A              
     e( 13 - 13) =     10.62616  eV     1   --> A              
     e( 14 - 14) =     10.95784  eV     1   --> A              
     e( 15 - 15) =     11.15436  eV     1   --> A              
     e( 16 - 16) =     11.27627  eV     1   --> A              

 **************************************************************************

 **************************************************************************

                    xk=(  -0.18182,   0.57735,   0.00000  )

     Band symmetry, C_1 (1)     point group:

     e(  1 -  1) =    -14.38577  eV     1   --> A              
     e(  2 -  2) =    -14.31359  eV     1   --> A              
     e(  3 -  3) =    -13.35967  eV     1   --> A              
     e(  4 -  4) =    -13.30403  eV     1   --> A              
     e(  5 -  5) =     -9.11799  eV     1   --> A              
     e(  6 -  6) =     -9.04922  eV     1   --> A              
     e(  7 -  7) =     -2.44617  eV     1   --> A              
     e(  8 -  8) =     -2.05419  eV     1   --> A              
     e(  9 -  9) =      0.76957  eV     1   --> A              
     e( 10 - 10) =      0.91757  eV     1   --> A              
     e( 11 - 11) =      9.59156  eV     1   --> A              
     e( 12 - 12) =      9.92976  eV     1   --> A              
     e( 13 - 13) =     10.61060  eV     1   --> A              
     e( 14 - 14) =     10.87581  eV     1   --> A              
     e( 15 - 15) =     10.94661  eV     1   --> A              
     e( 16 - 16) =     11.04982  eV     1   --> A              

 **************************************************************************

 **************************************************************************

                    xk=(  -0.15151,   0.57735,   0.00000  )

     Band symmetry, C_1 (1)     point group:

     e(  1 -  1) =    -14.53875  eV     1   --> A              
     e(  2 -  2) =    -14.46575  eV     1   --> A              
     e(  3 -  3) =    -13.49465  eV     1   --> A              
     e(  4 -  4) =    -13.43678  eV     1   --> A              
     e(  5 -  5) =     -8.57779  eV     1   --> A              
     e(  6 -  6) =     -8.51317  eV     1   --> A              
     e(  7 -  7) =     -2.66230  eV     1   --> A              
     e(  8 -  8) =     -2.26799  eV     1   --> A              
     e(  9 -  9) =      0.84672  eV     1   --> A              
     e( 10 - 10) =      1.06986  eV     1   --> A              
     e( 11 - 11) =      8.85966  eV     1   --> A              
     e( 12 - 12) =      9.15228  eV     1   --> A              
     e( 13 - 13) =     10.70382  eV     1   --> A              
     e( 14 - 14) =     10.79269  eV     1   --> A              
     e( 15 - 15) =     10.84763  eV     1   --> A              
     e( 16 - 16) =     11.02303  eV     1   --> A              

 **************************************************************************

 **************************************************************************

                    xk=(  -0.12121,   0.57735,   0.00000  )

     Band symmetry, C_1 (1)     point group:

     e(  1 -  1) =    -14.66412  eV     1   --> A              
     e(  2 -  2) =    -14.59033  eV     1   --> A              
     e(  3 -  3) =    -13.61087  eV     1   --> A              
     e(  4 -  4) =    -13.55140  eV     1   --> A              
     e(  5 -  5) =     -8.08005  eV     1   --> A              
     e(  6 -  6) =     -8.01979  eV     1   --> A              
     e(  7 -  7) =     -2.84022  eV     1   --> A              
     e(  8 -  8) =     -2.44395  eV     1   --> A              
     e(  9 -  9) =      0.89397  eV     1   --> A              
     e( 10 - 10) =      1.17727  eV     1   --> A              
     e( 11 - 11) =      8.17459  eV     1   --> A              
     e( 12 - 12) =      8.43819  eV     1   --> A              
     e( 13 - 13) =     10.58908  eV     1   --> A              
     e( 14 - 14) =     10.68336  eV     1   --> A              
     e( 15 - 15) =     10.82479  eV     1   --> A              
     e( 16 - 16) =     11.04100  eV     1   --> A              

 **************************************************************************

 **************************************************************************

                    xk=(  -0.09091,   0.57735,   0.00000  )

     Band symmetry, C_1 (1)     point group:

     e(  1 -  1) =    -14.76181  eV     1   --> A              
     e(  2 -  2) =    -14.68738  eV     1   --> A              
     e(  3 -  3) =    -13.70415  eV     1   --> A              
     e(  4 -  4) =    -13.64361  eV     1   --> A              
     e(  5 -  5) =     -7.65146  eV     1   --> A              
     e(  6 -  6) =     -7.59590  eV     1   --> A              
     e(  7 -  7) =     -2.97935  eV     1   --> A              
     e(  8 -  8) =     -2.58167  eV     1   --> A              
     e(  9 -  9) =      0.92119  eV     1   --> A              
     e( 10 - 10) =      1.24888  eV     1   --> A              
     e( 11 - 11) =      7.58873  eV     1   --> A              
     e( 12 - 12) =      7.83501  eV     1   --> A              
     e( 13 - 13) =     10.46861  eV     1   --> A              
     e( 14 - 14) =     10.55465  eV     1   --> A              
     e( 15 - 15) =     10.83562  eV     1   --> A              
     e( 16 - 16) =     10.98883  eV     1   --> A              

 **************************************************************************

 **************************************************************************

                    xk=(  -0.06061,   0.57735,   0.00000  )

     Band symmetry, C_1 (1)     point group:

     e(  1 -  1) =    -14.83158  eV     1   --> A              
     e(  2 -  2) =    -14.75674  eV     1   --> A              
     e(  3 -  3) =    -13.77234  eV     1   --> A              
     e(  4 -  4) =    -13.71109  eV     1   --> A              
     e(  5 -  5) =     -7.31867  eV     1   --> A              
     e(  6 -  6) =     -7.26655  eV     1   --> A              
     e(  7 -  7) =     -3.07874  eV     1   --> A              
     e(  8 -  8) =     -2.67989  eV     1   --> A              
     e(  9 -  9) =      0.93501  eV     1   --> A              
     e( 10 - 10) =      1.29404  eV     1   --> A              
     e( 11 - 11) =      7.13829  eV     1   --> A              
     e( 12 - 12) =      7.37509  eV     1   --> A              
     e( 13 - 13) =     10.37977  eV     1   --> A              
     e( 14 - 14) =     10.46112  eV     1   --> A              
     e( 15 - 15) =     10.82254  eV     1   --> A              
     e( 16 - 16) =     10.92734  eV     1   --> A              

 **************************************************************************

 **************************************************************************

                    xk=(  -0.03030,   0.57735,   0.00000  )

     Band symmetry, C_1 (1)     point group:

     e(  1 -  1) =    -14.87334  eV     1   --> A              
     e(  2 -  2) =    -14.79822  eV     1   --> A              
     e(  3 -  3) =    -13.81346  eV     1   --> A              
     e(  4 -  4) =    -13.75177  eV     1   --> A              
     e(  5 -  5) =     -7.10659  eV     1   --> A              
     e(  6 -  6) =     -7.05693  eV     1   --> A              
     e(  7 -  7) =     -3.13800  eV     1   --> A              
     e(  8 -  8) =     -2.73858  eV     1   --> A              
     e(  9 -  9) =      0.94189  eV     1   --> A              
     e( 10 - 10) =      1.31859  eV     1   --> A              
     e( 11 - 11) =      6.85402  eV     1   --> A              
     e( 12 - 12) =      7.08615  eV     1   --> A              
     e( 13 - 13) =     10.32580  eV     1   --> A              
     e( 14 - 14) =     10.40461  eV     1   --> A              
     e( 15 - 15) =     10.80671  eV     1   --> A              
     e( 16 - 16) =     10.88410  eV     1   --> A              

 **************************************************************************

 **************************************************************************

                    xk=(   0.00000,   0.57735,   0.00000  )

     point group C_s (m)    
     there are  2 classes
     the character table:

       E     s    
A'     1.00  1.00
A''    1.00 -1.00

     the symmetry operations in each class and the name of the first element:

     E        1
                                                                 
     s        2
                                                                 

     Band symmetry, C_s (m)     point group:

     e(  1 -  1) =    -14.88736  eV     1   --> A'             
     e(  2 -  2) =    -14.81214  eV     1   --> A'             
     e(  3 -  3) =    -13.82741  eV     1   --> A'             
     e(  4 -  4) =    -13.76555  eV     1   --> A'             
     e(  5 -  5) =     -7.03375  eV     1   --> A''            
     e(  6 -  6) =     -6.98478  eV     1   --> A''            
     e(  7 -  7) =     -3.15810  eV     1   --> A'             
     e(  8 -  8) =     -2.75845  eV     1   --> A'             
     e(  9 -  9) =      0.94330  eV     1   --> A'             
     e( 10 - 10) =      1.32626  eV     1   --> A'             
     e( 11 - 11) =      6.75658  eV     1   --> A'             
     e( 12 - 12) =      6.98737  eV     1   --> A'             
     e( 13 - 13) =     10.30766  eV     1   --> A'             
     e( 14 - 14) =     10.38563  eV     1   --> A'             
     e( 15 - 15) =     10.80019  eV     1   --> A'             
     e( 16 - 16) =     10.86879  eV     1   --> A'             

 **************************************************************************

 **************************************************************************

                    xk=(   0.00000,   0.54528,   0.00000  )

     Band symmetry, C_s (m)     point group:

     e(  1 -  1) =    -15.17053  eV     1   --> A'             
     e(  2 -  2) =    -15.05954  eV     1   --> A'             
     e(  3 -  3) =    -13.55148  eV     1   --> A'             
     e(  4 -  4) =    -13.45612  eV     1   --> A'             
     e(  5 -  5) =     -7.01523  eV     1   --> A''            
     e(  6 -  6) =     -6.96653  eV     1   --> A''            
     e(  7 -  7) =     -3.31594  eV     1   --> A'             
     e(  8 -  8) =     -2.82262  eV     1   --> A'             
     e(  9 -  9) =      1.05535  eV     1   --> A'             
     e( 10 - 10) =      1.49294  eV     1   --> A'             
     e( 11 - 11) =      6.76649  eV     1   --> A'             
     e( 12 - 12) =      6.99622  eV     1   --> A'             
     e( 13 - 13) =      9.53935  eV     1   --> A'             
     e( 14 - 14) =     10.02073  eV     1   --> A'             
     e( 15 - 15) =     11.18677  eV     1   --> A'             
     e( 16 - 16) =     11.26859  eV     1   --> A'             

 **************************************************************************

 **************************************************************************

                    xk=(   0.00000,   0.51320,   0.00000  )

     Band symmetry, C_s (m)     point group:

     e(  1 -  1) =    -15.66057  eV     1   --> A'             
     e(  2 -  2) =    -15.53314  eV     1   --> A'             
     e(  3 -  3) =    -12.99278  eV     1   --> A'             
     e(  4 -  4) =    -12.88925  eV     1   --> A'             
     e(  5 -  5) =     -6.96099  eV     1   --> A''            
     e(  6 -  6) =     -6.91224  eV     1   --> A''            
     e(  7 -  7) =     -3.69002  eV     1   --> A'             
     e(  8 -  8) =     -3.04511  eV     1   --> A'             
     e(  9 -  9) =      1.39708  eV     1   --> A'             
     e( 10 - 10) =      1.91558  eV     1   --> A'             
     e( 11 - 11) =      6.79581  eV     1   --> A'             
     e( 12 - 12) =      7.02210  eV     1   --> A'             
     e( 13 - 13) =      8.76685  eV     1   --> A'             
     e( 14 - 14) =      9.24365  eV     1   --> A'             
     e( 15 - 15) =     10.46634  eV     1   --> A'             
     e( 16 - 16) =     11.40510  eV     1   --> A'             

 **************************************************************************

 **************************************************************************

                    xk=(   0.00000,   0.48113,   0.00000  )

     Band symmetry, C_s (m)     point group:

     e(  1 -  1) =    -16.16875  eV     1   --> A'             
     e(  2 -  2) =    -16.03362  eV     1   --> A'             
     e(  3 -  3) =    -12.35284  eV     1   --> A'             
     e(  4 -  4) =    -12.25184  eV     1   --> A'             
     e(  5 -  5) =     -6.87096  eV     1   --> A''            
     e(  6 -  6) =     -6.82212  eV     1   --> A''            
     e(  7 -  7) =     -4.15941  eV     1   --> A'             
     e(  8 -  8) =     -3.39925  eV     1   --> A'             
     e(  9 -  9) =      1.92740  eV     1   --> A'             
     e( 10 - 10) =      2.48778  eV     1   --> A'             
     e( 11 - 11) =      6.84333  eV     1   --> A'             
     e( 12 - 12) =      7.06258  eV     1   --> A'             
     e( 13 - 13) =      8.03683  eV     1   --> A'             
     e( 14 - 14) =      8.50522  eV     1   --> A'             
     e( 15 - 15) =      9.69945  eV     1   --> A'             
     e( 16 - 16) =     10.78240  eV     1   --> A'             

 **************************************************************************

 **************************************************************************

                    xk=(   0.00000,   0.44905,   0.00000  )

     Band symmetry, C_s (m)     point group:

     e(  1 -  1) =    -16.66157  eV     1   --> A'             
     e(  2 -  2) =    -16.52055  eV     1   --> A'             
     e(  3 -  3) =    -11.67492  eV     1   --> A'             
     e(  4 -  4) =    -11.57817  eV     1   --> A'             
     e(  5 -  5) =     -6.74592  eV     1   --> A''            
     e(  6 -  6) =     -6.69709  eV     1   --> A''            
     e(  7 -  7) =     -4.66278  eV     1   --> A'             
     e(  8 -  8) =     -3.82417  eV     1   --> A'             
     e(  9 -  9) =      2.58046  eV     1   --> A'             
     e( 10 - 10) =      3.14598  eV     1   --> A'             
     e( 11 - 11) =      6.90104  eV     1   --> A'             
     e( 12 - 12) =      7.09403  eV     1   --> A'             
     e( 13 - 13) =      7.37829  eV     1   --> A'             
     e( 14 - 14) =      7.81189  eV     1   --> A'             
     e( 15 - 15) =      8.97797  eV     1   --> A'             
     e( 16 - 16) =     10.07492  eV     1   --> A'             

 **************************************************************************

 **************************************************************************

                    xk=(   0.00000,   0.41698,   0.00000  )

     Band symmetry, C_s (m)     point group:

     e(  1 -  1) =    -17.12930  eV     1   --> A'             
     e(  2 -  2) =    -16.98299  eV     1   --> A'             
     e(  3 -  3) =    -10.97190  eV     1   --> A'             
     e(  4 -  4) =    -10.88049  eV     1   --> A'             
     e(  5 -  5) =     -6.58752  eV     1   --> A''            
     e(  6 -  6) =     -6.53908  eV     1   --> A''            
     e(  7 -  7) =     -5.16873  eV     1   --> A'             
     e(  8 -  8) =     -4.27569  eV     1   --> A'             
     e(  9 -  9) =      3.30743  eV     1   --> A'             
     e( 10 - 10) =      3.85380  eV     1   --> A'             
     e( 11 - 11) =      6.65040  eV     1   --> A'             
     e( 12 - 12) =      6.97633  eV     1   --> A'             
     e( 13 - 13) =      7.17953  eV     1   --> A'             
     e( 14 - 14) =      7.23574  eV     1   --> A'             
     e( 15 - 15) =      8.30514  eV     1   --> A'             
     e( 16 - 16) =      9.40829  eV     1   --> A'             

 **************************************************************************

 **************************************************************************

                    xk=(   0.00000,   0.38490,   0.00000  )

     Band symmetry, C_s (m)     point group:

     e(  1 -  1) =    -17.56734  eV     1   --> A'             
     e(  2 -  2) =    -17.41665  eV     1   --> A'             
     e(  3 -  3) =    -10.25108  eV     1   --> A'             
     e(  4 -  4) =    -10.16541  eV     1   --> A'             
     e(  5 -  5) =     -6.39729  eV     1   --> A''            
     e(  6 -  6) =     -6.34905  eV     1   --> A''            
     e(  7 -  7) =     -5.65984  eV     1   --> A'             
     e(  8 -  8) =     -4.72745  eV     1   --> A'             
     e(  9 -  9) =      4.07475  eV     1   --> A'             
     e( 10 - 10) =      4.58828  eV     1   --> A'             
     e( 11 - 11) =      6.06474  eV     1   --> A'             
     e( 12 - 12) =      6.53592  eV     1   --> A'             
     e( 13 - 13) =      7.11753  eV     1   --> A'             
     e( 14 - 14) =      7.29407  eV     1   --> A'             
     e( 15 - 15) =      7.68752  eV     1   --> A'             
     e( 16 - 16) =      8.78979  eV     1   --> A'             

 **************************************************************************

 **************************************************************************

                    xk=(   0.00000,   0.35283,   0.00000  )

     Band symmetry, C_s (m)     point group:

     e(  1 -  1) =    -17.97402  eV     1   --> A'             
     e(  2 -  2) =    -17.81918  eV     1   --> A'             
     e(  3 -  3) =     -9.51861  eV     1   --> A'             
     e(  4 -  4) =     -9.43841  eV     1   --> A'             
     e(  5 -  5) =     -6.17734  eV     1   --> A''            
     e(  6 -  6) =     -6.12952  eV     1   --> A''            
     e(  7 -  7) =     -6.12578  eV     1   --> A'             
     e(  8 -  8) =     -5.16289  eV     1   --> A'             
     e(  9 -  9) =      4.85100  eV     1   --> A'             
     e( 10 - 10) =      5.32454  eV     1   --> A'             
     e( 11 - 11) =      5.51926  eV     1   --> A'             
     e( 12 - 12) =      6.00149  eV     1   --> A'             
     e( 13 - 13) =      7.07554  eV     1   --> A'             
     e( 14 - 14) =      7.22958  eV     1   --> A'             
     e( 15 - 15) =      7.40747  eV     1   --> A'             
     e( 16 - 16) =      8.22139  eV     1   --> A'             

 **************************************************************************

 **************************************************************************

                    xk=(   0.00000,   0.32075,   0.00000  )

     Band symmetry, C_s (m)     point group:

     e(  1 -  1) =    -18.34784  eV     1   --> A'             
     e(  2 -  2) =    -18.18948  eV     1   --> A'             
     e(  3 -  3) =     -8.78035  eV     1   --> A'             
     e(  4 -  4) =     -8.70596  eV     1   --> A'             
     e(  5 -  5) =     -6.56143  eV     1   --> A'             
     e(  6 -  6) =     -5.93090  eV     1   --> A''            
     e(  7 -  7) =     -5.88375  eV     1   --> A''            
     e(  8 -  8) =     -5.57404  eV     1   --> A'             
     e(  9 -  9) =      4.99832  eV     1   --> A'             
     e( 10 - 10) =      5.34729  eV     1   --> A'             
     e( 11 - 11) =      5.77793  eV     1   --> A'             
     e( 12 - 12) =      6.09241  eV     1   --> A'             
     e( 13 - 13) =      6.56498  eV     1   --> A'             
     e( 14 - 14) =      7.33108  eV     1   --> A'             
     e( 15 - 15) =      7.47515  eV     1   --> A'             
     e( 16 - 16) =      7.71181  eV     1   --> A'             

 **************************************************************************

 **************************************************************************

                    xk=(   0.00000,   0.28868,   0.00000  )

     Band symmetry, C_s (m)     point group:

     e(  1 -  1) =    -18.68773  eV     1   --> A'             
     e(  2 -  2) =    -18.52595  eV     1   --> A'             
     e(  3 -  3) =     -8.04460  eV     1   --> A'             
     e(  4 -  4) =     -7.97504  eV     1   --> A'             
     e(  5 -  5) =     -6.96214  eV     1   --> A'             
     e(  6 -  6) =     -5.95452  eV     1   --> A'             
     e(  7 -  7) =     -5.66238  eV     1   --> A''            
     e(  8 -  8) =     -5.61583  eV     1   --> A''            
     e(  9 -  9) =      4.53871  eV     1   --> A'             
     e( 10 - 10) =      4.96160  eV     1   --> A'             
     e( 11 - 11) =      6.08754  eV     1   --> A'             
     e( 12 - 12) =      6.48507  eV     1   --> A'             
     e( 13 - 13) =      6.80271  eV     1   --> A'             
     e( 14 - 14) =      7.20574  eV     1   --> A'             
     e( 15 - 15) =      7.41832  eV     1   --> A'             
     e( 16 - 16) =      7.52202  eV     1   --> A'             

 **************************************************************************

 **************************************************************************

                    xk=(   0.00000,   0.25660,   0.00000  )

     Band symmetry, C_s (m)     point group:

     e(  1 -  1) =    -18.99370  eV     1   --> A'             
     e(  2 -  2) =    -18.82874  eV     1   --> A'             
     e(  3 -  3) =     -7.33076  eV     1   --> A'             
     e(  4 -  4) =     -7.31372  eV     1   --> A'             
     e(  5 -  5) =     -7.25459  eV     1   --> A'             
     e(  6 -  6) =     -6.30179  eV     1   --> A'             
     e(  7 -  7) =     -5.37713  eV     1   --> A''            
     e(  8 -  8) =     -5.33108  eV     1   --> A''            
     e(  9 -  9) =      4.12511  eV     1   --> A'             
     e( 10 - 10) =      4.55436  eV     1   --> A'             
     e( 11 - 11) =      5.66178  eV     1   --> A'             
     e( 12 - 12) =      6.77214  eV     1   --> A'             
     e( 13 - 13) =      7.06774  eV     1   --> A'             
     e( 14 - 14) =      7.26075  eV     1   --> A'             
     e( 15 - 15) =      7.51692  eV     1   --> A'             
     e( 16 - 16) =      7.66721  eV     1   --> A'             

 **************************************************************************

 **************************************************************************

                    xk=(   0.00000,   0.22453,   0.00000  )

     Band symmetry, C_s (m)     point group:

     e(  1 -  1) =    -19.26463  eV     1   --> A'             
     e(  2 -  2) =    -19.09693  eV     1   --> A'             
     e(  3 -  3) =     -7.64943  eV     1   --> A'             
     e(  4 -  4) =     -6.61710  eV     1   --> A'             
     e(  5 -  5) =     -6.60955  eV     1   --> A'             
     e(  6 -  6) =     -6.55444  eV     1   --> A'             
     e(  7 -  7) =     -5.08099  eV     1   --> A''            
     e(  8 -  8) =     -5.03574  eV     1   --> A''            
     e(  9 -  9) =      3.75936  eV     1   --> A'             
     e( 10 - 10) =      4.18910  eV     1   --> A'             
     e( 11 - 11) =      5.28521  eV     1   --> A'             
     e( 12 - 12) =      6.40989  eV     1   --> A'             
     e( 13 - 13) =      6.76996  eV     1   --> A'             
     e( 14 - 14) =      7.68833  eV     1   --> A'             
     e( 15 - 15) =      7.80818  eV     1   --> A'             
     e( 16 - 16) =      8.01531  eV     1   --> A'             

 **************************************************************************

 **************************************************************************

                    xk=(   0.00000,   0.19245,   0.00000  )

     Band symmetry, C_s (m)     point group:

     e(  1 -  1) =    -19.50024  eV     1   --> A'             
     e(  2 -  2) =    -19.33011  eV     1   --> A'             
     e(  3 -  3) =     -7.93207  eV     1   --> A'             
     e(  4 -  4) =     -6.88417  eV     1   --> A'             
     e(  5 -  5) =     -5.94340  eV     1   --> A'             
     e(  6 -  6) =     -5.88933  eV     1   --> A'             
     e(  7 -  7) =     -4.78288  eV     1   --> A''            
     e(  8 -  8) =     -4.73850  eV     1   --> A''            
     e(  9 -  9) =      3.44195  eV     1   --> A'             
     e( 10 - 10) =      3.87067  eV     1   --> A'             
     e( 11 - 11) =      4.95855  eV     1   --> A'             
     e( 12 - 12) =      6.08790  eV     1   --> A'             
     e( 13 - 13) =      6.47871  eV     1   --> A'             
     e( 14 - 14) =      7.77921  eV     1   --> A'             
     e( 15 - 15) =      7.88895  eV     1   --> A'             
     e( 16 - 16) =      8.30730  eV     1   --> A'             

 **************************************************************************

 **************************************************************************

                    xk=(   0.00000,   0.16038,   0.00000  )

     Band symmetry, C_s (m)     point group:

     e(  1 -  1) =    -19.69999  eV     1   --> A'             
     e(  2 -  2) =    -19.52773  eV     1   --> A'             
     e(  3 -  3) =     -8.17250  eV     1   --> A'             
     e(  4 -  4) =     -7.11570  eV     1   --> A'             
     e(  5 -  5) =     -5.32168  eV     1   --> A'             
     e(  6 -  6) =     -5.27217  eV     1   --> A'             
     e(  7 -  7) =     -4.49284  eV     1   --> A''            
     e(  8 -  8) =     -4.44937  eV     1   --> A''            
     e(  9 -  9) =      3.17313  eV     1   --> A'             
     e( 10 - 10) =      3.60049  eV     1   --> A'             
     e( 11 - 11) =      4.68204  eV     1   --> A'             
     e( 12 - 12) =      5.81429  eV     1   --> A'             
     e( 13 - 13) =      6.22644  eV     1   --> A'             
     e( 14 - 14) =      7.83776  eV     1   --> A'             
     e( 15 - 15) =      7.90591  eV     1   --> A'             
     e( 16 - 16) =      8.10096  eV     1   --> A'             

 **************************************************************************

 **************************************************************************

                    xk=(   0.00000,   0.12830,   0.00000  )

     Band symmetry, C_s (m)     point group:

     e(  1 -  1) =    -19.86382  eV     1   --> A'             
     e(  2 -  2) =    -19.68989  eV     1   --> A'             
     e(  3 -  3) =     -8.37038  eV     1   --> A'             
     e(  4 -  4) =     -7.30644  eV     1   --> A'             
     e(  5 -  5) =     -4.76770  eV     1   --> A'             
     e(  6 -  6) =     -4.72205  eV     1   --> A'             
     e(  7 -  7) =     -4.22396  eV     1   --> A''            
     e(  8 -  8) =     -4.18157  eV     1   --> A''            
     e(  9 -  9) =      2.95305  eV     1   --> A'             
     e( 10 - 10) =      3.37904  eV     1   --> A'             
     e( 11 - 11) =      4.45574  eV     1   --> A'             
     e( 12 - 12) =      5.59004  eV     1   --> A'             
     e( 13 - 13) =      6.01809  eV     1   --> A'             
     e( 14 - 14) =      7.80716  eV     1   --> A'             
     e( 15 - 15) =      7.87562  eV     1   --> A'             
     e( 16 - 16) =      7.99364  eV     1   --> A'             

 **************************************************************************

 **************************************************************************

                    xk=(   0.00000,   0.09623,   0.00000  )

     Band symmetry, C_s (m)     point group:

     e(  1 -  1) =    -19.99142  eV     1   --> A'             
     e(  2 -  2) =    -19.81619  eV     1   --> A'             
     e(  3 -  3) =     -8.52474  eV     1   --> A'             
     e(  4 -  4) =     -7.45559  eV     1   --> A'             
     e(  5 -  5) =     -4.30346  eV     1   --> A'             
     e(  6 -  6) =     -4.26075  eV     1   --> A'             
     e(  7 -  7) =     -3.99056  eV     1   --> A''            
     e(  8 -  8) =     -3.94906  eV     1   --> A''            
     e(  9 -  9) =      2.78185  eV     1   --> A'             
     e( 10 - 10) =      3.20660  eV     1   --> A'             
     e( 11 - 11) =      4.27971  eV     1   --> A'             
     e( 12 - 12) =      5.41547  eV     1   --> A'             
     e( 13 - 13) =      5.85534  eV     1   --> A'             
     e( 14 - 14) =      7.67582  eV     1   --> A'             
     e( 15 - 15) =      7.86929  eV     1   --> A'             
     e( 16 - 16) =      7.95083  eV     1   --> A'             

 **************************************************************************

 **************************************************************************

                    xk=(   0.00000,   0.06415,   0.00000  )

     Band symmetry, C_s (m)     point group:

     e(  1 -  1) =    -20.08263  eV     1   --> A'             
     e(  2 -  2) =    -19.90653  eV     1   --> A'             
     e(  3 -  3) =     -8.63545  eV     1   --> A'             
     e(  4 -  4) =     -7.56241  eV     1   --> A'             
     e(  5 -  5) =     -3.95041  eV     1   --> A'             
     e(  6 -  6) =     -3.90931  eV     1   --> A'             
     e(  7 -  7) =     -3.80839  eV     1   --> A''            
     e(  8 -  8) =     -3.76789  eV     1   --> A''            
     e(  9 -  9) =      2.65955  eV     1   --> A'             
     e( 10 - 10) =      3.08334  eV     1   --> A'             
     e( 11 - 11) =      4.15398  eV     1   --> A'             
     e( 12 - 12) =      5.29073  eV     1   --> A'             
     e( 13 - 13) =      5.73886  eV     1   --> A'             
     e( 14 - 14) =      7.56981  eV     1   --> A'             
     e( 15 - 15) =      7.84844  eV     1   --> A'             
     e( 16 - 16) =      7.91008  eV     1   --> A'             

 **************************************************************************

 **************************************************************************

                    xk=(   0.00000,   0.03208,   0.00000  )

     Band symmetry, C_s (m)     point group:

     e(  1 -  1) =    -20.13738  eV     1   --> A'             
     e(  2 -  2) =    -19.96075  eV     1   --> A'             
     e(  3 -  3) =     -8.70196  eV     1   --> A'             
     e(  4 -  4) =     -7.62677  eV     1   --> A'             
     e(  5 -  5) =     -3.72730  eV     1   --> A'             
     e(  6 -  6) =     -3.69143  eV     1   --> A''            
     e(  7 -  7) =     -3.68724  eV     1   --> A'             
     e(  8 -  8) =     -3.65153  eV     1   --> A''            
     e(  9 -  9) =      2.58619  eV     1   --> A'             
     e( 10 - 10) =      3.00934  eV     1   --> A'             
     e( 11 - 11) =      4.07855  eV     1   --> A'             
     e( 12 - 12) =      5.21587  eV     1   --> A'             
     e( 13 - 13) =      5.66897  eV     1   --> A'             
     e( 14 - 14) =      7.50478  eV     1   --> A'             
     e( 15 - 15) =      7.82598  eV     1   --> A'             
     e( 16 - 16) =      7.87740  eV     1   -->   ?

 **************************************************************************

 **************************************************************************

                    xk=(   0.00000,   0.00000,   0.00000  )

     point group C_3v (3m)  
     there are  3 classes
     the character table:

       E     2C3   3s_v 
A_1    1.00  1.00  1.00
A_2    1.00  1.00 -1.00
E      2.00 -1.00  0.00

     the symmetry operations in each class and the name of the first element:

     E        1
                                                                 
     2C3      2    3
                                                                 
     3s_v     4    5    6
                                                                 

     Band symmetry, C_3v (3m)   point group:

     e(  1 -  1) =    -20.15575  eV     1   --> A_1  L_1       
     e(  2 -  2) =    -19.97888  eV     1   --> A_1  L_1       
     e(  3 -  3) =     -8.72430  eV     1   --> A_1  L_1       
     e(  4 -  4) =     -7.64825  eV     1   --> A_1  L_1       
     e(  5 -  6) =     -3.65146  eV     2   --> E    L_3       
     e(  7 -  8) =     -3.61173  eV     2   --> E    L_3       
     e(  9 -  9) =      2.56172  eV     1   --> A_1  L_1       
     e( 10 - 10) =      2.98468  eV     1   --> A_1  L_1       
     e( 11 - 11) =      4.05340  eV     1   --> A_1  L_1       
     e( 12 - 12) =      5.19090  eV     1   --> A_1  L_1       
     e( 13 - 13) =      5.64564  eV     1   --> A_1  L_1       
     e( 14 - 14) =      7.48296  eV     1   --> A_1  L_1       
     e( 15 - 16) =      7.81561  eV     2   --> E    L_3       

 **************************************************************************

     BANDS        :     10.10s CPU     10.19s WALL


   This run was terminated on:  16:46:16   4Apr2024            

=------------------------------------------------------------------------------=
   JOB DONE.
=------------------------------------------------------------------------------=
