
     Program PWSCF v.7.2 starts on 15Apr2024 at 17:11:10 

     This program is part of the open-source Quantum ESPRESSO suite
     for quantum simulation of materials; please cite
         "P. Giannozzi et al., J. Phys.:Condens. Matter 21 395502 (2009);
         "P. Giannozzi et al., J. Phys.:Condens. Matter 29 465901 (2017);
         "P. Giannozzi et al., J. Chem. Phys. 152 154105 (2020);
          URL http://www.quantum-espresso.org", 
     in publications or presentations arising from this work. More details at
     http://www.quantum-espresso.org/quote

     Parallel version (MPI & OpenMP), running on       8 processor cores
     Number of MPI processes:                 8
     Threads/MPI process:                     1

     MPI processes distributed on     1 nodes
     0 MiB available memory on the printing compute node when the environment starts

     Waiting for input...
     Reading input from standard input
Warning: card &IONS ignored
Warning: card / ignored
Warning: card &CELL ignored
Warning: card CELL_DOFREE = 'ALL' ignored
Warning: card / ignored

     Current dimensions of program PWSCF are:
     Max number of different atomic species (ntypx) = 10
     Max number of k-points (npk) =  40000
     Max angular momentum in pseudopotentials (lmaxx) =  4

     Atomic positions and unit cell read from directory:
     ./tmp/C2L_AB_PBE_vdW.save/
     Atomic positions from file used, from input discarded


     IMPORTANT: XC functional enforced from input :
     Exchange-correlation= VDW-DF2-B86R
                           (   1   4  26   0   2   0   0)
     Any further DFT definition will be discarded
     Please, verify this is what you really want


     R & G space division:  proc/nbgrp/npool/nimage =       8
     Subspace diagonalization in iterative solution of the eigenvalue problem:
     a serial algorithm will be used


     Parallelization info
     --------------------
     sticks:   dense  smooth     PW     G-vecs:    dense   smooth      PW
     Min          45      45     13                 5519     5519     941
     Max          46      46     14                 5546     5546     968
     Sum         361     361    109                44285    44285    7663

     Using Slab Decomposition



     bravais-lattice index     =            4
     lattice parameter (alat)  =       4.6645  a.u.
     unit-cell volume          =     703.1169 (a.u.)^3
     number of atoms/cell      =            4
     number of atomic types    =            1
     number of electrons       =        16.00
     number of Kohn-Sham states=           16
     kinetic-energy cutoff     =      60.0000  Ry
     charge density cutoff     =     240.0000  Ry
     Exchange-correlation= VDW-DF2-B86R
                           (   1   4  26   0   2   0   0)

     celldm(1)=   4.664470  celldm(2)=   0.000000  celldm(3)=   8.000000
     celldm(4)=   0.000000  celldm(5)=   0.000000  celldm(6)=   0.000000

     crystal axes: (cart. coord. in units of alat)
               a(1) = (   1.000000   0.000000   0.000000 )  
               a(2) = (  -0.500000   0.866025   0.000000 )  
               a(3) = (   0.000000   0.000000   8.000000 )  

     reciprocal axes: (cart. coord. in units 2 pi/alat)
               b(1) = (  1.000000  0.577350 -0.000000 )  
               b(2) = (  0.000000  1.154701  0.000000 )  
               b(3) = (  0.000000 -0.000000  0.125000 )  


     PseudoPot. # 1 for C  read from file:
     ../../../../Pseudo/PBE/C.upf
     MD5 check sum: 34a24e64c0a39f27c6c36b90a16ac686
     Pseudo is Norm-conserving + core correction, Zval =  4.0
     Generated using ONCVPSP code by D. R. Hamann
     Using radial grid of 1248 points,  4 beta functions with: 
                l(1) =   0
                l(2) =   0
                l(3) =   1
                l(4) =   1

     atomic species   valence    mass     pseudopotential
        C              4.00    12.01100     C ( 1.00)

      6 Sym. Ops. (no inversion) found


                                    s                        frac. trans.

      isym =  1     identity                                     

 cryst.   s( 1) = (     1          0          0      )
                  (     0          1          0      )
                  (     0          0          1      )

 cart.    s( 1) = (  1.0000000  0.0000000  0.0000000 )
                  (  0.0000000  1.0000000  0.0000000 )
                  (  0.0000000  0.0000000  1.0000000 )


      isym =  2     120 deg rotation - cryst. axis [0,0,1]       

 cryst.   s( 2) = (     0          1          0      )
                  (    -1         -1          0      )
                  (     0          0          1      )

 cart.    s( 2) = ( -0.5000000 -0.8660254  0.0000000 )
                  (  0.8660254 -0.5000000  0.0000000 )
                  (  0.0000000  0.0000000  1.0000000 )


      isym =  3     120 deg rotation - cryst. axis [0,0,-1]      

 cryst.   s( 3) = (    -1         -1          0      )
                  (     1          0          0      )
                  (     0          0          1      )

 cart.    s( 3) = ( -0.5000000  0.8660254  0.0000000 )
                  ( -0.8660254 -0.5000000  0.0000000 )
                  (  0.0000000  0.0000000  1.0000000 )


      isym =  4     inv. 180 deg rotation - cart. axis [1,0,0]   

 cryst.   s( 4) = (    -1          0          0      )
                  (     1          1          0      )
                  (     0          0          1      )

 cart.    s( 4) = ( -1.0000000  0.0000000  0.0000000 )
                  (  0.0000000  1.0000000  0.0000000 )
                  (  0.0000000  0.0000000  1.0000000 )


      isym =  5     inv. 180 deg rotation - cryst. axis [0,1,0]  

 cryst.   s( 5) = (     1          1          0      )
                  (     0         -1          0      )
                  (     0          0          1      )

 cart.    s( 5) = (  0.5000000  0.8660254  0.0000000 )
                  (  0.8660254 -0.5000000  0.0000000 )
                  (  0.0000000  0.0000000  1.0000000 )


      isym =  6     inv. 180 deg rotation - cryst. axis [1,1,0]  

 cryst.   s( 6) = (     0         -1          0      )
                  (    -1          0          0      )
                  (     0          0          1      )

 cart.    s( 6) = (  0.5000000 -0.8660254  0.0000000 )
                  ( -0.8660254 -0.5000000  0.0000000 )
                  (  0.0000000  0.0000000  1.0000000 )


     point group C_3v (3m)  
     there are  3 classes
     the character table:

       E     2C3   3s_v 
A_1    1.00  1.00  1.00
A_2    1.00  1.00 -1.00
E      2.00 -1.00  0.00

     the symmetry operations in each class and the name of the first element:

     E        1
          identity                                               
     2C3      2    3
          120 deg rotation - cryst. axis [0,0,1]                 
     3s_v     4    5    6
          inv. 180 deg rotation - cart. axis [1,0,0]             

   Cartesian axes

     site n.     atom                  positions (alat units)
         1           C   tau(   1) = (   0.0000000   0.0000000   0.0000000  )
         2           C   tau(   2) = (   0.0000000   0.0000000   1.3401360  )
         3           C   tau(   3) = (   0.5000005   0.2886748   0.0000000  )
         4           C   tau(   4) = (  -0.0000005   0.5773506   1.3401360  )

   Crystallographic axes

     site n.     atom                  positions (cryst. coord.)
         1           C   tau(   1) = (  0.0000000  0.0000000  0.0000000  )
         2           C   tau(   2) = (  0.0000000  0.0000000  0.1675170  )
         3           C   tau(   3) = (  0.6666670  0.3333330  0.0000000  )
         4           C   tau(   4) = (  0.3333330  0.6666670  0.1675170  )

     number of k points=   151  Marzari-Vanderbilt smearing, width (Ry)=  0.0050
                       cart. coord. in units 2pi/alat
        k(    1) = (   0.0000000   0.0000000   0.0000000), wk =   0.0132450
        k(    2) = (  -0.0066666   0.0115471   0.0000000), wk =   0.0132450
        k(    3) = (  -0.0133332   0.0230941   0.0000000), wk =   0.0132450
        k(    4) = (  -0.0199998   0.0346412   0.0000000), wk =   0.0132450
        k(    5) = (  -0.0266664   0.0461882   0.0000000), wk =   0.0132450
        k(    6) = (  -0.0333330   0.0577353   0.0000000), wk =   0.0132450
        k(    7) = (  -0.0399996   0.0692823   0.0000000), wk =   0.0132450
        k(    8) = (  -0.0466662   0.0808294   0.0000000), wk =   0.0132450
        k(    9) = (  -0.0533328   0.0923764   0.0000000), wk =   0.0132450
        k(   10) = (  -0.0599994   0.1039235   0.0000000), wk =   0.0132450
        k(   11) = (  -0.0666660   0.1154705   0.0000000), wk =   0.0132450
        k(   12) = (  -0.0733326   0.1270176   0.0000000), wk =   0.0132450
        k(   13) = (  -0.0799992   0.1385646   0.0000000), wk =   0.0132450
        k(   14) = (  -0.0866658   0.1501117   0.0000000), wk =   0.0132450
        k(   15) = (  -0.0933324   0.1616587   0.0000000), wk =   0.0132450
        k(   16) = (  -0.0999990   0.1732058   0.0000000), wk =   0.0132450
        k(   17) = (  -0.1066656   0.1847528   0.0000000), wk =   0.0132450
        k(   18) = (  -0.1133322   0.1962999   0.0000000), wk =   0.0132450
        k(   19) = (  -0.1199988   0.2078469   0.0000000), wk =   0.0132450
        k(   20) = (  -0.1266654   0.2193940   0.0000000), wk =   0.0132450
        k(   21) = (  -0.1333320   0.2309410   0.0000000), wk =   0.0132450
        k(   22) = (  -0.1399986   0.2424881   0.0000000), wk =   0.0132450
        k(   23) = (  -0.1466652   0.2540351   0.0000000), wk =   0.0132450
        k(   24) = (  -0.1533318   0.2655822   0.0000000), wk =   0.0132450
        k(   25) = (  -0.1599984   0.2771292   0.0000000), wk =   0.0132450
        k(   26) = (  -0.1666650   0.2886763   0.0000000), wk =   0.0132450
        k(   27) = (  -0.1733316   0.3002233   0.0000000), wk =   0.0132450
        k(   28) = (  -0.1799982   0.3117704   0.0000000), wk =   0.0132450
        k(   29) = (  -0.1866648   0.3233174   0.0000000), wk =   0.0132450
        k(   30) = (  -0.1933314   0.3348645   0.0000000), wk =   0.0132450
        k(   31) = (  -0.1999980   0.3464115   0.0000000), wk =   0.0132450
        k(   32) = (  -0.2066646   0.3579586   0.0000000), wk =   0.0132450
        k(   33) = (  -0.2133312   0.3695057   0.0000000), wk =   0.0132450
        k(   34) = (  -0.2199978   0.3810527   0.0000000), wk =   0.0132450
        k(   35) = (  -0.2266644   0.3925998   0.0000000), wk =   0.0132450
        k(   36) = (  -0.2333310   0.4041468   0.0000000), wk =   0.0132450
        k(   37) = (  -0.2399976   0.4156939   0.0000000), wk =   0.0132450
        k(   38) = (  -0.2466642   0.4272409   0.0000000), wk =   0.0132450
        k(   39) = (  -0.2533308   0.4387880   0.0000000), wk =   0.0132450
        k(   40) = (  -0.2599974   0.4503350   0.0000000), wk =   0.0132450
        k(   41) = (  -0.2666640   0.4618821   0.0000000), wk =   0.0132450
        k(   42) = (  -0.2733306   0.4734291   0.0000000), wk =   0.0132450
        k(   43) = (  -0.2799972   0.4849762   0.0000000), wk =   0.0132450
        k(   44) = (  -0.2866638   0.4965232   0.0000000), wk =   0.0132450
        k(   45) = (  -0.2933304   0.5080703   0.0000000), wk =   0.0132450
        k(   46) = (  -0.2999970   0.5196173   0.0000000), wk =   0.0132450
        k(   47) = (  -0.3066636   0.5311644   0.0000000), wk =   0.0132450
        k(   48) = (  -0.3133302   0.5427114   0.0000000), wk =   0.0132450
        k(   49) = (  -0.3199968   0.5542585   0.0000000), wk =   0.0132450
        k(   50) = (  -0.3266634   0.5658055   0.0000000), wk =   0.0132450
        k(   51) = (  -0.3333300   0.5773526   0.0000000), wk =   0.0132450
        k(   52) = (  -0.3266634   0.5773525   0.0000000), wk =   0.0132450
        k(   53) = (  -0.3199968   0.5773525   0.0000000), wk =   0.0132450
        k(   54) = (  -0.3133302   0.5773524   0.0000000), wk =   0.0132450
        k(   55) = (  -0.3066636   0.5773524   0.0000000), wk =   0.0132450
        k(   56) = (  -0.2999970   0.5773523   0.0000000), wk =   0.0132450
        k(   57) = (  -0.2933304   0.5773523   0.0000000), wk =   0.0132450
        k(   58) = (  -0.2866638   0.5773523   0.0000000), wk =   0.0132450
        k(   59) = (  -0.2799972   0.5773522   0.0000000), wk =   0.0132450
        k(   60) = (  -0.2733306   0.5773522   0.0000000), wk =   0.0132450
        k(   61) = (  -0.2666640   0.5773521   0.0000000), wk =   0.0132450
        k(   62) = (  -0.2599974   0.5773521   0.0000000), wk =   0.0132450
        k(   63) = (  -0.2533308   0.5773520   0.0000000), wk =   0.0132450
        k(   64) = (  -0.2466642   0.5773520   0.0000000), wk =   0.0132450
        k(   65) = (  -0.2399976   0.5773519   0.0000000), wk =   0.0132450
        k(   66) = (  -0.2333310   0.5773519   0.0000000), wk =   0.0132450
        k(   67) = (  -0.2266644   0.5773518   0.0000000), wk =   0.0132450
        k(   68) = (  -0.2199978   0.5773518   0.0000000), wk =   0.0132450
        k(   69) = (  -0.2133312   0.5773517   0.0000000), wk =   0.0132450
        k(   70) = (  -0.2066646   0.5773517   0.0000000), wk =   0.0132450
        k(   71) = (  -0.1999980   0.5773517   0.0000000), wk =   0.0132450
        k(   72) = (  -0.1933314   0.5773516   0.0000000), wk =   0.0132450
        k(   73) = (  -0.1866648   0.5773516   0.0000000), wk =   0.0132450
        k(   74) = (  -0.1799982   0.5773515   0.0000000), wk =   0.0132450
        k(   75) = (  -0.1733316   0.5773515   0.0000000), wk =   0.0132450
        k(   76) = (  -0.1666650   0.5773514   0.0000000), wk =   0.0132450
        k(   77) = (  -0.1599984   0.5773514   0.0000000), wk =   0.0132450
        k(   78) = (  -0.1533318   0.5773513   0.0000000), wk =   0.0132450
        k(   79) = (  -0.1466652   0.5773513   0.0000000), wk =   0.0132450
        k(   80) = (  -0.1399986   0.5773512   0.0000000), wk =   0.0132450
        k(   81) = (  -0.1333320   0.5773512   0.0000000), wk =   0.0132450
        k(   82) = (  -0.1266654   0.5773511   0.0000000), wk =   0.0132450
        k(   83) = (  -0.1199988   0.5773511   0.0000000), wk =   0.0132450
        k(   84) = (  -0.1133322   0.5773511   0.0000000), wk =   0.0132450
        k(   85) = (  -0.1066656   0.5773510   0.0000000), wk =   0.0132450
        k(   86) = (  -0.0999990   0.5773510   0.0000000), wk =   0.0132450
        k(   87) = (  -0.0933324   0.5773509   0.0000000), wk =   0.0132450
        k(   88) = (  -0.0866658   0.5773509   0.0000000), wk =   0.0132450
        k(   89) = (  -0.0799992   0.5773508   0.0000000), wk =   0.0132450
        k(   90) = (  -0.0733326   0.5773508   0.0000000), wk =   0.0132450
        k(   91) = (  -0.0666660   0.5773507   0.0000000), wk =   0.0132450
        k(   92) = (  -0.0599994   0.5773507   0.0000000), wk =   0.0132450
        k(   93) = (  -0.0533328   0.5773506   0.0000000), wk =   0.0132450
        k(   94) = (  -0.0466662   0.5773506   0.0000000), wk =   0.0132450
        k(   95) = (  -0.0399996   0.5773505   0.0000000), wk =   0.0132450
        k(   96) = (  -0.0333330   0.5773505   0.0000000), wk =   0.0132450
        k(   97) = (  -0.0266664   0.5773505   0.0000000), wk =   0.0132450
        k(   98) = (  -0.0199998   0.5773504   0.0000000), wk =   0.0132450
        k(   99) = (  -0.0133332   0.5773504   0.0000000), wk =   0.0132450
        k(  100) = (  -0.0066666   0.5773503   0.0000000), wk =   0.0132450
        k(  101) = (   0.0000000   0.5773503   0.0000000), wk =   0.0132450
        k(  102) = (   0.0000000   0.5658033   0.0000000), wk =   0.0132450
        k(  103) = (   0.0000000   0.5542563   0.0000000), wk =   0.0132450
        k(  104) = (   0.0000000   0.5427093   0.0000000), wk =   0.0132450
        k(  105) = (   0.0000000   0.5311622   0.0000000), wk =   0.0132450
        k(  106) = (   0.0000000   0.5196152   0.0000000), wk =   0.0132450
        k(  107) = (   0.0000000   0.5080682   0.0000000), wk =   0.0132450
        k(  108) = (   0.0000000   0.4965212   0.0000000), wk =   0.0132450
        k(  109) = (   0.0000000   0.4849742   0.0000000), wk =   0.0132450
        k(  110) = (   0.0000000   0.4734272   0.0000000), wk =   0.0132450
        k(  111) = (   0.0000000   0.4618802   0.0000000), wk =   0.0132450
        k(  112) = (   0.0000000   0.4503332   0.0000000), wk =   0.0132450
        k(  113) = (   0.0000000   0.4387862   0.0000000), wk =   0.0132450
        k(  114) = (   0.0000000   0.4272392   0.0000000), wk =   0.0132450
        k(  115) = (   0.0000000   0.4156922   0.0000000), wk =   0.0132450
        k(  116) = (   0.0000000   0.4041452   0.0000000), wk =   0.0132450
        k(  117) = (   0.0000000   0.3925982   0.0000000), wk =   0.0132450
        k(  118) = (   0.0000000   0.3810512   0.0000000), wk =   0.0132450
        k(  119) = (   0.0000000   0.3695042   0.0000000), wk =   0.0132450
        k(  120) = (   0.0000000   0.3579572   0.0000000), wk =   0.0132450
        k(  121) = (   0.0000000   0.3464102   0.0000000), wk =   0.0132450
        k(  122) = (   0.0000000   0.3348632   0.0000000), wk =   0.0132450
        k(  123) = (   0.0000000   0.3233162   0.0000000), wk =   0.0132450
        k(  124) = (   0.0000000   0.3117691   0.0000000), wk =   0.0132450
        k(  125) = (   0.0000000   0.3002221   0.0000000), wk =   0.0132450
        k(  126) = (   0.0000000   0.2886751   0.0000000), wk =   0.0132450
        k(  127) = (   0.0000000   0.2771281   0.0000000), wk =   0.0132450
        k(  128) = (   0.0000000   0.2655811   0.0000000), wk =   0.0132450
        k(  129) = (   0.0000000   0.2540341   0.0000000), wk =   0.0132450
        k(  130) = (   0.0000000   0.2424871   0.0000000), wk =   0.0132450
        k(  131) = (   0.0000000   0.2309401   0.0000000), wk =   0.0132450
        k(  132) = (   0.0000000   0.2193931   0.0000000), wk =   0.0132450
        k(  133) = (   0.0000000   0.2078461   0.0000000), wk =   0.0132450
        k(  134) = (   0.0000000   0.1962991   0.0000000), wk =   0.0132450
        k(  135) = (   0.0000000   0.1847521   0.0000000), wk =   0.0132450
        k(  136) = (   0.0000000   0.1732051   0.0000000), wk =   0.0132450
        k(  137) = (   0.0000000   0.1616581   0.0000000), wk =   0.0132450
        k(  138) = (   0.0000000   0.1501111   0.0000000), wk =   0.0132450
        k(  139) = (   0.0000000   0.1385641   0.0000000), wk =   0.0132450
        k(  140) = (   0.0000000   0.1270171   0.0000000), wk =   0.0132450
        k(  141) = (   0.0000000   0.1154701   0.0000000), wk =   0.0132450
        k(  142) = (   0.0000000   0.1039230   0.0000000), wk =   0.0132450
        k(  143) = (   0.0000000   0.0923760   0.0000000), wk =   0.0132450
        k(  144) = (   0.0000000   0.0808290   0.0000000), wk =   0.0132450
        k(  145) = (   0.0000000   0.0692820   0.0000000), wk =   0.0132450
        k(  146) = (   0.0000000   0.0577350   0.0000000), wk =   0.0132450
        k(  147) = (   0.0000000   0.0461880   0.0000000), wk =   0.0132450
        k(  148) = (   0.0000000   0.0346410   0.0000000), wk =   0.0132450
        k(  149) = (   0.0000000   0.0230940   0.0000000), wk =   0.0132450
        k(  150) = (   0.0000000   0.0115470   0.0000000), wk =   0.0132450
        k(  151) = (   0.0000000   0.0000000   0.0000000), wk =   0.0132450

                       cryst. coord.
        k(    1) = (   0.0000000   0.0000000   0.0000000), wk =   0.0132450
        k(    2) = (  -0.0066666   0.0133333   0.0000000), wk =   0.0132450
        k(    3) = (  -0.0133332   0.0266667   0.0000000), wk =   0.0132450
        k(    4) = (  -0.0199998   0.0400000   0.0000000), wk =   0.0132450
        k(    5) = (  -0.0266664   0.0533334   0.0000000), wk =   0.0132450
        k(    6) = (  -0.0333330   0.0666667   0.0000000), wk =   0.0132450
        k(    7) = (  -0.0399996   0.0800000   0.0000000), wk =   0.0132450
        k(    8) = (  -0.0466662   0.0933334   0.0000000), wk =   0.0132450
        k(    9) = (  -0.0533328   0.1066667   0.0000000), wk =   0.0132450
        k(   10) = (  -0.0599994   0.1200001   0.0000000), wk =   0.0132450
        k(   11) = (  -0.0666660   0.1333334   0.0000000), wk =   0.0132450
        k(   12) = (  -0.0733326   0.1466667   0.0000000), wk =   0.0132450
        k(   13) = (  -0.0799992   0.1600001   0.0000000), wk =   0.0132450
        k(   14) = (  -0.0866658   0.1733334   0.0000000), wk =   0.0132450
        k(   15) = (  -0.0933324   0.1866668   0.0000000), wk =   0.0132450
        k(   16) = (  -0.0999990   0.2000001   0.0000000), wk =   0.0132450
        k(   17) = (  -0.1066656   0.2133334   0.0000000), wk =   0.0132450
        k(   18) = (  -0.1133322   0.2266668   0.0000000), wk =   0.0132450
        k(   19) = (  -0.1199988   0.2400001   0.0000000), wk =   0.0132450
        k(   20) = (  -0.1266654   0.2533335   0.0000000), wk =   0.0132450
        k(   21) = (  -0.1333320   0.2666668   0.0000000), wk =   0.0132450
        k(   22) = (  -0.1399986   0.2800001   0.0000000), wk =   0.0132450
        k(   23) = (  -0.1466652   0.2933335   0.0000000), wk =   0.0132450
        k(   24) = (  -0.1533318   0.3066668   0.0000000), wk =   0.0132450
        k(   25) = (  -0.1599984   0.3200002   0.0000000), wk =   0.0132450
        k(   26) = (  -0.1666650   0.3333335   0.0000000), wk =   0.0132450
        k(   27) = (  -0.1733316   0.3466668   0.0000000), wk =   0.0132450
        k(   28) = (  -0.1799982   0.3600002   0.0000000), wk =   0.0132450
        k(   29) = (  -0.1866648   0.3733335   0.0000000), wk =   0.0132450
        k(   30) = (  -0.1933314   0.3866669   0.0000000), wk =   0.0132450
        k(   31) = (  -0.1999980   0.4000002   0.0000000), wk =   0.0132450
        k(   32) = (  -0.2066646   0.4133335   0.0000000), wk =   0.0132450
        k(   33) = (  -0.2133312   0.4266669   0.0000000), wk =   0.0132450
        k(   34) = (  -0.2199978   0.4400002   0.0000000), wk =   0.0132450
        k(   35) = (  -0.2266644   0.4533336   0.0000000), wk =   0.0132450
        k(   36) = (  -0.2333310   0.4666669   0.0000000), wk =   0.0132450
        k(   37) = (  -0.2399976   0.4800002   0.0000000), wk =   0.0132450
        k(   38) = (  -0.2466642   0.4933336   0.0000000), wk =   0.0132450
        k(   39) = (  -0.2533308   0.5066669   0.0000000), wk =   0.0132450
        k(   40) = (  -0.2599974   0.5200003   0.0000000), wk =   0.0132450
        k(   41) = (  -0.2666640   0.5333336   0.0000000), wk =   0.0132450
        k(   42) = (  -0.2733306   0.5466669   0.0000000), wk =   0.0132450
        k(   43) = (  -0.2799972   0.5600003   0.0000000), wk =   0.0132450
        k(   44) = (  -0.2866638   0.5733336   0.0000000), wk =   0.0132450
        k(   45) = (  -0.2933304   0.5866670   0.0000000), wk =   0.0132450
        k(   46) = (  -0.2999970   0.6000003   0.0000000), wk =   0.0132450
        k(   47) = (  -0.3066636   0.6133336   0.0000000), wk =   0.0132450
        k(   48) = (  -0.3133302   0.6266670   0.0000000), wk =   0.0132450
        k(   49) = (  -0.3199968   0.6400003   0.0000000), wk =   0.0132450
        k(   50) = (  -0.3266634   0.6533337   0.0000000), wk =   0.0132450
        k(   51) = (  -0.3333300   0.6666670   0.0000000), wk =   0.0132450
        k(   52) = (  -0.3266634   0.6633337   0.0000000), wk =   0.0132450
        k(   53) = (  -0.3199968   0.6600003   0.0000000), wk =   0.0132450
        k(   54) = (  -0.3133302   0.6566670   0.0000000), wk =   0.0132450
        k(   55) = (  -0.3066636   0.6533336   0.0000000), wk =   0.0132450
        k(   56) = (  -0.2999970   0.6500003   0.0000000), wk =   0.0132450
        k(   57) = (  -0.2933304   0.6466670   0.0000000), wk =   0.0132450
        k(   58) = (  -0.2866638   0.6433336   0.0000000), wk =   0.0132450
        k(   59) = (  -0.2799972   0.6400003   0.0000000), wk =   0.0132450
        k(   60) = (  -0.2733306   0.6366669   0.0000000), wk =   0.0132450
        k(   61) = (  -0.2666640   0.6333336   0.0000000), wk =   0.0132450
        k(   62) = (  -0.2599974   0.6300003   0.0000000), wk =   0.0132450
        k(   63) = (  -0.2533308   0.6266669   0.0000000), wk =   0.0132450
        k(   64) = (  -0.2466642   0.6233336   0.0000000), wk =   0.0132450
        k(   65) = (  -0.2399976   0.6200002   0.0000000), wk =   0.0132450
        k(   66) = (  -0.2333310   0.6166669   0.0000000), wk =   0.0132450
        k(   67) = (  -0.2266644   0.6133336   0.0000000), wk =   0.0132450
        k(   68) = (  -0.2199978   0.6100002   0.0000000), wk =   0.0132450
        k(   69) = (  -0.2133312   0.6066669   0.0000000), wk =   0.0132450
        k(   70) = (  -0.2066646   0.6033335   0.0000000), wk =   0.0132450
        k(   71) = (  -0.1999980   0.6000002   0.0000000), wk =   0.0132450
        k(   72) = (  -0.1933314   0.5966669   0.0000000), wk =   0.0132450
        k(   73) = (  -0.1866648   0.5933335   0.0000000), wk =   0.0132450
        k(   74) = (  -0.1799982   0.5900002   0.0000000), wk =   0.0132450
        k(   75) = (  -0.1733316   0.5866668   0.0000000), wk =   0.0132450
        k(   76) = (  -0.1666650   0.5833335   0.0000000), wk =   0.0132450
        k(   77) = (  -0.1599984   0.5800002   0.0000000), wk =   0.0132450
        k(   78) = (  -0.1533318   0.5766668   0.0000000), wk =   0.0132450
        k(   79) = (  -0.1466652   0.5733335   0.0000000), wk =   0.0132450
        k(   80) = (  -0.1399986   0.5700001   0.0000000), wk =   0.0132450
        k(   81) = (  -0.1333320   0.5666668   0.0000000), wk =   0.0132450
        k(   82) = (  -0.1266654   0.5633335   0.0000000), wk =   0.0132450
        k(   83) = (  -0.1199988   0.5600001   0.0000000), wk =   0.0132450
        k(   84) = (  -0.1133322   0.5566668   0.0000000), wk =   0.0132450
        k(   85) = (  -0.1066656   0.5533334   0.0000000), wk =   0.0132450
        k(   86) = (  -0.0999990   0.5500001   0.0000000), wk =   0.0132450
        k(   87) = (  -0.0933324   0.5466668   0.0000000), wk =   0.0132450
        k(   88) = (  -0.0866658   0.5433334   0.0000000), wk =   0.0132450
        k(   89) = (  -0.0799992   0.5400001   0.0000000), wk =   0.0132450
        k(   90) = (  -0.0733326   0.5366667   0.0000000), wk =   0.0132450
        k(   91) = (  -0.0666660   0.5333334   0.0000000), wk =   0.0132450
        k(   92) = (  -0.0599994   0.5300001   0.0000000), wk =   0.0132450
        k(   93) = (  -0.0533328   0.5266667   0.0000000), wk =   0.0132450
        k(   94) = (  -0.0466662   0.5233334   0.0000000), wk =   0.0132450
        k(   95) = (  -0.0399996   0.5200000   0.0000000), wk =   0.0132450
        k(   96) = (  -0.0333330   0.5166667   0.0000000), wk =   0.0132450
        k(   97) = (  -0.0266664   0.5133334   0.0000000), wk =   0.0132450
        k(   98) = (  -0.0199998   0.5100000   0.0000000), wk =   0.0132450
        k(   99) = (  -0.0133332   0.5066667   0.0000000), wk =   0.0132450
        k(  100) = (  -0.0066666   0.5033333   0.0000000), wk =   0.0132450
        k(  101) = (   0.0000000   0.5000000   0.0000000), wk =   0.0132450
        k(  102) = (   0.0000000   0.4900000   0.0000000), wk =   0.0132450
        k(  103) = (   0.0000000   0.4800000   0.0000000), wk =   0.0132450
        k(  104) = (   0.0000000   0.4700000   0.0000000), wk =   0.0132450
        k(  105) = (   0.0000000   0.4600000   0.0000000), wk =   0.0132450
        k(  106) = (   0.0000000   0.4500000   0.0000000), wk =   0.0132450
        k(  107) = (   0.0000000   0.4400000   0.0000000), wk =   0.0132450
        k(  108) = (   0.0000000   0.4300000   0.0000000), wk =   0.0132450
        k(  109) = (   0.0000000   0.4200000   0.0000000), wk =   0.0132450
        k(  110) = (   0.0000000   0.4100000   0.0000000), wk =   0.0132450
        k(  111) = (   0.0000000   0.4000000   0.0000000), wk =   0.0132450
        k(  112) = (   0.0000000   0.3900000   0.0000000), wk =   0.0132450
        k(  113) = (   0.0000000   0.3800000   0.0000000), wk =   0.0132450
        k(  114) = (   0.0000000   0.3700000   0.0000000), wk =   0.0132450
        k(  115) = (   0.0000000   0.3600000   0.0000000), wk =   0.0132450
        k(  116) = (   0.0000000   0.3500000   0.0000000), wk =   0.0132450
        k(  117) = (   0.0000000   0.3400000   0.0000000), wk =   0.0132450
        k(  118) = (   0.0000000   0.3300000   0.0000000), wk =   0.0132450
        k(  119) = (   0.0000000   0.3200000   0.0000000), wk =   0.0132450
        k(  120) = (   0.0000000   0.3100000   0.0000000), wk =   0.0132450
        k(  121) = (   0.0000000   0.3000000   0.0000000), wk =   0.0132450
        k(  122) = (   0.0000000   0.2900000   0.0000000), wk =   0.0132450
        k(  123) = (   0.0000000   0.2800000   0.0000000), wk =   0.0132450
        k(  124) = (   0.0000000   0.2700000   0.0000000), wk =   0.0132450
        k(  125) = (   0.0000000   0.2600000   0.0000000), wk =   0.0132450
        k(  126) = (   0.0000000   0.2500000   0.0000000), wk =   0.0132450
        k(  127) = (   0.0000000   0.2400000   0.0000000), wk =   0.0132450
        k(  128) = (   0.0000000   0.2300000   0.0000000), wk =   0.0132450
        k(  129) = (   0.0000000   0.2200000   0.0000000), wk =   0.0132450
        k(  130) = (   0.0000000   0.2100000   0.0000000), wk =   0.0132450
        k(  131) = (   0.0000000   0.2000000   0.0000000), wk =   0.0132450
        k(  132) = (   0.0000000   0.1900000   0.0000000), wk =   0.0132450
        k(  133) = (   0.0000000   0.1800000   0.0000000), wk =   0.0132450
        k(  134) = (   0.0000000   0.1700000   0.0000000), wk =   0.0132450
        k(  135) = (   0.0000000   0.1600000   0.0000000), wk =   0.0132450
        k(  136) = (   0.0000000   0.1500000   0.0000000), wk =   0.0132450
        k(  137) = (   0.0000000   0.1400000   0.0000000), wk =   0.0132450
        k(  138) = (   0.0000000   0.1300000   0.0000000), wk =   0.0132450
        k(  139) = (   0.0000000   0.1200000   0.0000000), wk =   0.0132450
        k(  140) = (   0.0000000   0.1100000   0.0000000), wk =   0.0132450
        k(  141) = (   0.0000000   0.1000000   0.0000000), wk =   0.0132450
        k(  142) = (   0.0000000   0.0900000   0.0000000), wk =   0.0132450
        k(  143) = (   0.0000000   0.0800000   0.0000000), wk =   0.0132450
        k(  144) = (   0.0000000   0.0700000   0.0000000), wk =   0.0132450
        k(  145) = (   0.0000000   0.0600000   0.0000000), wk =   0.0132450
        k(  146) = (   0.0000000   0.0500000   0.0000000), wk =   0.0132450
        k(  147) = (   0.0000000   0.0400000   0.0000000), wk =   0.0132450
        k(  148) = (   0.0000000   0.0300000   0.0000000), wk =   0.0132450
        k(  149) = (   0.0000000   0.0200000   0.0000000), wk =   0.0132450
        k(  150) = (   0.0000000   0.0100000   0.0000000), wk =   0.0132450
        k(  151) = (   0.0000000   0.0000000   0.0000000), wk =   0.0132450

     Dense  grid:    44285 G-vectors     FFT dimensions: (  24,  24, 192)

     Dynamical RAM for                 wfc:       0.17 MB

     Dynamical RAM for     wfc (w. buffer):       0.17 MB

     Dynamical RAM for           str. fact:       0.08 MB

     Dynamical RAM for           local pot:       0.00 MB

     Dynamical RAM for          nlocal pot:       0.34 MB

     Dynamical RAM for                qrad:       0.36 MB

     Dynamical RAM for          rho,v,vnew:       0.57 MB

     Dynamical RAM for           G-vectors:       0.36 MB

     Dynamical RAM for          h,s,v(r/c):       0.05 MB

     Dynamical RAM for          <psi|beta>:       0.01 MB

     Dynamical RAM for                 psi:       0.34 MB

     Dynamical RAM for                hpsi:       0.34 MB

     Dynamical RAM for      wfcinit/wfcrot:       0.34 MB

     Estimated static dynamical RAM per process >       2.57 MB

     Estimated max dynamical RAM per process >       3.30 MB

     Estimated total dynamical RAM >      26.38 MB

     The potential is recalculated from file :
     ./tmp/C2L_AB_PBE_vdW.save/charge-density



     %%%%%%%%%%%%%%%%%%%%%%%%%%%%%%%%%%%%%%%%%%%%%%%%%%%%%%%%%%%%%%%%%%%%%%%%
     %                                                                      %
     % You are using vdW-DF, which was implemented by the Thonhauser group. %
     % Please cite the following two papers that made this development      %
     % possible and the two reviews that describe the various versions:     %
     %                                                                      %
     %   T. Thonhauser et al., PRL 115, 136402 (2015).                      %
     %   T. Thonhauser et al., PRB 76, 125112 (2007).                       %
     %   K. Berland et al., Rep. Prog. Phys. 78, 066501 (2015).             %
     %   D.C. Langreth et al., J. Phys.: Condens. Matter 21, 084203 (2009). %
     %                                                                      %
     % If you are calculating stress with vdW-DF, please also cite:         %
     %                                                                      %
     %   R. Sabatini et al., J. Phys.: Condens. Matter 24, 424209 (2012).   %
     %                                                                      %
     %%%%%%%%%%%%%%%%%%%%%%%%%%%%%%%%%%%%%%%%%%%%%%%%%%%%%%%%%%%%%%%%%%%%%%%%

     %%%%%%%%%%%%%%%%%%%%%%%%%%%%%%%%%%%%%%%%%%%%%%%%%%%%%%%%%%%%%%%%%%%%%%%%
     %                                                                      %
     %  vdW-DF NEWS:                                                        %
     %                                                                      %
     %  * vdW-DF3 is now available. DOI: 10.1021/acs.jctc.0c00471           %
     %    use with input_dft = 'vdW-DF3-opt1' or 'vdW-DF3-opt2'             %
     %                                                                      %
     %  * Unscreened and range-separated hybrid vdW-DF-cx functionals       %
     %    DOI: 10.1063/1.4986522 and 10.1088/1361-648X/ac2ad2               %
     %    use with input_dft = 'vdW-DF-cx0'    and 'vdW-DF-ahcx'            %
     %  * Unscreened and range-separated hybrid vdW-DF2-b86r functionals    %
     %    DOI: 10.1063/1.4986522 and DOI: 10.1103/PhysRevX.12.041003        %
     %    use with input_dft = 'vdW-DF2-br0' and 'vdW-DF2-ahbr'             %
     %                                                                      %
     %%%%%%%%%%%%%%%%%%%%%%%%%%%%%%%%%%%%%%%%%%%%%%%%%%%%%%%%%%%%%%%%%%%%%%%%


     Carrying out vdW-DF run using the following parameters:
     Nqs    =  20  Npoints =  1024  r_max =  100.000
     q_mesh =  0.00001000  0.04494208  0.09755937  0.15916263
               0.23128650  0.31572767  0.41458969  0.53033537
               0.66584808  0.82450364  1.01025438  1.22772762
               1.48234092  1.78043706  2.12944203  2.53805004
               3.01644009  3.57652955  4.23227104  5.00000000


     -----------------------------------------------
     Non-local corr. energy    =       0.19408375 Ry
     -----------------------------------------------

     Starting wfcs are   16 randomized atomic wfcs

     Band Structure Calculation
     Davidson diagonalization with overlap

     Computing kpt #:     1  of   151
     total cpu time spent up to now is        9.6 secs

     Computing kpt #:     2  of   151
     total cpu time spent up to now is        9.8 secs

     Computing kpt #:     3  of   151
     total cpu time spent up to now is        9.9 secs

     Computing kpt #:     4  of   151
     total cpu time spent up to now is       10.1 secs

     Computing kpt #:     5  of   151
     total cpu time spent up to now is       10.3 secs

     Computing kpt #:     6  of   151
     total cpu time spent up to now is       10.5 secs

     Computing kpt #:     7  of   151
     total cpu time spent up to now is       10.6 secs

     Computing kpt #:     8  of   151
     total cpu time spent up to now is       10.8 secs

     Computing kpt #:     9  of   151
     total cpu time spent up to now is       10.9 secs

     Computing kpt #:    10  of   151
     total cpu time spent up to now is       11.1 secs

     Computing kpt #:    11  of   151
     total cpu time spent up to now is       11.2 secs

     Computing kpt #:    12  of   151
     total cpu time spent up to now is       11.4 secs

     Computing kpt #:    13  of   151
     total cpu time spent up to now is       11.5 secs

     Computing kpt #:    14  of   151
     total cpu time spent up to now is       11.7 secs

     Computing kpt #:    15  of   151
     total cpu time spent up to now is       11.8 secs

     Computing kpt #:    16  of   151
     total cpu time spent up to now is       12.0 secs

     Computing kpt #:    17  of   151
     total cpu time spent up to now is       12.2 secs

     Computing kpt #:    18  of   151
     total cpu time spent up to now is       12.4 secs

     Computing kpt #:    19  of   151
     total cpu time spent up to now is       12.5 secs

     Computing kpt #:    20  of   151
     total cpu time spent up to now is       12.7 secs

     Computing kpt #:    21  of   151
     total cpu time spent up to now is       12.8 secs

     Computing kpt #:    22  of   151
     total cpu time spent up to now is       13.0 secs

     Computing kpt #:    23  of   151
     total cpu time spent up to now is       13.1 secs

     Computing kpt #:    24  of   151
     total cpu time spent up to now is       13.3 secs

     Computing kpt #:    25  of   151
     total cpu time spent up to now is       13.4 secs

     Computing kpt #:    26  of   151
     total cpu time spent up to now is       13.6 secs

     Computing kpt #:    27  of   151
     total cpu time spent up to now is       13.7 secs

     Computing kpt #:    28  of   151
     total cpu time spent up to now is       13.9 secs

     Computing kpt #:    29  of   151
     total cpu time spent up to now is       14.0 secs

     Computing kpt #:    30  of   151
     total cpu time spent up to now is       14.1 secs

     Computing kpt #:    31  of   151
     total cpu time spent up to now is       14.3 secs

     Computing kpt #:    32  of   151
     total cpu time spent up to now is       14.4 secs

     Computing kpt #:    33  of   151
     total cpu time spent up to now is       14.6 secs

     Computing kpt #:    34  of   151
     total cpu time spent up to now is       14.7 secs

     Computing kpt #:    35  of   151
     total cpu time spent up to now is       14.9 secs

     Computing kpt #:    36  of   151
     total cpu time spent up to now is       15.0 secs

     Computing kpt #:    37  of   151
     total cpu time spent up to now is       15.2 secs

     Computing kpt #:    38  of   151
     total cpu time spent up to now is       15.4 secs

     Computing kpt #:    39  of   151
     total cpu time spent up to now is       15.6 secs

     Computing kpt #:    40  of   151
     total cpu time spent up to now is       15.7 secs

     Computing kpt #:    41  of   151
     total cpu time spent up to now is       15.9 secs

     Computing kpt #:    42  of   151
     total cpu time spent up to now is       16.1 secs

     Computing kpt #:    43  of   151
     total cpu time spent up to now is       16.2 secs

     Computing kpt #:    44  of   151
     total cpu time spent up to now is       16.4 secs

     Computing kpt #:    45  of   151
     total cpu time spent up to now is       16.6 secs

     Computing kpt #:    46  of   151
     total cpu time spent up to now is       16.7 secs

     Computing kpt #:    47  of   151
     total cpu time spent up to now is       16.9 secs

     Computing kpt #:    48  of   151
     total cpu time spent up to now is       17.0 secs

     Computing kpt #:    49  of   151
     total cpu time spent up to now is       17.1 secs

     Computing kpt #:    50  of   151
     total cpu time spent up to now is       17.3 secs

     Computing kpt #:    51  of   151
     total cpu time spent up to now is       17.4 secs

     Computing kpt #:    52  of   151
     total cpu time spent up to now is       17.5 secs

     Computing kpt #:    53  of   151
     total cpu time spent up to now is       17.6 secs

     Computing kpt #:    54  of   151
     total cpu time spent up to now is       17.7 secs

     Computing kpt #:    55  of   151
     total cpu time spent up to now is       17.9 secs

     Computing kpt #:    56  of   151
     total cpu time spent up to now is       18.0 secs

     Computing kpt #:    57  of   151
     total cpu time spent up to now is       18.1 secs

     Computing kpt #:    58  of   151
     total cpu time spent up to now is       18.3 secs

     Computing kpt #:    59  of   151
     total cpu time spent up to now is       18.4 secs

     Computing kpt #:    60  of   151
     total cpu time spent up to now is       18.5 secs

     Computing kpt #:    61  of   151
     total cpu time spent up to now is       18.7 secs

     Computing kpt #:    62  of   151
     total cpu time spent up to now is       18.8 secs

     Computing kpt #:    63  of   151
     total cpu time spent up to now is       18.9 secs

     Computing kpt #:    64  of   151
     total cpu time spent up to now is       19.1 secs

     Computing kpt #:    65  of   151
     total cpu time spent up to now is       19.2 secs

     Computing kpt #:    66  of   151
     total cpu time spent up to now is       19.3 secs

     Computing kpt #:    67  of   151
     total cpu time spent up to now is       19.4 secs

     Computing kpt #:    68  of   151
     total cpu time spent up to now is       19.6 secs

     Computing kpt #:    69  of   151
     total cpu time spent up to now is       19.7 secs

     Computing kpt #:    70  of   151
     total cpu time spent up to now is       19.8 secs

     Computing kpt #:    71  of   151
     total cpu time spent up to now is       19.9 secs

     Computing kpt #:    72  of   151
     total cpu time spent up to now is       20.0 secs

     Computing kpt #:    73  of   151
     total cpu time spent up to now is       20.1 secs

     Computing kpt #:    74  of   151
     total cpu time spent up to now is       20.3 secs

     Computing kpt #:    75  of   151
     total cpu time spent up to now is       20.4 secs

     Computing kpt #:    76  of   151
     total cpu time spent up to now is       20.5 secs

     Computing kpt #:    77  of   151
     total cpu time spent up to now is       20.6 secs

     Computing kpt #:    78  of   151
     total cpu time spent up to now is       20.7 secs

     Computing kpt #:    79  of   151
     total cpu time spent up to now is       20.8 secs

     Computing kpt #:    80  of   151
     total cpu time spent up to now is       20.9 secs

     Computing kpt #:    81  of   151
     total cpu time spent up to now is       21.0 secs

     Computing kpt #:    82  of   151
     total cpu time spent up to now is       21.1 secs

     Computing kpt #:    83  of   151
     total cpu time spent up to now is       21.2 secs

     Computing kpt #:    84  of   151
     total cpu time spent up to now is       21.3 secs

     Computing kpt #:    85  of   151
     total cpu time spent up to now is       21.4 secs

     Computing kpt #:    86  of   151
     total cpu time spent up to now is       21.5 secs

     Computing kpt #:    87  of   151
     total cpu time spent up to now is       21.6 secs

     Computing kpt #:    88  of   151
     total cpu time spent up to now is       21.7 secs

     Computing kpt #:    89  of   151
     total cpu time spent up to now is       21.8 secs

     Computing kpt #:    90  of   151
     total cpu time spent up to now is       21.9 secs

     Computing kpt #:    91  of   151
     total cpu time spent up to now is       22.0 secs

     Computing kpt #:    92  of   151
     total cpu time spent up to now is       22.1 secs

     Computing kpt #:    93  of   151
     total cpu time spent up to now is       22.2 secs

     Computing kpt #:    94  of   151
     total cpu time spent up to now is       22.3 secs

     Computing kpt #:    95  of   151
     total cpu time spent up to now is       22.4 secs

     Computing kpt #:    96  of   151
     total cpu time spent up to now is       22.5 secs

     Computing kpt #:    97  of   151
     total cpu time spent up to now is       22.6 secs

     Computing kpt #:    98  of   151
     total cpu time spent up to now is       22.7 secs

     Computing kpt #:    99  of   151
     total cpu time spent up to now is       22.8 secs

     Computing kpt #:   100  of   151
     total cpu time spent up to now is       22.9 secs

     Computing kpt #:   101  of   151
     total cpu time spent up to now is       23.0 secs

     Computing kpt #:   102  of   151
     total cpu time spent up to now is       23.2 secs

     Computing kpt #:   103  of   151
     total cpu time spent up to now is       23.3 secs

     Computing kpt #:   104  of   151
     total cpu time spent up to now is       23.5 secs

     Computing kpt #:   105  of   151
     total cpu time spent up to now is       23.6 secs

     Computing kpt #:   106  of   151
     total cpu time spent up to now is       23.8 secs

     Computing kpt #:   107  of   151
     total cpu time spent up to now is       23.9 secs

     Computing kpt #:   108  of   151
     total cpu time spent up to now is       24.1 secs

     Computing kpt #:   109  of   151
     total cpu time spent up to now is       24.2 secs

     Computing kpt #:   110  of   151
     total cpu time spent up to now is       24.3 secs

     Computing kpt #:   111  of   151
     total cpu time spent up to now is       24.5 secs

     Computing kpt #:   112  of   151
     total cpu time spent up to now is       24.6 secs

     Computing kpt #:   113  of   151
     total cpu time spent up to now is       24.7 secs

     Computing kpt #:   114  of   151
     total cpu time spent up to now is       24.9 secs

     Computing kpt #:   115  of   151
     total cpu time spent up to now is       25.0 secs

     Computing kpt #:   116  of   151
     total cpu time spent up to now is       25.2 secs

     Computing kpt #:   117  of   151
     total cpu time spent up to now is       25.3 secs

     Computing kpt #:   118  of   151
     total cpu time spent up to now is       25.4 secs

     Computing kpt #:   119  of   151
     total cpu time spent up to now is       25.5 secs

     Computing kpt #:   120  of   151
     total cpu time spent up to now is       25.7 secs

     Computing kpt #:   121  of   151
     total cpu time spent up to now is       25.8 secs

     Computing kpt #:   122  of   151
     total cpu time spent up to now is       26.0 secs

     Computing kpt #:   123  of   151
     total cpu time spent up to now is       26.1 secs

     Computing kpt #:   124  of   151
     total cpu time spent up to now is       26.3 secs

     Computing kpt #:   125  of   151
     total cpu time spent up to now is       26.4 secs

     Computing kpt #:   126  of   151
     total cpu time spent up to now is       26.6 secs

     Computing kpt #:   127  of   151
     total cpu time spent up to now is       26.7 secs

     Computing kpt #:   128  of   151
     total cpu time spent up to now is       26.9 secs

     Computing kpt #:   129  of   151
     total cpu time spent up to now is       27.0 secs

     Computing kpt #:   130  of   151
     total cpu time spent up to now is       27.2 secs

     Computing kpt #:   131  of   151
     total cpu time spent up to now is       27.3 secs

     Computing kpt #:   132  of   151
     total cpu time spent up to now is       27.4 secs

     Computing kpt #:   133  of   151
     total cpu time spent up to now is       27.6 secs

     Computing kpt #:   134  of   151
     total cpu time spent up to now is       27.7 secs

     Computing kpt #:   135  of   151
     total cpu time spent up to now is       27.9 secs

     Computing kpt #:   136  of   151
     total cpu time spent up to now is       28.1 secs

     Computing kpt #:   137  of   151
     total cpu time spent up to now is       28.2 secs

     Computing kpt #:   138  of   151
     total cpu time spent up to now is       28.3 secs

     Computing kpt #:   139  of   151
     total cpu time spent up to now is       28.4 secs

     Computing kpt #:   140  of   151
     total cpu time spent up to now is       28.6 secs

     Computing kpt #:   141  of   151
     total cpu time spent up to now is       28.7 secs

     Computing kpt #:   142  of   151
     total cpu time spent up to now is       28.9 secs

     Computing kpt #:   143  of   151
     total cpu time spent up to now is       29.1 secs

     Computing kpt #:   144  of   151
     total cpu time spent up to now is       29.2 secs

     Computing kpt #:   145  of   151
     total cpu time spent up to now is       29.4 secs

     Computing kpt #:   146  of   151
     total cpu time spent up to now is       29.6 secs

     Computing kpt #:   147  of   151
     total cpu time spent up to now is       29.7 secs

     Computing kpt #:   148  of   151
     total cpu time spent up to now is       29.9 secs

     Computing kpt #:   149  of   151
     total cpu time spent up to now is       30.1 secs

     Computing kpt #:   150  of   151
     total cpu time spent up to now is       30.3 secs

     Computing kpt #:   151  of   151
     total cpu time spent up to now is       30.4 secs

     ethr =  5.00E-06,  avg # of iterations = 26.3

     total cpu time spent up to now is       30.4 secs

     End of band structure calculation

          k = 0.0000 0.0000 0.0000 (  5505 PWs)   bands (ev):

   -20.1542 -19.9802  -8.7240  -7.6484  -3.6426  -3.6426  -3.6203  -3.6202
     2.5622   2.9846   4.0512   5.1938   5.6433   7.4811   7.8220   7.8221

          k =-0.0067 0.0115 0.0000 (  5495 PWs)   bands (ev):

   -20.1509 -19.9770  -8.7199  -7.6446  -3.6559  -3.6496  -3.6335  -3.6272
     2.5665   2.9888   4.0556   5.1981   5.6473   7.4849   7.8243   7.8364

          k =-0.0133 0.0231 0.0000 (  5495 PWs)   bands (ev):

   -20.1415 -19.9676  -8.7084  -7.6335  -3.6948  -3.6733  -3.6695  -3.6481
     2.5791   3.0016   4.0686   5.2111   5.6594   7.4962   7.8296   7.8683

          k =-0.0200 0.0346 0.0000 (  5505 PWs)   bands (ev):

   -20.1257 -19.9520  -8.6893  -7.6150  -3.7601  -3.7375  -3.7049  -3.6826
     2.6003   3.0229   4.0903   5.2326   5.6795   7.5155   7.8383   7.9386

          k =-0.0267 0.0462 0.0000 (  5499 PWs)   bands (ev):

   -20.1036 -19.9301  -8.6623  -7.5888  -3.8489  -3.8262  -3.7529  -3.7305
     2.6298   3.0528   4.1207   5.2628   5.7077   7.5417   7.8503   7.8988

          k =-0.0333 0.0577 0.0000 (  5515 PWs)   bands (ev):

   -20.0753 -19.9020  -8.6281  -7.5559  -3.9610  -3.9378  -3.8145  -3.7920
     2.6679   3.0911   4.1598   5.3016   5.7440   7.5750   7.8664   7.9197

          k =-0.0400 0.0693 0.0000 (  5513 PWs)   bands (ev):

   -20.0406 -19.8677  -8.5859  -7.5152  -4.0931  -4.0696  -3.8888  -3.8662
     2.7144   3.1380   4.2077   5.3490   5.7883   7.6164   7.8872   7.9485

          k =-0.0467 0.0808 0.0000 (  5509 PWs)   bands (ev):

   -19.9995 -19.8271  -8.5361  -7.4669  -4.2442  -4.2199  -3.9760  -3.9532
     2.7693   3.1934   4.2641   5.4051   5.8407   7.6648   7.9127   7.9822

          k =-0.0533 0.0924 0.0000 (  5509 PWs)   bands (ev):

   -19.9523 -19.7803  -8.4788  -7.4116  -4.4126  -4.3878  -4.0750  -4.0520
     2.8327   3.2572   4.3294   5.4698   5.9011   7.7204   7.9439   8.0223

          k =-0.0600 0.1039 0.0000 (  5509 PWs)   bands (ev):

   -19.8987 -19.7273  -8.4140  -7.3490  -4.5956  -4.5703  -4.1854  -4.1623
     2.9046   3.3296   4.4032   5.5431   5.9695   7.7832   7.9793   8.0684

          k =-0.0667 0.1155 0.0000 (  5509 PWs)   bands (ev):

   -19.8389 -19.6681  -8.3417  -7.2789  -4.7924  -4.7665  -4.3069  -4.2836
     2.9849   3.4105   4.4858   5.6250   6.0460   7.8530   8.0212   8.1218

          k =-0.0733 0.1270 0.0000 (  5505 PWs)   bands (ev):

   -19.7728 -19.6027  -8.2619  -7.2020  -4.9996  -4.9727  -4.4392  -4.4156
     3.0737   3.4998   4.5771   5.7154   6.1306   7.9298   8.0687   8.1821

          k =-0.0800 0.1386 0.0000 (  5509 PWs)   bands (ev):

   -19.7005 -19.5312  -8.1746  -7.1179  -5.2169  -5.1896  -4.5809  -4.5571
     3.1709   3.5977   4.6770   5.8145   6.2231   8.0121   8.1225   8.2478

          k =-0.0867 0.1501 0.0000 (  5513 PWs)   bands (ev):

   -19.6220 -19.4535  -8.0800  -7.0267  -5.4423  -5.4143  -4.7317  -4.7076
     3.2766   3.7039   4.7857   5.9222   6.3236   8.1008   8.1816   8.3208

          k =-0.0933 0.1617 0.0000 (  5525 PWs)   bands (ev):

   -19.5373 -19.3697  -7.9781  -6.9285  -5.6744  -5.6457  -4.8912  -4.8668
     3.3907   3.8186   4.9030   6.0385   6.4321   8.1949   8.2453   8.3977

          k =-0.1000 0.1732 0.0000 (  5513 PWs)   bands (ev):

   -19.4463 -19.2797  -7.8686  -6.8232  -5.9114  -5.8819  -5.0581  -5.0334
     3.5132   3.9417   5.0291   6.1633   6.5484   8.2897   8.3129   8.4448

          k =-0.1067 0.1848 0.0000 (  5505 PWs)   bands (ev):

   -19.3492 -19.1836  -7.7519  -6.7110  -6.1521  -6.1220  -5.2320  -5.2068
     3.6442   4.0732   5.1638   6.2967   6.6726   8.2474   8.3478   8.4161

          k =-0.1133 0.1963 0.0000 (  5521 PWs)   bands (ev):

   -19.2461 -19.0815  -7.6282  -6.5924  -6.3968  -6.3657  -5.4129  -5.3871
     3.7835   4.2131   5.3072   6.4386   6.8048   7.9913   8.1907   8.5274

          k =-0.1200 0.2078 0.0000 (  5513 PWs)   bands (ev):

   -19.1367 -18.9734  -7.4973  -6.6432  -6.6119  -6.4659  -5.5990  -5.5727
     3.9313   4.3613   5.4592   6.5890   6.9444   7.7168   7.9345   8.6115

          k =-0.1267 0.2194 0.0000 (  5502 PWs)   bands (ev):

   -19.0214 -18.8591  -7.3592  -6.8910  -6.8587  -6.3337  -5.7902  -5.7635
     4.0874   4.5178   5.6200   6.7479   7.0916   7.4338   7.6620   8.7074

          k =-0.1333 0.2309 0.0000 (  5518 PWs)   bands (ev):

   -18.9000 -18.7393  -7.2157  -7.1385  -7.1063  -6.1951  -5.9861  -5.9587
     4.2518   4.6825   5.7894   6.9150   7.1451   7.2459   7.3824   8.8127

          k =-0.1400 0.2425 0.0000 (  5510 PWs)   bands (ev):

   -18.7726 -18.6132  -7.3881  -7.3540  -7.0624  -6.1853  -6.1574  -6.0498
     4.4246   4.8554   5.9674   6.8527   7.0763   7.1128   7.4077   8.9273

          k =-0.1467 0.2540 0.0000 (  5512 PWs)   bands (ev):

   -18.6393 -18.4812  -7.6361  -7.6012  -6.9040  -6.3879  -6.3593  -5.8983
     4.6057   5.0365   6.1540   6.5563   6.8081   7.2766   7.5765   9.0479

          k =-0.1533 0.2656 0.0000 (  5518 PWs)   bands (ev):

   -18.5000 -18.3434  -7.8831  -7.8473  -6.7389  -6.5931  -6.5639  -5.7403
     4.7950   5.2256   6.2579   6.3495   6.5171   7.4689   7.7520   9.1756

          k =-0.1600 0.2771 0.0000 (  5508 PWs)   bands (ev):

   -18.3549 -18.1997  -8.1278  -8.0914  -6.8000  -6.7701  -6.5671  -5.5767
     4.9925   5.4224   5.9582   6.2249   6.5532   7.6697   7.9340   9.3104

          k =-0.1667 0.2887 0.0000 (  5510 PWs)   bands (ev):

   -18.2040 -18.0504  -8.3710  -8.3338  -7.0084  -6.9779  -6.3893  -5.4075
     5.1979   5.6259   5.6581   5.9331   6.7657   7.8788   8.1219   9.4512

          k =-0.1733 0.3002 0.0000 (  5506 PWs)   bands (ev):

   -18.0473 -17.8953  -8.6119  -8.5738  -7.2177  -7.1864  -6.2049  -5.2322
     5.3520   5.4172   5.6328   5.8453   6.9867   8.0960   8.3154   9.5973

          k =-0.1800 0.3118 0.0000 (  5508 PWs)   bands (ev):

   -17.8849 -17.7346  -8.8503  -8.8114  -7.4275  -7.3954  -6.0146  -5.0517
     5.0562   5.3419   5.6351   6.0631   7.2162   8.3213   8.5137   9.7492

          k =-0.1867 0.3233 0.0000 (  5512 PWs)   bands (ev):

   -17.7169 -17.5684  -9.0858  -9.0459  -7.6373  -7.6046  -5.8183  -4.8661
     4.7579   5.0501   5.8649   6.2907   7.4542   8.5543   8.7159   9.9055

          k =-0.1933 0.3349 0.0000 (  5516 PWs)   bands (ev):

   -17.5433 -17.3966  -9.3182  -9.2775  -7.8464  -7.8130  -5.6163  -4.6757
     4.4608   4.7592   6.1029   6.5257   7.7004   8.7948   8.9207  10.0668

          k =-0.2000 0.3464 0.0000 (  5522 PWs)   bands (ev):

   -17.3644 -17.2196  -9.5471  -9.5056  -8.0544  -8.0204  -5.4090  -4.4806
     4.1661   4.4703   6.3488   6.7678   7.9550   9.0427   9.1266  10.2310

          k =-0.2067 0.3580 0.0000 (  5514 PWs)   bands (ev):

   -17.1802 -17.0372  -9.7720  -9.7295  -8.2609  -8.2263  -5.1963  -4.2813
     3.8744   4.1843   6.6025   7.0164   8.2177   9.2974   9.3316  10.3989

          k =-0.2133 0.3695 0.0000 (  5514 PWs)   bands (ev):

   -16.9910 -16.8497  -9.9933  -9.9500  -8.4656  -8.4305  -4.9787  -4.0783
     3.5857   3.9013   6.8638   7.2711   8.4883   9.5322   9.5581  10.5692

          k =-0.2200 0.3811 0.0000 (  5514 PWs)   bands (ev):

   -16.7964 -16.6572 -10.2109 -10.1666  -8.6683  -8.6324  -4.7565  -3.8714
     3.3002   3.6208   7.1327   7.5313   8.7662   9.7259   9.8234  10.7404

          k =-0.2267 0.3926 0.0000 (  5512 PWs)   bands (ev):

   -16.5970 -16.4599 -10.4242 -10.3790  -8.8681  -8.8317  -4.5301  -3.6614
     3.0186   3.3438   7.4090   7.7960   9.0508   9.9074  10.0918  10.9118

          k =-0.2333 0.4041 0.0000 (  5506 PWs)   bands (ev):

   -16.3929 -16.2579 -10.6334 -10.5873  -9.0648  -9.0278  -4.2995  -3.4481
     2.7411   3.0708   7.6924   8.0641   9.3404  10.0721  10.3596  11.0829

          k =-0.2400 0.4157 0.0000 (  5490 PWs)   bands (ev):

   -16.1841 -16.0514 -10.8380 -10.7911  -9.2576  -9.2204  -4.0656  -3.2331
     2.4685   2.8026   7.9827   8.3335   9.6307  10.2172  10.6204  11.2541

          k =-0.2467 0.4272 0.0000 (  5486 PWs)   bands (ev):

   -15.9713 -15.8410 -11.0381 -10.9903  -9.4471  -9.4093  -3.8292  -3.0165
     2.2007   2.5391   8.2795   8.6018   9.9089  10.3496  10.8615  11.4273

          k =-0.2533 0.4388 0.0000 (  5486 PWs)   bands (ev):

   -15.7546 -15.6267 -11.2338 -11.1852  -9.6322  -9.5941  -3.5898  -2.7990
     1.9377   2.2802   8.5824   8.8649  10.1336  10.5078  11.0632  11.6091

          k =-0.2600 0.4503 0.0000 (  5486 PWs)   bands (ev):

   -15.5342 -15.4089 -11.4249 -11.3753  -9.8126  -9.7742  -3.3483  -2.5810
     1.6802   2.0268   8.8909   9.1168  10.2492  10.7483  11.2079  11.7893

          k =-0.2667 0.4619 0.0000 (  5476 PWs)   bands (ev):

   -15.3108 -15.1883 -11.6109 -11.5606  -9.9874  -9.9487  -3.1055  -2.3636
     1.4283   1.7790   9.2041   9.3488  10.2804  11.0503  11.3034  11.8709

          k =-0.2733 0.4734 0.0000 (  5486 PWs)   bands (ev):

   -15.0850 -14.9654 -11.7926 -11.7416 -10.1562 -10.1174  -2.8620  -2.1473
     1.1820   1.5364   9.5198   9.5507  10.2684  11.3772  11.3825  11.9451

          k =-0.2800 0.4850 0.0000 (  5482 PWs)   bands (ev):

   -14.8572 -14.7409 -11.9692 -11.9174 -10.3179 -10.2793  -2.6186  -1.9330
     0.9416   1.2997   9.7045   9.8420  10.2323  11.4783  11.7144  12.0145

          k =-0.2867 0.4965 0.0000 (  5482 PWs)   bands (ev):

   -14.6287 -14.5164 -12.1411 -12.0883 -10.4717 -10.4335  -2.3762  -1.7218
     0.7076   1.0692   9.8094  10.1566  10.1882  11.6171  11.9893  12.1417

          k =-0.2933 0.5081 0.0000 (  5478 PWs)   bands (ev):

   -14.4008 -14.2928 -12.3076 -12.2540 -10.6158 -10.5787  -2.1360  -1.5144
     0.4804   0.8454   9.8659  10.1242  10.4826  11.8034  12.0631  12.3114

          k =-0.3000 0.5196 0.0000 (  5476 PWs)   bands (ev):

   -14.1751 -14.0718 -12.4694 -12.4150 -10.7491 -10.7133  -1.8986  -1.3131
     0.2602   0.6287   9.8863  10.0659  10.7961  12.0254  12.0899  12.3442

          k =-0.3067 0.5312 0.0000 (  5480 PWs)   bands (ev):

   -13.9541 -13.8566 -12.6261 -12.5707 -10.8686 -10.8349  -1.6657  -1.1193
     0.0475   0.4196   9.8853  10.0100  11.0985  12.0998  12.2409  12.3867

          k =-0.3133 0.5427 0.0000 (  5484 PWs)   bands (ev):

   -13.7411 -13.6503 -12.7776 -12.7216 -10.9709 -10.9403  -1.4401  -0.9354
    -0.1561   0.2207   9.8752   9.9601  11.3803  12.0979  12.3005  12.5656

          k =-0.3200 0.5543 0.0000 (  5484 PWs)   bands (ev):

   -13.5408 -13.4586 -12.9237 -12.8669 -11.0513 -11.0248  -1.2262  -0.7671
    -0.3466   0.0360   9.8649   9.9186  11.6251  12.0917  12.2776  12.7752

          k =-0.3267 0.5658 0.0000 (  5480 PWs)   bands (ev):

   -13.3600 -13.2884 -13.0636 -13.0063 -11.1038 -11.0819  -1.0389  -0.6303
    -0.5098  -0.1187   9.8603   9.8882  11.7968  12.1039  12.2296  12.9150

          k =-0.3333 0.5774 0.0000 (  5484 PWs)   bands (ev):

   -13.2302 -13.1811 -13.1616 -13.1184 -11.1225 -11.1033  -0.9455  -0.5897
    -0.5711  -0.1892   9.8619   9.8740  11.8501  12.1633  12.1649  12.9582

          k =-0.3267 0.5774 0.0000 (  5480 PWs)   bands (ev):

   -13.2747 -13.2159 -13.1289 -13.0793 -11.1175 -11.0974  -0.9695  -0.6102
    -0.5444  -0.1720   9.8610   9.8783  11.8415  12.1260  12.1982  12.9495

          k =-0.3200 0.5774 0.0000 (  5488 PWs)   bands (ev):

   -13.3369 -13.2777 -13.0756 -13.0328 -11.1023 -11.0795  -1.0262  -0.6638
    -0.4787  -0.1301   9.8611   9.8884  11.8204  12.0848  12.2213  12.9252

          k =-0.3133 0.5774 0.0000 (  5484 PWs)   bands (ev):

   -13.3995 -13.3400 -13.0303 -12.9945 -11.0758 -11.0488  -1.0971  -0.7312
    -0.3983  -0.0759   9.8642   9.9027  11.7917  12.0410  12.2284  12.8887

          k =-0.3067 0.5774 0.0000 (  5484 PWs)   bands (ev):

   -13.4610 -13.4014 -12.9949 -12.9658 -11.0381 -11.0060  -1.1737  -0.8046
    -0.3127  -0.0167   9.8707   9.9210  11.7575  11.9946  12.2168  12.8414

          k =-0.3000 0.5774 0.0000 (  5480 PWs)   bands (ev):

   -13.5217 -13.4617 -12.9698 -12.9460 -10.9890 -10.9516  -1.2522  -0.8806
    -0.2261   0.0438   9.8808   9.9431  11.7194  11.9463  12.1859  12.7850

          k =-0.2933 0.5774 0.0000 (  5480 PWs)   bands (ev):

   -13.5811 -13.5209 -12.9548 -12.9345 -10.9289 -10.8864  -1.3311  -0.9573
    -0.1400   0.1039   9.8943   9.9690  11.6776  11.8963  12.1358  12.7200

          k =-0.2867 0.5774 0.0000 (  5478 PWs)   bands (ev):

   -13.6393 -13.5787 -12.9493 -12.9303 -10.8587 -10.8114  -1.4095  -1.0339
    -0.0555   0.1626   9.9114   9.9986  11.6329  11.8448  12.0680  12.6461

          k =-0.2800 0.5774 0.0000 (  5470 PWs)   bands (ev):

   -13.6961 -13.6352 -12.9522 -12.9323 -10.7791 -10.7277  -1.4870  -1.1098
     0.0270   0.2195   9.9319  10.0319  11.5855  11.7922  11.9851  12.5583

          k =-0.2733 0.5774 0.0000 (  5480 PWs)   bands (ev):

   -13.7518 -13.6906 -12.9624 -12.9403 -10.6914 -10.6366  -1.5636  -1.1851
     0.1070   0.2740   9.9556  10.0685  11.5345  11.7384  11.8888  12.4562

          k =-0.2667 0.5774 0.0000 (  5480 PWs)   bands (ev):

   -13.8061 -13.7446 -12.9780 -12.9532 -10.5967 -10.5390  -1.6385  -1.2587
     0.1845   0.3264   9.9822  10.1084  11.4794  11.6839  11.7832  12.3340

          k =-0.2600 0.5774 0.0000 (  5486 PWs)   bands (ev):

   -13.8591 -13.7974 -12.9981 -12.9705 -10.4962 -10.4363  -1.7119  -1.3307
     0.2594   0.3763  10.0114  10.1512  11.4171  11.6286  11.6728  12.1928

          k =-0.2533 0.5774 0.0000 (  5484 PWs)   bands (ev):

   -13.9108 -13.8488 -13.0217 -12.9915 -10.3903 -10.3287  -1.7837  -1.4014
     0.3314   0.4236  10.0426  10.1965  11.3428  11.5653  11.5722  12.0370

          k =-0.2467 0.5774 0.0000 (  5492 PWs)   bands (ev):

   -13.9613 -13.8989 -13.0481 -13.0155 -10.2805 -10.2176  -1.8539  -1.4705
     0.4000   0.4683  10.0751  10.2437  11.2491  11.4703  11.5142  11.8720

          k =-0.2400 0.5774 0.0000 (  5498 PWs)   bands (ev):

   -14.0103 -13.9477 -13.0765 -13.0418 -10.1673 -10.1037  -1.9223  -1.5380
     0.4650   0.5107  10.1076  10.2919  11.1341  11.3920  11.4524  11.7047

          k =-0.2333 0.5774 0.0000 (  5496 PWs)   bands (ev):

   -14.0580 -13.9951 -13.1066 -13.0700 -10.0512  -9.9870  -1.9890  -1.6037
     0.5263   0.5517  10.1381  10.3399  11.0045  11.3265  11.3782  11.5473

          k =-0.2267 0.5774 0.0000 (  5496 PWs)   bands (ev):

   -14.1043 -14.0412 -13.1377 -13.0995  -9.9329  -9.8684  -2.0540  -1.6678
     0.5785   0.5963  10.1629  10.3854  10.8709  11.2681  11.2697  11.4263

          k =-0.2200 0.5774 0.0000 (  5504 PWs)   bands (ev):

   -14.1494 -14.0861 -13.1697 -13.1300  -9.8130  -9.7487  -2.1173  -1.7303
     0.6168   0.6489  10.1747  10.4237  10.7441  11.1250  11.2147  11.3477

          k =-0.2133 0.5774 0.0000 (  5512 PWs)   bands (ev):

   -14.1931 -14.1295 -13.2020 -13.1609  -9.6918  -9.6277  -2.1793  -1.7914
     0.6495   0.7017  10.1594  10.4448  10.6405  10.9812  11.1636  11.2866

          k =-0.2067 0.5774 0.0000 (  5524 PWs)   bands (ev):

   -14.2355 -14.1717 -13.2346 -13.1923  -9.5698  -9.5063  -2.2392  -1.8508
     0.6793   0.7521  10.0994  10.4266  10.5785  10.8716  11.1144  11.2316

          k =-0.2000 0.5774 0.0000 (  5524 PWs)   bands (ev):

   -14.2766 -14.2125 -13.2671 -13.2238  -9.4473  -9.3843  -2.2971  -1.9079
     0.7068   0.7999   9.9934  10.3451  10.5599  10.8235  11.0669  11.1798

          k =-0.1933 0.5774 0.0000 (  5522 PWs)   bands (ev):

   -14.3163 -14.2520 -13.2994 -13.2552  -9.3248  -9.2624  -2.3531  -1.9633
     0.7321   0.8446   9.8577  10.2113  10.5690  10.8266  11.0211  11.1303

          k =-0.1867 0.5774 0.0000 (  5534 PWs)   bands (ev):

   -14.3548 -14.2903 -13.3315 -13.2865  -9.2025  -9.1412  -2.4073  -2.0168
     0.7552   0.8870   9.7067  10.0518  10.5913  10.8528  10.9767  11.0827

          k =-0.1800 0.5774 0.0000 (  5526 PWs)   bands (ev):

   -14.3919 -14.3270 -13.3630 -13.3172  -9.0806  -9.0202  -2.4596  -2.0685
     0.7767   0.9268   9.5489   9.8828  10.6188  10.8861  10.9344  11.0376

          k =-0.1733 0.5774 0.0000 (  5524 PWs)   bands (ev):

   -14.4276 -14.3625 -13.3939 -13.3474  -8.9597  -8.9004  -2.5098  -2.1183
     0.7961   0.9639   9.3876   9.7101  10.6472  10.8917  10.9194  10.9974

          k =-0.1667 0.5774 0.0000 (  5518 PWs)   bands (ev):

   -14.4619 -14.3966 -13.4241 -13.3770  -8.8399  -8.7816  -2.5581  -2.1660
     0.8138   0.9988   9.2256   9.5374  10.6736  10.8546  10.9258  10.9802

          k =-0.1600 0.5774 0.0000 (  5522 PWs)   bands (ev):

   -14.4949 -14.4294 -13.4535 -13.4059  -8.7215  -8.6643  -2.6049  -2.2123
     0.8296   1.0310   9.0639   9.3660  10.6948  10.8213  10.8950  10.9974

          k =-0.1533 0.5774 0.0000 (  5516 PWs)   bands (ev):

   -14.5265 -14.4609 -13.4821 -13.4339  -8.6048  -8.5486  -2.6497  -2.2566
     0.8441   1.0612   8.9039   9.1972  10.7049  10.7977  10.8570  11.0177

          k =-0.1467 0.5774 0.0000 (  5508 PWs)   bands (ev):

   -14.5568 -14.4910 -13.5097 -13.4611  -8.4900  -8.4349  -2.6927  -2.2992
     0.8570   1.0890   8.7463   9.0316  10.6962  10.7907  10.8196  11.0330

          k =-0.1400 0.5774 0.0000 (  5516 PWs)   bands (ev):

   -14.5859 -14.5199 -13.5365 -13.4874  -8.3777  -8.3236  -2.7340  -2.3399
     0.8686   1.1147   8.5914   8.8696  10.6727  10.7796  10.8000  11.0424

          k =-0.1333 0.5774 0.0000 (  5520 PWs)   bands (ev):

   -14.6136 -14.5474 -13.5623 -13.5128  -8.2678  -8.2148  -2.7732  -2.3788
     0.8789   1.1383   8.4400   8.7118  10.6439  10.7450  10.8088  11.0461

          k =-0.1267 0.5774 0.0000 (  5508 PWs)   bands (ev):

   -14.6398 -14.5734 -13.5868 -13.5368  -8.1605  -8.1087  -2.8104  -2.4156
     0.8881   1.1602   8.2929   8.5588  10.6140  10.7110  10.8180  11.0449

          k =-0.1200 0.5774 0.0000 (  5508 PWs)   bands (ev):

   -14.6648 -14.5982 -13.6103 -13.5600  -8.0563  -8.0058  -2.8459  -2.4506
     0.8964   1.1802   8.1502   8.4110  10.5843  10.6784  10.8255  11.0395

          k =-0.1133 0.5774 0.0000 (  5526 PWs)   bands (ev):

   -14.6885 -14.6217 -13.6328 -13.5822  -7.9562  -7.9069  -2.8797  -2.4842
     0.9033   1.1982   8.0122   8.2684  10.5556  10.6473  10.8308  11.0307

          k =-0.1067 0.5774 0.0000 (  5538 PWs)   bands (ev):

   -14.7108 -14.6439 -13.6541 -13.6032  -7.8593  -7.8115  -2.9115  -2.5157
     0.9095   1.2146   7.8795   8.1317  10.5282  10.6179  10.8341  11.0198

          k =-0.1000 0.5774 0.0000 (  5530 PWs)   bands (ev):

   -14.7317 -14.6647 -13.6741 -13.6229  -7.7663  -7.7195  -2.9412  -2.5450
     0.9150   1.2299   7.7528   8.0015  10.5022  10.5902  10.8357  11.0072

          k =-0.0933 0.5774 0.0000 (  5524 PWs)   bands (ev):

   -14.7513 -14.6841 -13.6929 -13.6415  -7.6772  -7.6318  -2.9691  -2.5726
     0.9204   1.2437   7.6322   7.8775  10.4776  10.5642  10.8357  10.9937

          k =-0.0867 0.5774 0.0000 (  5534 PWs)   bands (ev):

   -14.7695 -14.7022 -13.7106 -13.6590  -7.5931  -7.5488  -2.9952  -2.5983
     0.9244   1.2561   7.5178   7.7604  10.4546  10.5398  10.8344  10.9797

          k =-0.0800 0.5774 0.0000 (  5542 PWs)   bands (ev):

   -14.7864 -14.7190 -13.7271 -13.6754  -7.5138  -7.4705  -3.0193  -2.6222
     0.9280   1.2673   7.4102   7.6504  10.4332  10.5172  10.8322  10.9656

          k =-0.0733 0.5774 0.0000 (  5546 PWs)   bands (ev):

   -14.8020 -14.7344 -13.7424 -13.6904  -7.4395  -7.3972  -3.0413  -2.6440
     0.9310   1.2773   7.3099   7.5479  10.4134  10.4963  10.8292  10.9518

          k =-0.0667 0.5774 0.0000 (  5538 PWs)   bands (ev):

   -14.8162 -14.7485 -13.7563 -13.7041  -7.3706  -7.3291  -3.0614  -2.6638
     0.9337   1.2863   7.2172   7.4533  10.3953  10.4773  10.8258  10.9386

          k =-0.0600 0.5774 0.0000 (  5542 PWs)   bands (ev):

   -14.8290 -14.7613 -13.7689 -13.7165  -7.3074  -7.2667  -3.0797  -2.6819
     0.9359   1.2942   7.1320   7.3666  10.3788  10.4600  10.8220  10.9261

          k =-0.0533 0.5774 0.0000 (  5542 PWs)   bands (ev):

   -14.8405 -14.7726 -13.7801 -13.7276  -7.2500  -7.2102  -3.0961  -2.6982
     0.9377   1.3011   7.0550   7.2883  10.3641  10.4445  10.8182  10.9145

          k =-0.0467 0.5774 0.0000 (  5550 PWs)   bands (ev):

   -14.8506 -14.7827 -13.7901 -13.7374  -7.1990  -7.1602  -3.1106  -2.7125
     0.9396   1.3068   6.9864   7.2185  10.3510  10.4309  10.8145  10.9042

          k =-0.0400 0.5774 0.0000 (  5554 PWs)   bands (ev):

   -14.8594 -14.7914 -13.7988 -13.7460  -7.1542  -7.1161  -3.1231  -2.7249
     0.9409   1.3118   6.9264   7.1575  10.3396  10.4190  10.8110  10.8950

          k =-0.0333 0.5774 0.0000 (  5538 PWs)   bands (ev):

   -14.8668 -14.7987 -13.8060 -13.7532  -7.1157  -7.0781  -3.1332  -2.7349
     0.9421   1.3163   6.8754   7.1057  10.3300  10.4090  10.8078  10.8871

          k =-0.0267 0.5774 0.0000 (  5534 PWs)   bands (ev):

   -14.8728 -14.8048 -13.8120 -13.7592  -7.0840  -7.0467  -3.1421  -2.7436
     0.9429   1.3198   6.8333   7.0631  10.3222  10.4007  10.8052  10.8805

          k =-0.0200 0.5774 0.0000 (  5538 PWs)   bands (ev):

   -14.8776 -14.8095 -13.8168 -13.7638  -7.0593  -7.0224  -3.1488  -2.7503
     0.9434   1.3225   6.8004   7.0296  10.3160  10.3943  10.8030  10.8754

          k =-0.0133 0.5774 0.0000 (  5536 PWs)   bands (ev):

   -14.8810 -14.8128 -13.8202 -13.7672  -7.0412  -7.0048  -3.1536  -2.7551
     0.9439   1.3243   6.7767   7.0056  10.3116  10.3897  10.8014  10.8716

          k =-0.0067 0.5774 0.0000 (  5540 PWs)   bands (ev):

   -14.8830 -14.8149 -13.8222 -13.7692  -7.0305  -6.9944  -3.1565  -2.7579
     0.9442   1.3254   6.7625   6.9912  10.3090  10.3869  10.8004  10.8694

          k = 0.0000 0.5774 0.0000 (  5540 PWs)   bands (ev):

   -14.8837 -14.8155 -13.8229 -13.7698  -7.0274  -6.9909  -3.1575  -2.7589
     0.9439   1.3258   6.7578   6.9864  10.3081  10.3860  10.8001  10.8686

          k = 0.0000 0.5658 0.0000 (  5536 PWs)   bands (ev):

   -14.9312 -14.8519 -13.7833 -13.7182  -7.0246  -6.9885  -3.1796  -2.7663
     0.9585   1.3486   6.7591   6.9875  10.0515  10.5224  10.6651  11.1259

          k = 0.0000 0.5543 0.0000 (  5526 PWs)   bands (ev):

   -15.0495 -14.9529 -13.6712 -13.5895  -7.0174  -6.9812  -3.2426  -2.7904
     1.0018   1.4147   6.7630   6.9911   9.7625  10.2433  10.9544  11.3853

          k = 0.0000 0.5427 0.0000 (  5538 PWs)   bands (ev):

   -15.2045 -15.0960 -13.5096 -13.4181  -7.0059  -6.9697  -3.3394  -2.8347
     1.0750   1.5187   6.7692   6.9967   9.4766   9.9572  11.1987  11.2600

          k = 0.0000 0.5312 0.0000 (  5538 PWs)   bands (ev):

   -15.3768 -15.2606 -13.3190 -13.2229  -6.9894  -6.9532  -3.4623  -2.9008
     1.1792   1.6546   6.7782   7.0046   9.1952   9.6745  10.9115  11.5607

          k = 0.0000 0.5196 0.0000 (  5546 PWs)   bands (ev):

   -15.5568 -15.4357 -13.1110 -13.0129  -6.9683  -6.9321  -3.6044  -2.9885
     1.3123   1.8160   6.7895   7.0146   8.9187   9.3961  10.6232  11.5220

          k = 0.0000 0.5081 0.0000 (  5546 PWs)   bands (ev):

   -15.7401 -15.6151 -12.8914 -12.7929  -6.9426  -6.9064  -3.7605  -3.0948
     1.4716   1.9989   6.8033   7.0267   8.6474   9.1226  10.3392  11.3058

          k = 0.0000 0.4965 0.0000 (  5544 PWs)   bands (ev):

   -15.9237 -15.7957 -12.6636 -12.5659  -6.9123  -6.8759  -3.9265  -3.2171
     1.6541   2.1991   6.8195   7.0406   8.3818   8.8543  10.0605  11.0822

          k = 0.0000 0.4850 0.0000 (  5532 PWs)   bands (ev):

   -16.1062 -15.9757 -12.4293 -12.3331  -6.8772  -6.8409  -4.1000  -3.3521
     1.8565   2.4134   6.8380   7.0562   8.1223   8.5914   9.7875  10.8569

          k = 0.0000 0.4734 0.0000 (  5518 PWs)   bands (ev):

   -16.2868 -16.1540 -12.1901 -12.0953  -6.8377  -6.8011  -4.2781  -3.4968
     2.0757   2.6399   6.8582   7.0724   7.8699   8.3343   9.5203  10.6317

          k = 0.0000 0.4619 0.0000 (  5524 PWs)   bands (ev):

   -16.4651 -16.3301 -11.9467 -11.8536  -6.7937  -6.7572  -4.4594  -3.6491
     2.3087   2.8753   6.8795   7.0873   7.6267   8.0832   9.2591  10.3574

          k = 0.0000 0.4503 0.0000 (  5528 PWs)   bands (ev):

   -16.6403 -16.5032 -11.6997 -11.6082  -6.7452  -6.7088  -4.6421  -3.8066
     2.5531   3.1182   6.9002   7.0938   7.4014   7.8385   9.0041  10.1062

          k = 0.0000 0.4388 0.0000 (  5528 PWs)   bands (ev):

   -16.8123 -16.6732 -11.4493 -11.3597  -6.6924  -6.6562  -4.8250  -3.9674
     2.8076   3.3681   6.9115   7.0520   7.2423   7.6013   8.7554   9.8593

          k = 0.0000 0.4272 0.0000 (  5536 PWs)   bands (ev):

   -16.9808 -16.8398 -11.1962 -11.1088  -6.6352  -6.5994  -5.0073  -4.1301
     3.0698   3.6232   6.8263   6.9836   7.2101   7.3752   8.5131   9.6193

          k = 0.0000 0.4157 0.0000 (  5540 PWs)   bands (ev):

   -17.1455 -17.0025 -10.9403 -10.8550  -6.5740  -6.5383  -5.1884  -4.2940
     3.3380   3.8825   6.6275   6.9740   7.1646   7.2329   8.2774   9.3854

          k = 0.0000 0.4041 0.0000 (  5540 PWs)   bands (ev):

   -17.3064 -17.1617 -10.6822 -10.5992  -6.5086  -6.4729  -5.3672  -4.4576
     3.6116   4.1451   6.4149   6.8659   7.0858   7.2512   8.0486   9.1578

          k = 0.0000 0.3926 0.0000 (  5536 PWs)   bands (ev):

   -17.4631 -17.3169 -10.4221 -10.3413  -6.4392  -6.4035  -5.5436  -4.6197
     3.8889   4.4102   6.2037   6.6711   7.0998   7.2765   7.8275   8.9370

          k = 0.0000 0.3811 0.0000 (  5524 PWs)   bands (ev):

   -17.6159 -17.4679 -10.1602 -10.0816  -6.3656  -6.3303  -5.7164  -4.7807
     4.1688   4.6770   5.9968   6.4686   7.1298   7.3003   7.6171   8.7220

          k = 0.0000 0.3695 0.0000 (  5534 PWs)   bands (ev):

   -17.7648 -17.6153  -9.8973  -9.8207  -6.2886  -6.2535  -5.8864  -4.9391
     4.4495   4.9443   5.7953   6.2706   7.1621   7.3012   7.4394   8.5134

          k = 0.0000 0.3580 0.0000 (  5528 PWs)   bands (ev):

   -17.9093 -17.7584  -9.6328  -9.5585  -6.2078  -6.1727  -6.0528  -5.0948
     4.7290   5.2099   5.6010   6.0813   7.1461   7.2239   7.3986   8.3117

          k = 0.0000 0.3464 0.0000 (  5528 PWs)   bands (ev):

   -18.0496 -17.8974  -9.3675  -9.2954  -6.2152  -6.1235  -6.0887  -5.2474
     5.0012   5.3913   5.4938   5.9083   6.9719   7.2496   7.4197   8.1169

          k = 0.0000 0.3349 0.0000 (  5526 PWs)   bands (ev):

   -18.1857 -18.0321  -9.1017  -9.0319  -6.3735  -6.0358  -6.0013  -5.3967
     5.1988   5.2686   5.6910   5.8204   6.7854   7.2876   7.4461   7.9297

          k = 0.0000 0.3233 0.0000 (  5526 PWs)   bands (ev):

   -18.3174 -18.1625  -8.8356  -8.7681  -6.5275  -5.9447  -5.9107  -5.5423
     5.0373   5.3581   5.7419   6.0352   6.6027   7.3249   7.4696   7.7522

          k = 0.0000 0.3118 0.0000 (  5514 PWs)   bands (ev):

   -18.4446 -18.2885  -8.5701  -8.5042  -6.6769  -5.8510  -5.8173  -5.6836
     4.8659   5.2606   5.9545   6.2896   6.4290   7.3552   7.4807   7.5942

          k = 0.0000 0.3002 0.0000 (  5514 PWs)   bands (ev):

   -18.5677 -18.4102  -8.3050  -8.2412  -6.8218  -5.8213  -5.7546  -5.7212
     4.6996   5.1140   6.2158   6.2505   6.5539   7.3331   7.4471   7.5215

          k = 0.0000 0.2887 0.0000 (  5500 PWs)   bands (ev):

   -18.6860 -18.5274  -8.0405  -7.9789  -6.9619  -5.9546  -5.6555  -5.6224
     4.5392   4.9615   6.0855   6.4859   6.8021   7.2084   7.4186   7.5214

          k = 0.0000 0.2771 0.0000 (  5518 PWs)   bands (ev):

   -18.8002 -18.6404  -7.7775  -7.7183  -7.0972  -6.0838  -5.5547  -5.5217
     4.3848   4.8108   5.9267   6.7453   7.0216   7.0739   7.3689   7.5505

          k = 0.0000 0.2656 0.0000 (  5518 PWs)   bands (ev):

   -18.9099 -18.7488  -7.5162  -7.4593  -7.2272  -6.2084  -5.4517  -5.4189
     4.2366   4.6645   5.7741   6.8636   7.0617   7.1328   7.4040   7.6005

          k = 0.0000 0.2540 0.0000 (  5514 PWs)   bands (ev):

   -19.0150 -18.8529  -7.3534  -7.2560  -7.2022  -6.3281  -5.3467  -5.3144
     4.0946   4.5233   5.6278   6.7459   7.0464   7.3158   7.5451   7.6984

          k = 0.0000 0.2425 0.0000 (  5514 PWs)   bands (ev):

   -19.1156 -18.9524  -7.4727  -7.0005  -6.9484  -6.4430  -5.2407  -5.2088
     3.9587   4.3879   5.4879   6.6126   6.9411   7.5579   7.6242   7.8292

          k = 0.0000 0.2309 0.0000 (  5518 PWs)   bands (ev):

   -19.2116 -19.0474  -7.5875  -6.7477  -6.6983  -6.5528  -5.1338  -5.1022
     3.8291   4.2583   5.3545   6.4827   6.8296   7.6673   7.7571   7.9150

          k = 0.0000 0.2194 0.0000 (  5518 PWs)   bands (ev):

   -19.3031 -19.1379  -7.6970  -6.6589  -6.4985  -6.4508  -5.0261  -4.9950
     3.7058   4.1348   5.2275   6.3582   6.7191   7.7070   7.8291   8.1120

          k = 0.0000 0.2078 0.0000 (  5524 PWs)   bands (ev):

   -19.3900 -19.2239  -7.8012  -6.7588  -6.2544  -6.2090  -4.9184  -4.8878
     3.5887   4.0174   5.1070   6.2394   6.6120   7.7413   7.8600   8.3174

          k = 0.0000 0.1963 0.0000 (  5528 PWs)   bands (ev):

   -19.4722 -19.3053  -7.9000  -6.8537  -6.0160  -5.9722  -4.8111  -4.7810
     3.4780   3.9062   4.9930   6.1269   6.5095   7.7721   7.8813   8.3290

          k = 0.0000 0.1848 0.0000 (  5534 PWs)   bands (ev):

   -19.5499 -19.3822  -7.9934  -6.9436  -5.7833  -5.7415  -4.7047  -4.6751
     3.3735   3.8013   4.8855   6.0207   6.4120   7.7984   7.8957   8.2539

          k = 0.0000 0.1732 0.0000 (  5522 PWs)   bands (ev):

   -19.6228 -19.4542  -8.0811  -7.0281  -5.5574  -5.5180  -4.5995  -4.5704
     3.2753   3.7026   4.7845   5.9207   6.3199   7.8216   7.9039   8.1763

          k = 0.0000 0.1617 0.0000 (  5518 PWs)   bands (ev):

   -19.6911 -19.5218  -8.1634  -7.1073  -5.3392  -5.3017  -4.4965  -4.4679
     3.1834   3.6102   4.6900   5.8272   6.2334   7.8394   7.9035   8.1064

          k = 0.0000 0.1501 0.0000 (  5526 PWs)   bands (ev):

   -19.7548 -19.5849  -8.2404  -7.1814  -5.1297  -5.0941  -4.3960  -4.3682
     3.0979   3.5242   4.6020   5.7401   6.1525   7.8498   7.8907   8.0505

          k = 0.0000 0.1386 0.0000 (  5518 PWs)   bands (ev):

   -19.8137 -19.6432  -8.3115  -7.2500  -4.9295  -4.8961  -4.2987  -4.2714
     3.0187   3.4445   4.5206   5.6593   6.0775   7.8407   7.8767   8.0129

          k = 0.0000 0.1270 0.0000 (  5520 PWs)   bands (ev):

   -19.8680 -19.6970  -8.3771  -7.3133  -4.7402  -4.7085  -4.2059  -4.1791
     2.9458   3.3711   4.4456   5.5850   6.0083   7.8015   7.8765   7.9898

          k = 0.0000 0.1155 0.0000 (  5520 PWs)   bands (ev):

   -19.9177 -19.7461  -8.4371  -7.3713  -4.5628  -4.5327  -4.1173  -4.0910
     2.8792   3.3040   4.3771   5.5172   5.9451   7.7536   7.8770   7.9727

          k = 0.0000 0.1039 0.0000 (  5510 PWs)   bands (ev):

   -19.9625 -19.7904  -8.4914  -7.4237  -4.3978  -4.3692  -4.0342  -4.0084
     2.8190   3.2434   4.3152   5.4558   5.8878   7.7048   7.8758   7.9581

          k = 0.0000 0.0924 0.0000 (  5514 PWs)   bands (ev):

   -20.0027 -19.8302  -8.5400  -7.4705  -4.2469  -4.2199  -3.9575  -3.9323
     2.7651   3.1891   4.2598   5.4008   5.8365   7.6594   7.8707   7.9431

          k = 0.0000 0.0808 0.0000 (  5512 PWs)   bands (ev):

   -20.0381 -19.8653  -8.5829  -7.5120  -4.1111  -4.0849  -3.8873  -3.8628
     2.7175   3.1412   4.2109   5.3523   5.7913   7.6185   7.8643   7.9281

          k = 0.0000 0.0693 0.0000 (  5522 PWs)   bands (ev):

   -20.0689 -19.8958  -8.6203  -7.5482  -3.9905  -3.9653  -3.8251  -3.8011
     2.6763   3.0996   4.1685   5.3102   5.7520   7.5823   7.8565   7.9125

          k = 0.0000 0.0577 0.0000 (  5516 PWs)   bands (ev):

   -20.0949 -19.9216  -8.6520  -7.5788  -3.8862  -3.8620  -3.7709  -3.7474
     2.6415   3.0645   4.1327   5.2747   5.7188   7.5515   7.8483   7.8986

          k = 0.0000 0.0462 0.0000 (  5500 PWs)   bands (ev):

   -20.1162 -19.9426  -8.6779  -7.6038  -3.7993  -3.7758  -3.7249  -3.7019
     2.6129   3.0357   4.1034   5.2456   5.6916   7.5264   7.8404   7.8849

          k = 0.0000 0.0346 0.0000 (  5502 PWs)   bands (ev):

   -20.1328 -19.9590  -8.6980  -7.6233  -3.7313  -3.7083  -3.6893  -3.6665
     2.5908   3.0133   4.0805   5.2229   5.6705   7.5065   7.8332   7.8769

          k = 0.0000 0.0231 0.0000 (  5489 PWs)   bands (ev):

   -20.1446 -19.9707  -8.7123  -7.6371  -3.6817  -3.6634  -3.6590  -3.6408
     2.5749   2.9974   4.0643   5.2068   5.6554   7.4929   7.8282   7.8637

          k = 0.0000 0.0115 0.0000 (  5497 PWs)   bands (ev):

   -20.1517 -19.9778  -8.7210  -7.6455  -3.6526  -3.6479  -3.6303  -3.6255
     2.5654   2.9878   4.0545   5.1971   5.6463   7.4840   7.8238   7.8327

          k = 0.0000 0.0000 0.0000 (  5505 PWs)   bands (ev):

   -20.1542 -19.9802  -8.7240  -7.6484  -3.6426  -3.6426  -3.6203  -3.6202
     2.5622   2.9846   4.0512   5.1938   5.6433   7.4812   7.8221   7.8223

     Writing all to output data dir ./tmp/C2L_AB_PBE_vdW.save/

     init_run     :      9.34s CPU      9.40s WALL (       1 calls)
     electrons    :     21.02s CPU     20.97s WALL (       1 calls)

     Called by init_run:
     wfcinit      :      0.00s CPU      0.00s WALL (       1 calls)
     wfcinit:atom :      0.03s CPU      0.03s WALL (     151 calls)
     wfcinit:wfcr :      1.06s CPU      1.07s WALL (     151 calls)
     potinit      :      9.00s CPU      9.05s WALL (       1 calls)
     hinit0       :      0.31s CPU      0.31s WALL (       1 calls)

     Called by electrons:
     c_bands      :     21.01s CPU     20.97s WALL (       1 calls)
     v_of_rho     :      9.00s CPU      9.05s WALL (       1 calls)
     v_h          :      0.00s CPU      0.00s WALL (       1 calls)
     v_xc         :      9.00s CPU      9.05s WALL (       1 calls)
     vdW_kernel   :      8.95s CPU      9.00s WALL (       1 calls)

     Called by c_bands:
     init_us_2    :      0.02s CPU      0.02s WALL (     151 calls)
     init_us_2:cp :      0.02s CPU      0.02s WALL (     151 calls)
     cegterg      :     19.75s CPU     19.67s WALL (     262 calls)

     Called by sum_band:

     Called by *egterg:
     cdiaghg      :      1.38s CPU      1.40s WALL (    4120 calls)
     cegterg:over :      1.54s CPU      1.57s WALL (    3969 calls)
     cegterg:upda :      1.36s CPU      1.26s WALL (    3969 calls)
     cegterg:last :      1.90s CPU      1.44s WALL (    1926 calls)
     h_psi        :     13.81s CPU     14.09s WALL (    4382 calls)
     g_psi        :      0.13s CPU      0.19s WALL (    3969 calls)

     Called by h_psi:
     h_psi:calbec :      1.00s CPU      1.03s WALL (    4382 calls)
     vloc_psi     :     11.48s CPU     11.90s WALL (    4382 calls)
     add_vuspsi   :      1.22s CPU      1.04s WALL (    4382 calls)

     General routines
     calbec       :      0.99s CPU      1.02s WALL (    4382 calls)
     fft          :      0.28s CPU      0.28s WALL (      61 calls)
     fftw         :     10.29s CPU     10.62s WALL (   67206 calls)
     davcio       :      0.00s CPU      0.03s WALL (     302 calls)

     Parallel routines

     PWSCF        :     30.72s CPU     30.91s WALL


   This run was terminated on:  17:11:41  15Apr2024            

=------------------------------------------------------------------------------=
   JOB DONE.
=------------------------------------------------------------------------------=
