
     Program PWSCF v.7.0 starts on 14Apr2025 at 14:57:46 

     This program is part of the open-source Quantum ESPRESSO suite
     for quantum simulation of materials; please cite
         "P. Giannozzi et al., J. Phys.:Condens. Matter 21 395502 (2009);
         "P. Giannozzi et al., J. Phys.:Condens. Matter 29 465901 (2017);
         "P. Giannozzi et al., J. Chem. Phys. 152 154105 (2020);
          URL http://www.quantum-espresso.org", 
     in publications or presentations arising from this work. More details at
     http://www.quantum-espresso.org/quote

     Parallel version (MPI & OpenMP), running on       8 processor cores
     Number of MPI processes:                 8
     Threads/MPI process:                     1

     MPI processes distributed on     1 nodes
     R & G space division:  proc/nbgrp/npool/nimage =       8
     0 MiB available memory on the printing compute node when the environment starts

     Waiting for input...
     Reading input from standard input
Warning: card &CELL ignored
Warning: card CELL_DOFREE = 'ALL' ignored
Warning: card / ignored

     Current dimensions of program PWSCF are:
     Max number of different atomic species (ntypx) = 10
     Max number of k-points (npk) =  40000
     Max angular momentum in pseudopotentials (lmaxx) =  4

     IMPORTANT: XC functional enforced from input :
     Exchange-correlation= VDW-DF2-B86R
                           (   1   4  26   0   2   0   0)
     Any further DFT definition will be discarded
     Please, verify this is what you really want


     Subspace diagonalization in iterative solution of the eigenvalue problem:
     one sub-group per band group will be used
     scalapack distributed-memory algorithm (size of sub-group:  2*  2 procs)


     Parallelization info
     --------------------
     sticks:   dense  smooth     PW     G-vecs:    dense   smooth      PW
     Min          59      59     18                 8477     8477    1422
     Max          60      60     19                 8510     8510    1439
     Sum         475     475    151                67911    67911   11451

     Using Slab Decomposition



     bravais-lattice index     =            4
     lattice parameter (alat)  =       4.6651  a.u.
     unit-cell volume          =     703.4109 (a.u.)^3
     number of atoms/cell      =            4
     number of atomic types    =            1
     number of electrons       =        16.00
     number of Kohn-Sham states=           12
     kinetic-energy cutoff     =      80.0000  Ry
     charge density cutoff     =     320.0000  Ry
     scf convergence threshold =      1.0E-06
     mixing beta               =       0.7000
     number of iterations used =            8  plain     mixing
     Exchange-correlation= VDW-DF2-B86R
                           (   1   4  26   0   2   0   0)

     celldm(1)=   4.665120  celldm(2)=   0.000000  celldm(3)=   8.000000
     celldm(4)=   0.000000  celldm(5)=   0.000000  celldm(6)=   0.000000

     crystal axes: (cart. coord. in units of alat)
               a(1) = (   1.000000   0.000000   0.000000 )  
               a(2) = (  -0.500000   0.866025   0.000000 )  
               a(3) = (   0.000000   0.000000   8.000000 )  

     reciprocal axes: (cart. coord. in units 2 pi/alat)
               b(1) = (  1.000000  0.577350 -0.000000 )  
               b(2) = (  0.000000  1.154701  0.000000 )  
               b(3) = (  0.000000 -0.000000  0.125000 )  


     PseudoPot. # 1 for C  read from file:
     ../../../../Pseudo/PBE/C.upf
     MD5 check sum: 34a24e64c0a39f27c6c36b90a16ac686
     Pseudo is Norm-conserving + core correction, Zval =  4.0
     Generated using ONCVPSP code by D. R. Hamann
     Using radial grid of 1248 points,  4 beta functions with: 
                l(1) =   0
                l(2) =   0
                l(3) =   1
                l(4) =   1

     atomic species   valence    mass     pseudopotential
        C              4.00    12.01100     C ( 1.00)

      6 Sym. Ops. (no inversion) found


                                    s                        frac. trans.

      isym =  1     identity                                     

 cryst.   s( 1) = (     1          0          0      )
                  (     0          1          0      )
                  (     0          0          1      )

 cart.    s( 1) = (  1.0000000  0.0000000  0.0000000 )
                  (  0.0000000  1.0000000  0.0000000 )
                  (  0.0000000  0.0000000  1.0000000 )


      isym =  2     120 deg rotation - cryst. axis [0,0,1]       

 cryst.   s( 2) = (     0          1          0      )
                  (    -1         -1          0      )
                  (     0          0          1      )

 cart.    s( 2) = ( -0.5000000 -0.8660254  0.0000000 )
                  (  0.8660254 -0.5000000  0.0000000 )
                  (  0.0000000  0.0000000  1.0000000 )


      isym =  3     120 deg rotation - cryst. axis [0,0,-1]      

 cryst.   s( 3) = (    -1         -1          0      )
                  (     1          0          0      )
                  (     0          0          1      )

 cart.    s( 3) = ( -0.5000000  0.8660254  0.0000000 )
                  ( -0.8660254 -0.5000000  0.0000000 )
                  (  0.0000000  0.0000000  1.0000000 )


      isym =  4     inv. 180 deg rotation - cart. axis [1,0,0]   

 cryst.   s( 4) = (    -1          0          0      )
                  (     1          1          0      )
                  (     0          0          1      )

 cart.    s( 4) = ( -1.0000000  0.0000000  0.0000000 )
                  (  0.0000000  1.0000000  0.0000000 )
                  (  0.0000000  0.0000000  1.0000000 )


      isym =  5     inv. 180 deg rotation - cryst. axis [0,1,0]  

 cryst.   s( 5) = (     1          1          0      )
                  (     0         -1          0      )
                  (     0          0          1      )

 cart.    s( 5) = (  0.5000000  0.8660254  0.0000000 )
                  (  0.8660254 -0.5000000  0.0000000 )
                  (  0.0000000  0.0000000  1.0000000 )


      isym =  6     inv. 180 deg rotation - cryst. axis [1,1,0]  

 cryst.   s( 6) = (     0         -1          0      )
                  (    -1          0          0      )
                  (     0          0          1      )

 cart.    s( 6) = (  0.5000000 -0.8660254  0.0000000 )
                  ( -0.8660254 -0.5000000  0.0000000 )
                  (  0.0000000  0.0000000  1.0000000 )


     point group C_3v (3m)  
     there are  3 classes
     the character table:

       E     2C3   3s_v 
A_1    1.00  1.00  1.00
A_2    1.00  1.00 -1.00
E      2.00 -1.00  0.00

     the symmetry operations in each class and the name of the first element:

     E        1
          identity                                               
     2C3      2    3
          120 deg rotation - cryst. axis [0,0,1]                 
     3s_v     4    5    6
          inv. 180 deg rotation - cart. axis [1,0,0]             

   Cartesian axes

     site n.     atom                  positions (alat units)
         1           C   tau(   1) = (   0.0000000   0.0000000   0.0000000  )
         2           C   tau(   2) = (   0.0000000   0.0000000   1.3400504  )
         3           C   tau(   3) = (   0.5000005   0.2886748   0.0000000  )
         4           C   tau(   4) = (  -0.0000005   0.5773506   1.3403051  )

   Crystallographic axes

     site n.     atom                  positions (cryst. coord.)
         1           C   tau(   1) = (  0.0000000  0.0000000  0.0000000  )
         2           C   tau(   2) = (  0.0000000  0.0000000  0.1675063  )
         3           C   tau(   3) = (  0.6666670  0.3333330  0.0000000  )
         4           C   tau(   4) = (  0.3333330  0.6666670  0.1675381  )

     number of k points=    19  Marzari-Vanderbilt smearing, width (Ry)=  0.0050
                       cart. coord. in units 2pi/alat
        k(    1) = (   0.0000000   0.0000000   0.0000000), wk =   0.0138889
        k(    2) = (   0.0000000   0.0962250   0.0000000), wk =   0.0833333
        k(    3) = (   0.0000000   0.1924501   0.0000000), wk =   0.0833333
        k(    4) = (   0.0000000   0.2886751   0.0000000), wk =   0.0833333
        k(    5) = (   0.0000000   0.3849002   0.0000000), wk =   0.0833333
        k(    6) = (   0.0000000   0.4811252   0.0000000), wk =   0.0833333
        k(    7) = (   0.0000000  -0.5773503   0.0000000), wk =   0.0416667
        k(    8) = (   0.0833333   0.1443376   0.0000000), wk =   0.0833333
        k(    9) = (   0.0833333   0.2405626   0.0000000), wk =   0.1666667
        k(   10) = (   0.0833333   0.3367877   0.0000000), wk =   0.1666667
        k(   11) = (   0.0833333   0.4330127   0.0000000), wk =   0.1666667
        k(   12) = (   0.0833333   0.5292377   0.0000000), wk =   0.1666667
        k(   13) = (   0.1666667   0.2886751   0.0000000), wk =   0.0833333
        k(   14) = (   0.1666667   0.3849002   0.0000000), wk =   0.1666667
        k(   15) = (   0.1666667   0.4811252   0.0000000), wk =   0.1666667
        k(   16) = (   0.1666667   0.5773503   0.0000000), wk =   0.0833333
        k(   17) = (   0.2500000   0.4330127   0.0000000), wk =   0.0833333
        k(   18) = (   0.2500000   0.5292377   0.0000000), wk =   0.1666667
        k(   19) = (   0.3333333   0.5773503   0.0000000), wk =   0.0277778

                       cryst. coord.
        k(    1) = (   0.0000000   0.0000000   0.0000000), wk =   0.0138889
        k(    2) = (   0.0000000   0.0833333   0.0000000), wk =   0.0833333
        k(    3) = (   0.0000000   0.1666667   0.0000000), wk =   0.0833333
        k(    4) = (   0.0000000   0.2500000   0.0000000), wk =   0.0833333
        k(    5) = (   0.0000000   0.3333333   0.0000000), wk =   0.0833333
        k(    6) = (   0.0000000   0.4166667   0.0000000), wk =   0.0833333
        k(    7) = (   0.0000000  -0.5000000   0.0000000), wk =   0.0416667
        k(    8) = (   0.0833333   0.0833333   0.0000000), wk =   0.0833333
        k(    9) = (   0.0833333   0.1666667   0.0000000), wk =   0.1666667
        k(   10) = (   0.0833333   0.2500000   0.0000000), wk =   0.1666667
        k(   11) = (   0.0833333   0.3333333   0.0000000), wk =   0.1666667
        k(   12) = (   0.0833333   0.4166667   0.0000000), wk =   0.1666667
        k(   13) = (   0.1666667   0.1666667   0.0000000), wk =   0.0833333
        k(   14) = (   0.1666667   0.2500000   0.0000000), wk =   0.1666667
        k(   15) = (   0.1666667   0.3333333   0.0000000), wk =   0.1666667
        k(   16) = (   0.1666667   0.4166667   0.0000000), wk =   0.0833333
        k(   17) = (   0.2500000   0.2500000   0.0000000), wk =   0.0833333
        k(   18) = (   0.2500000   0.3333333   0.0000000), wk =   0.1666667
        k(   19) = (   0.3333333   0.3333333   0.0000000), wk =   0.0277778

     Dense  grid:    67911 G-vectors     FFT dimensions: (  27,  27, 216)

     Dynamical RAM for                 wfc:       0.19 MB

     Dynamical RAM for     wfc (w. buffer):       3.89 MB

     Dynamical RAM for           str. fact:       0.13 MB

     Dynamical RAM for           local pot:       0.00 MB

     Dynamical RAM for          nlocal pot:       0.52 MB

     Dynamical RAM for                qrad:       0.41 MB

     Dynamical RAM for          rho,v,vnew:       0.84 MB

     Dynamical RAM for               rhoin:       0.28 MB

     Dynamical RAM for            rho*nmix:       2.07 MB

     Dynamical RAM for           G-vectors:       0.55 MB

     Dynamical RAM for          h,s,v(r/c):       0.01 MB

     Dynamical RAM for          <psi|beta>:       0.01 MB

     Dynamical RAM for                 psi:       0.39 MB

     Dynamical RAM for                hpsi:       0.39 MB

     Dynamical RAM for      wfcinit/wfcrot:       0.52 MB

     Estimated static dynamical RAM per process >       7.62 MB

     Estimated max dynamical RAM per process >      10.49 MB

     Estimated total dynamical RAM >      83.88 MB

     Initial potential from superposition of free atoms

     starting charge      15.9998, renormalised to      16.0000

     negative rho (up, down):  2.757E-05 0.000E+00


     %%%%%%%%%%%%%%%%%%%%%%%%%%%%%%%%%%%%%%%%%%%%%%%%%%%%%%%%%%%%%%%%%%%%%%%%
     %                                                                      %
     % You are using vdW-DF, which was implemented by the Thonhauser group. %
     % Please cite the following two papers that made this development      %
     % possible and the two reviews that describe the various versions:     %
     %                                                                      %
     %   T. Thonhauser et al., PRL 115, 136402 (2015).                      %
     %   T. Thonhauser et al., PRB 76, 125112 (2007).                       %
     %   K. Berland et al., Rep. Prog. Phys. 78, 066501 (2015).             %
     %   D.C. Langreth et al., J. Phys.: Condens. Matter 21, 084203 (2009). %
     %                                                                      %
     %                                                                      %
     % If you are calculating the stress with vdW-DF, please also cite:     %
     %                                                                      %
     %   R. Sabatini et al., J. Phys.: Condens. Matter 24, 424209 (2012).   %
     %                                                                      %
     %%%%%%%%%%%%%%%%%%%%%%%%%%%%%%%%%%%%%%%%%%%%%%%%%%%%%%%%%%%%%%%%%%%%%%%%


     Carrying out vdW-DF run using the following parameters:
     Nqs    =  20  Npoints =  1024  r_max =  100.000
     q_mesh =  0.00001000  0.04494208  0.09755937  0.15916263
               0.23128650  0.31572767  0.41458969  0.53033537
               0.66584808  0.82450364  1.01025438  1.22772762
               1.48234092  1.78043706  2.12944203  2.53805004
               3.01644009  3.57652955  4.23227104  5.00000000


     -----------------------------------------------
     Non-local corr. energy    =       0.17030272 Ry
     -----------------------------------------------

     Starting wfcs are   16 randomized atomic wfcs

     total cpu time spent up to now is        8.7 secs

     Self-consistent Calculation

     iteration #  1     ecut=    80.00 Ry     beta= 0.70
     Davidson diagonalization with overlap

---- Real-time Memory Report at c_bands before calling an iterative solver
             0 MiB given to the printing process from OS
             0 MiB allocation reported by mallinfo(arena+hblkhd)
             0 MiB available memory on the node where the printing process lives
------------------
     ethr =  1.00E-02,  avg # of iterations =  3.4


     -----------------------------------------------
     Non-local corr. energy    =       0.19372871 Ry
     -----------------------------------------------


     total cpu time spent up to now is        9.6 secs

     total energy              =     -48.21153916 Ry
     estimated scf accuracy    <       0.34566388 Ry

     iteration #  2     ecut=    80.00 Ry     beta= 0.70
     Davidson diagonalization with overlap

---- Real-time Memory Report at c_bands before calling an iterative solver
             0 MiB given to the printing process from OS
             0 MiB allocation reported by mallinfo(arena+hblkhd)
             0 MiB available memory on the node where the printing process lives
------------------
     ethr =  2.16E-03,  avg # of iterations =  4.0


     -----------------------------------------------
     Non-local corr. energy    =       0.19446719 Ry
     -----------------------------------------------


     total cpu time spent up to now is       10.5 secs

     total energy              =     -48.25366759 Ry
     estimated scf accuracy    <       0.00539141 Ry

     iteration #  3     ecut=    80.00 Ry     beta= 0.70
     Davidson diagonalization with overlap

---- Real-time Memory Report at c_bands before calling an iterative solver
             0 MiB given to the printing process from OS
             0 MiB allocation reported by mallinfo(arena+hblkhd)
             0 MiB available memory on the node where the printing process lives
------------------
     c_bands:  1 eigenvalues not converged
     c_bands:  1 eigenvalues not converged
     ethr =  3.37E-05,  avg # of iterations = 12.1


     -----------------------------------------------
     Non-local corr. energy    =       0.19407957 Ry
     -----------------------------------------------


     total cpu time spent up to now is       12.1 secs

     total energy              =     -48.25511057 Ry
     estimated scf accuracy    <       0.00135561 Ry

     iteration #  4     ecut=    80.00 Ry     beta= 0.70
     Davidson diagonalization with overlap

---- Real-time Memory Report at c_bands before calling an iterative solver
             0 MiB given to the printing process from OS
             0 MiB allocation reported by mallinfo(arena+hblkhd)
             0 MiB available memory on the node where the printing process lives
------------------
     ethr =  8.47E-06,  avg # of iterations =  5.4


     -----------------------------------------------
     Non-local corr. energy    =       0.19401107 Ry
     -----------------------------------------------


     total cpu time spent up to now is       13.1 secs

     total energy              =     -48.25511925 Ry
     estimated scf accuracy    <       0.00173653 Ry

     iteration #  5     ecut=    80.00 Ry     beta= 0.70
     Davidson diagonalization with overlap

---- Real-time Memory Report at c_bands before calling an iterative solver
             0 MiB given to the printing process from OS
             0 MiB allocation reported by mallinfo(arena+hblkhd)
             0 MiB available memory on the node where the printing process lives
------------------
     ethr =  8.47E-06,  avg # of iterations =  5.2


     -----------------------------------------------
     Non-local corr. energy    =       0.19402631 Ry
     -----------------------------------------------


     total cpu time spent up to now is       13.9 secs

     WARNING: integrated charge=    16.00001528, expected=    16.00000000

     total energy              =     -48.25547476 Ry
     estimated scf accuracy    <       0.00237081 Ry

     iteration #  6     ecut=    80.00 Ry     beta= 0.70
     Davidson diagonalization with overlap

---- Real-time Memory Report at c_bands before calling an iterative solver
             0 MiB given to the printing process from OS
             0 MiB allocation reported by mallinfo(arena+hblkhd)
             0 MiB available memory on the node where the printing process lives
------------------
     ethr =  8.47E-06,  avg # of iterations =  3.2


     -----------------------------------------------
     Non-local corr. energy    =       0.19408783 Ry
     -----------------------------------------------


     total cpu time spent up to now is       14.7 secs

     WARNING: integrated charge=    16.00000561, expected=    16.00000000

     total energy              =     -48.25560164 Ry
     estimated scf accuracy    <       0.00011294 Ry

     iteration #  7     ecut=    80.00 Ry     beta= 0.70
     Davidson diagonalization with overlap

---- Real-time Memory Report at c_bands before calling an iterative solver
             0 MiB given to the printing process from OS
             0 MiB allocation reported by mallinfo(arena+hblkhd)
             0 MiB available memory on the node where the printing process lives
------------------
     ethr =  7.06E-07,  avg # of iterations =  2.9


     -----------------------------------------------
     Non-local corr. energy    =       0.19415919 Ry
     -----------------------------------------------


     total cpu time spent up to now is       15.4 secs

     total energy              =     -48.25561067 Ry
     estimated scf accuracy    <       0.00000223 Ry

     iteration #  8     ecut=    80.00 Ry     beta= 0.70
     Davidson diagonalization with overlap

---- Real-time Memory Report at c_bands before calling an iterative solver
             0 MiB given to the printing process from OS
             0 MiB allocation reported by mallinfo(arena+hblkhd)
             0 MiB available memory on the node where the printing process lives
------------------
     ethr =  1.39E-08,  avg # of iterations =  2.8


     -----------------------------------------------
     Non-local corr. energy    =       0.19415125 Ry
     -----------------------------------------------


     total cpu time spent up to now is       16.4 secs

     total energy              =     -48.25561090 Ry
     estimated scf accuracy    <       0.00000367 Ry

     iteration #  9     ecut=    80.00 Ry     beta= 0.70
     Davidson diagonalization with overlap

---- Real-time Memory Report at c_bands before calling an iterative solver
             0 MiB given to the printing process from OS
             0 MiB allocation reported by mallinfo(arena+hblkhd)
             0 MiB available memory on the node where the printing process lives
------------------
     ethr =  1.39E-08,  avg # of iterations =  1.3


     -----------------------------------------------
     Non-local corr. energy    =       0.19414916 Ry
     -----------------------------------------------


     total cpu time spent up to now is       17.1 secs

     End of self-consistent calculation

          k = 0.0000 0.0000 0.0000 (  8603 PWs)   bands (ev):

   -20.1427 -19.9699  -8.7228  -7.6474  -3.6451  -3.6451  -3.6342  -3.6342
     2.5687   2.9942   4.1354   5.2614

     occupation numbers 
     1.0000   1.0000   1.0000   1.0000   1.0000   1.0000   1.0000   1.0000
     0.0000   0.0000   0.0000   0.0000

          k = 0.0000 0.0962 0.0000 (  8571 PWs)   bands (ev):

   -19.9785 -19.8074  -8.5238  -7.4551  -4.2967  -4.2769  -3.9843  -3.9677
     2.7886   3.2159   4.3616   5.4858

     occupation numbers 
     1.0000   1.0000   1.0000   1.0000   1.0000   1.0000   1.0000   1.0000
     0.0000   0.0000   0.0000   0.0000

          k = 0.0000 0.1925 0.0000 (  8553 PWs)   bands (ev):

   -19.4875 -19.3216  -7.9314  -6.8842  -5.9358  -5.8983  -4.7767  -4.7530
     3.4481   3.8794   5.0400   6.1581

     occupation numbers 
     1.0000   1.0000   1.0000   1.0000   1.0000   1.0000   1.0000   1.0000
     0.0000   0.0000   0.0000   0.0000

          k = 0.0000 0.2887 0.0000 (  8502 PWs)   bands (ev):

   -18.6758 -18.5182  -8.0365  -7.9789  -6.9625  -5.9560  -5.6564  -5.6283
     4.5438   4.9689   6.1675   6.4710

     occupation numbers 
     1.0000   1.0000   1.0000   1.0000   1.0000   1.0000   1.0000   1.0000
     0.0000   0.0000   0.0000   0.0000

          k = 0.0000 0.3849 0.0000 (  8476 PWs)   bands (ev):

   -17.5553 -17.4094 -10.2422 -10.1648  -6.3902  -6.3595  -5.6608  -4.7294
     4.0635   4.5747   6.0687   6.5419

     occupation numbers 
     1.0000   1.0000   1.0000   1.0000   1.0000   1.0000   1.0000   1.0000
     0.0000   0.0000   0.0000   0.0000

          k = 0.0000 0.4811 0.0000 (  8484 PWs)   bands (ev):

   -16.1570 -16.0270 -12.3431 -12.2492  -6.8635  -6.8315  -4.1619  -3.4037
     1.9200   2.4782   6.8433   7.0591

     occupation numbers 
     1.0000   1.0000   1.0000   1.0000   1.0000   1.0000   1.0000   1.0000
     0.0000   0.0000   0.0000   0.0000

          k = 0.0000-0.5774 0.0000 (  8466 PWs)   bands (ev):

   -14.8730 -14.8079 -13.8143 -13.7652  -7.0260  -6.9936  -3.1617  -2.7637
     0.9365   1.3180   6.7573   6.9853

     occupation numbers 
     1.0000   1.0000   1.0000   1.0000   1.0000   1.0000   1.0000   1.0000
     0.0000   0.0000   0.0000   0.0000

          k = 0.0833 0.1443 0.0000 (  8573 PWs)   bands (ev):

   -19.6509 -19.4832  -8.1280  -7.0733  -5.3265  -5.3075  -4.6556  -4.6416
     3.2286   3.6587   4.8140   5.9347

     occupation numbers 
     1.0000   1.0000   1.0000   1.0000   1.0000   1.0000   1.0000   1.0000
     0.0000   0.0000   0.0000   0.0000

          k = 0.0833 0.2406 0.0000 (  8512 PWs)   bands (ev):

   -18.9996 -18.8387  -7.3467  -7.0401  -7.0006  -6.3222  -5.6551  -5.6293
     4.1072   4.5403   5.7183   6.8274

     occupation numbers 
     1.0000   1.0000   1.0000   1.0000   1.0000   1.0000   1.0000   1.0000
     0.0000   0.0000   0.0000   0.0000

          k = 0.0833 0.3368 0.0000 (  8491 PWs)   bands (ev):

   -18.0333 -17.8824  -9.1176  -9.0537  -6.5441  -6.5096  -6.2059  -5.2369
     5.1140   5.4156   5.5364   5.8989

     occupation numbers 
     1.0000   1.0000   1.0000   1.0000   1.0000   1.0000   1.0000   1.0000
     0.0000   0.0000   0.0000   0.0000

          k = 0.0833 0.4330 0.0000 (  8473 PWs)   bands (ev):

   -16.7709 -16.6334 -11.2428 -11.1586  -7.1804  -7.1420  -4.7782  -3.9170
     2.8791   3.3943   7.1442   7.5594

     occupation numbers 
     1.0000   1.0000   1.0000   1.0000   1.0000   1.0000   1.0000   1.0000
     0.0000   0.0000   0.0000   0.0000

          k = 0.0833 0.5292 0.0000 (  8477 PWs)   bands (ev):

   -15.2869 -15.1731 -13.1796 -13.0870  -7.5096  -7.4696  -3.3431  -2.7734
     1.1692   1.6123   7.4829   7.7202

     occupation numbers 
     1.0000   1.0000   1.0000   1.0000   1.0000   1.0000   1.0000   1.0000
     0.0000   0.0000   0.0000   0.0000

          k = 0.1667 0.2887 0.0000 (  8483 PWs)   bands (ev):

   -18.1937 -18.0411  -8.3656  -8.3337  -7.0065  -6.9833  -6.3899  -5.4092
     5.2020   5.6330   5.6425   5.9165

     occupation numbers 
     1.0000   1.0000   1.0000   1.0000   1.0000   1.0000   1.0000   1.0000
     0.0000   0.0000   0.0000   0.0000

          k = 0.1667 0.3849 0.0000 (  8509 PWs)   bands (ev):

   -17.0841 -16.9432 -10.1003 -10.0401  -8.0692  -8.0276  -5.1029  -4.1978
     3.6607   4.0162   6.7241   7.1464

     occupation numbers 
     1.0000   1.0000   1.0000   1.0000   1.0000   1.0000   1.0000   1.0000
     0.0000   0.0000   0.0000   0.0000

          k = 0.1667 0.4811 0.0000 (  8497 PWs)   bands (ev):

   -15.7059 -15.5809 -12.0145 -11.9296  -8.6509  -8.5983  -3.6058  -2.8596
     1.7265   2.1502   8.6413   8.9835

     occupation numbers 
     1.0000   1.0000   1.0000   1.0000   1.0000   1.0000   1.0000   1.0000
     0.0000   0.0000   0.0000   0.0000

          k = 0.1667 0.5774 0.0000 (  8486 PWs)   bands (ev):

   -14.4518 -14.3893 -13.4159 -13.3728  -8.8372  -8.7821  -2.5630  -2.1715
     0.8068   0.9903   9.2182   9.5287

     occupation numbers 
     1.0000   1.0000   1.0000   1.0000   1.0000   1.0000   1.0000   1.0000
     0.0000   0.0000   0.0000   0.0000

          k = 0.2500 0.4330 0.0000 (  8495 PWs)   bands (ev):

   -15.8540 -15.7267 -11.1285 -11.0843  -9.5372  -9.5046  -3.7130  -2.9123
     2.0589   2.3981   8.4312   8.7363

     occupation numbers 
     1.0000   1.0000   1.0000   1.0000   1.0000   1.0000   1.0000   1.0000
     0.0000   0.0000   0.0000   0.0000

          k = 0.2500 0.5292 0.0000 (  8488 PWs)   bands (ev):

   -14.4274 -14.3234 -12.5542 -12.4841 -10.2548 -10.2000  -2.2309  -1.6571
     0.5714   0.8790   9.9524  10.2509

     occupation numbers 
     1.0000   1.0000   1.0000   1.0000   1.0000   1.0000   1.0000   1.0000
     0.0000   0.0000   0.0000   0.0000

          k = 0.3333 0.5774 0.0000 (  8478 PWs)   bands (ev):

   -13.2216 -13.1640 -13.1635 -13.1117 -11.1118 -11.1114  -0.9529  -0.5881
    -0.5876  -0.1969   9.8650   9.8652

     occupation numbers 
     1.0000   1.0000   1.0000   1.0000   1.0000   1.0000   1.0000   0.5027
     0.4973   0.0000   0.0000   0.0000

     the Fermi energy is    -0.5784 ev

!    total energy              =     -48.25561117 Ry
     estimated scf accuracy    <       0.00000003 Ry
     smearing contrib. (-TS)   =      -0.00004558 Ry
     internal energy E=F+TS    =     -48.25556559 Ry

     The total energy is F=E-TS. E is the sum of the following terms:
     one-electron contribution =    -529.00888537 Ry
     hartree contribution      =     268.17728183 Ry
     xc contribution           =     -17.21260119 Ry
     ewald contribution        =     229.78863915 Ry

     convergence has been achieved in   9 iterations


     -----------------------------------------------
     Non-local corr. energy    =       0.19414916 Ry
     -----------------------------------------------


     Forces acting on atoms (cartesian axes, Ry/au):

     atom    1 type  1   force =     0.00000000    0.00000000    0.00044655
     atom    2 type  1   force =     0.00000000    0.00000000   -0.00005895
     atom    3 type  1   force =     0.00000000    0.00000000   -0.00078720
     atom    4 type  1   force =     0.00000000    0.00000000    0.00039960
     The non-local contrib.  to forces
     atom    1 type  1   force =     0.00000000    0.00000000    0.00058673
     atom    2 type  1   force =     0.00000000   -0.00000000    0.00018749
     atom    3 type  1   force =     0.00000000    0.00000000   -0.00109638
     atom    4 type  1   force =     0.00000000   -0.00000000    0.00031499
     The ionic contribution  to forces
     atom    1 type  1   force =     0.00000851   -0.00000491  -14.18911164
     atom    2 type  1   force =    -0.00000851    0.00000491   14.18179529
     atom    3 type  1   force =    -0.00000852    0.00000492  -14.18335740
     atom    4 type  1   force =     0.00000852   -0.00000492   14.19067374
     The local contribution  to forces
     atom    1 type  1   force =    -0.00000000    0.00000000   14.18930827
     atom    2 type  1   force =    -0.00000000   -0.00000000  -14.18207556
     atom    3 type  1   force =    -0.00000679    0.00000392   14.18393075
     atom    4 type  1   force =     0.00000680   -0.00000392  -14.19056315
     The core correction contribution to forces
     atom    1 type  1   force =    -0.00000000    0.00000000   -0.00009839
     atom    2 type  1   force =     0.00000000   -0.00000000    0.00009016
     atom    3 type  1   force =     0.00000053   -0.00000031   -0.00002223
     atom    4 type  1   force =    -0.00000053    0.00000031    0.00002904
     The Hubbard contrib.    to forces
     atom    1 type  1   force =     0.00000000    0.00000000    0.00000000
     atom    2 type  1   force =     0.00000000    0.00000000    0.00000000
     atom    3 type  1   force =     0.00000000    0.00000000    0.00000000
     atom    4 type  1   force =     0.00000000    0.00000000    0.00000000
     The SCF correction term to forces
     atom    1 type  1   force =    -0.00000000    0.00000000   -0.00000000
     atom    2 type  1   force =     0.00000000   -0.00000000   -0.00006865
     atom    3 type  1   force =     0.00000000   -0.00000000   -0.00000000
     atom    4 type  1   force =    -0.00000000    0.00000000   -0.00006733

     Total force =     0.000404     Total SCF correction =     0.000096
     SCF correction compared to forces is large: reduce conv_thr to get better values


     Computing stress (Cartesian axis) and pressure



     -----------------------------------------------
     Non-local corr. energy    =       0.19414916 Ry
     -----------------------------------------------

          total   stress  (Ry/bohr**3)                   (kbar)     P=       -0.63
  -0.00000488  -0.00000000   0.00000000           -0.72       -0.00        0.00
  -0.00000000  -0.00000488   0.00000000           -0.00       -0.72        0.00
   0.00000000  -0.00000000  -0.00000307            0.00       -0.00       -0.45

     kinetic stress (kbar)   4524.23      0.00      0.00
                                0.00   4524.23      0.00
                                0.00      0.00   4980.35

     local   stress (kbar)-115071.72      0.00     -0.00
                                0.00-115071.72      0.00
                               -0.00      0.00 116420.75

     nonloc. stress (kbar)   -460.56      0.00      0.00
                                0.00   -460.56      0.00
                                0.00      0.00   -384.94

     hartree stress (kbar)  55736.64     -0.00     -0.00
                               -0.00  55736.64     -0.00
                               -0.00     -0.00 -55389.08

     exc-cor stress (kbar)   -360.04     -0.00      0.00
                               -0.00   -360.04     -0.00
                                0.00     -0.00   -419.57

     corecor stress (kbar)   -686.26      0.00     -0.00
                                0.00   -686.26      0.00
                               -0.00      0.00   -667.47

     ewald   stress (kbar)  56313.89     -0.01      0.00
                               -0.01  56313.88     -0.00
                                0.00     -0.00 -64571.82

     hubbard stress (kbar)      0.00      0.00      0.00
                                0.00      0.00      0.00
                                0.00      0.00      0.00

     DFT-D   stress (kbar)      0.00      0.00      0.00
                                0.00      0.00      0.00
                                0.00      0.00      0.00

     XDM     stress (kbar)      0.00      0.00      0.00
                                0.00      0.00      0.00
                                0.00      0.00      0.00

     dft-nl  stress (kbar)      3.10      0.00      0.00
                                0.00      3.10     -0.00
                                0.00     -0.00     31.33

     TS-vdW  stress (kbar)      0.00      0.00      0.00
                                0.00      0.00      0.00
                                0.00      0.00      0.00


                                0.00      0.00      0.00
                                0.00      0.00      0.00


                                0.00      0.00      0.00


     Writing all to output data dir ./tmp/C2L_AB_PBE_vdW.save/

     init_run     :      8.64s CPU      8.67s WALL (       1 calls)
     electrons    :      8.10s CPU      8.38s WALL (       1 calls)
     forces       :      0.18s CPU      0.19s WALL (       1 calls)
     stress       :      0.45s CPU      0.46s WALL (       1 calls)

     Called by init_run:
     wfcinit      :      0.25s CPU      0.26s WALL (       1 calls)
     wfcinit:atom :      0.00s CPU      0.00s WALL (      19 calls)
     wfcinit:wfcr :      0.23s CPU      0.23s WALL (      19 calls)
     potinit      :      8.08s CPU      8.10s WALL (       1 calls)
     hinit0       :      0.26s CPU      0.26s WALL (       1 calls)

     Called by electrons:
     c_bands      :      6.76s CPU      6.94s WALL (       9 calls)
     sum_band     :      0.69s CPU      0.71s WALL (       9 calls)
     v_of_rho     :      8.67s CPU      8.75s WALL (      10 calls)
     v_h          :      0.01s CPU      0.01s WALL (      10 calls)
     v_xc         :      8.80s CPU      8.90s WALL (      12 calls)
     mix_rho      :      0.03s CPU      0.04s WALL (       9 calls)
     vdW_kernel   :      7.99s CPU      8.01s WALL (       1 calls)

     Called by c_bands:
     init_us_2    :      0.10s CPU      0.11s WALL (     399 calls)
     init_us_2:cp :      0.10s CPU      0.11s WALL (     399 calls)
     cegterg      :      6.57s CPU      6.74s WALL (     171 calls)

     Called by sum_band:
     sum_band:wei :      0.00s CPU      0.00s WALL (       9 calls)
     sum_band:loo :      0.67s CPU      0.69s WALL (       9 calls)
     sum_band:buf :      0.02s CPU      0.02s WALL (     171 calls)
     sum_band:ini :      0.04s CPU      0.04s WALL (     171 calls)

     Called by *egterg:
     cdiaghg      :      0.50s CPU      0.51s WALL (     937 calls)
     cegterg:over :      0.41s CPU      0.42s WALL (     766 calls)
     cegterg:upda :      0.49s CPU      0.64s WALL (     766 calls)
     cegterg:last :      0.45s CPU      0.43s WALL (     412 calls)
     cdiaghg:chol :      0.05s CPU      0.05s WALL (     937 calls)
     cdiaghg:inve :      0.02s CPU      0.02s WALL (     937 calls)
     cdiaghg:para :      0.07s CPU      0.07s WALL (    1874 calls)
     h_psi        :      4.75s CPU      4.74s WALL (     956 calls)
     g_psi        :      0.03s CPU      0.03s WALL (     766 calls)

     Called by h_psi:
     h_psi:calbec :      0.36s CPU      0.35s WALL (     956 calls)
     vloc_psi     :      3.96s CPU      4.06s WALL (     956 calls)
     add_vuspsi   :      0.39s CPU      0.29s WALL (     956 calls)

     General routines
     calbec       :      0.40s CPU      0.39s WALL (    1051 calls)
     fft          :      0.56s CPU      0.57s WALL (     768 calls)
     ffts         :      0.00s CPU      0.00s WALL (       9 calls)
     fftw         :      4.14s CPU      4.24s WALL (   14322 calls)

     Parallel routines

     PWSCF        :     17.42s CPU     17.80s WALL


   This run was terminated on:  14:58: 4  14Apr2025            

=------------------------------------------------------------------------------=
   JOB DONE.
=------------------------------------------------------------------------------=
