
     Program PWSCF v.7.0 starts on 14Apr2025 at 14:58: 5 

     This program is part of the open-source Quantum ESPRESSO suite
     for quantum simulation of materials; please cite
         "P. Giannozzi et al., J. Phys.:Condens. Matter 21 395502 (2009);
         "P. Giannozzi et al., J. Phys.:Condens. Matter 29 465901 (2017);
         "P. Giannozzi et al., J. Chem. Phys. 152 154105 (2020);
          URL http://www.quantum-espresso.org", 
     in publications or presentations arising from this work. More details at
     http://www.quantum-espresso.org/quote

     Parallel version (MPI & OpenMP), running on       8 processor cores
     Number of MPI processes:                 8
     Threads/MPI process:                     1

     MPI processes distributed on     1 nodes
     R & G space division:  proc/nbgrp/npool/nimage =       8
     0 MiB available memory on the printing compute node when the environment starts

     Waiting for input...
     Reading input from standard input
Warning: card &IONS ignored
Warning: card / ignored
Warning: card &CELL ignored
Warning: card CELL_DOFREE = 'ALL' ignored
Warning: card / ignored

     Current dimensions of program PWSCF are:
     Max number of different atomic species (ntypx) = 10
     Max number of k-points (npk) =  40000
     Max angular momentum in pseudopotentials (lmaxx) =  4

     Atomic positions and unit cell read from directory:
     ./tmp/C2L_AB_PBE_vdW.save/
     Atomic positions from file used, from input discarded


     IMPORTANT: XC functional enforced from input :
     Exchange-correlation= VDW-DF2-B86R
                           (   1   4  26   0   2   0   0)
     Any further DFT definition will be discarded
     Please, verify this is what you really want


     Subspace diagonalization in iterative solution of the eigenvalue problem:
     one sub-group per band group will be used
     scalapack distributed-memory algorithm (size of sub-group:  2*  2 procs)


     Parallelization info
     --------------------
     sticks:   dense  smooth     PW     G-vecs:    dense   smooth      PW
     Min          59      59     18                 8477     8477    1422
     Max          60      60     19                 8510     8510    1439
     Sum         475     475    151                67911    67911   11451

     Using Slab Decomposition



     bravais-lattice index     =            4
     lattice parameter (alat)  =       4.6651  a.u.
     unit-cell volume          =     703.4109 (a.u.)^3
     number of atoms/cell      =            4
     number of atomic types    =            1
     number of electrons       =        16.00
     number of Kohn-Sham states=           16
     kinetic-energy cutoff     =      80.0000  Ry
     charge density cutoff     =     320.0000  Ry
     Exchange-correlation= VDW-DF2-B86R
                           (   1   4  26   0   2   0   0)

     celldm(1)=   4.665120  celldm(2)=   0.000000  celldm(3)=   8.000000
     celldm(4)=   0.000000  celldm(5)=   0.000000  celldm(6)=   0.000000

     crystal axes: (cart. coord. in units of alat)
               a(1) = (   1.000000   0.000000   0.000000 )  
               a(2) = (  -0.500000   0.866025   0.000000 )  
               a(3) = (   0.000000   0.000000   8.000000 )  

     reciprocal axes: (cart. coord. in units 2 pi/alat)
               b(1) = (  1.000000  0.577350 -0.000000 )  
               b(2) = (  0.000000  1.154701  0.000000 )  
               b(3) = (  0.000000 -0.000000  0.125000 )  


     PseudoPot. # 1 for C  read from file:
     ../../../../Pseudo/PBE/C.upf
     MD5 check sum: 34a24e64c0a39f27c6c36b90a16ac686
     Pseudo is Norm-conserving + core correction, Zval =  4.0
     Generated using ONCVPSP code by D. R. Hamann
     Using radial grid of 1248 points,  4 beta functions with: 
                l(1) =   0
                l(2) =   0
                l(3) =   1
                l(4) =   1

     atomic species   valence    mass     pseudopotential
        C              4.00    12.01100     C ( 1.00)

      6 Sym. Ops. (no inversion) found


                                    s                        frac. trans.

      isym =  1     identity                                     

 cryst.   s( 1) = (     1          0          0      )
                  (     0          1          0      )
                  (     0          0          1      )

 cart.    s( 1) = (  1.0000000  0.0000000  0.0000000 )
                  (  0.0000000  1.0000000  0.0000000 )
                  (  0.0000000  0.0000000  1.0000000 )


      isym =  2     120 deg rotation - cryst. axis [0,0,1]       

 cryst.   s( 2) = (     0          1          0      )
                  (    -1         -1          0      )
                  (     0          0          1      )

 cart.    s( 2) = ( -0.5000000 -0.8660254  0.0000000 )
                  (  0.8660254 -0.5000000  0.0000000 )
                  (  0.0000000  0.0000000  1.0000000 )


      isym =  3     120 deg rotation - cryst. axis [0,0,-1]      

 cryst.   s( 3) = (    -1         -1          0      )
                  (     1          0          0      )
                  (     0          0          1      )

 cart.    s( 3) = ( -0.5000000  0.8660254  0.0000000 )
                  ( -0.8660254 -0.5000000  0.0000000 )
                  (  0.0000000  0.0000000  1.0000000 )


      isym =  4     inv. 180 deg rotation - cart. axis [1,0,0]   

 cryst.   s( 4) = (    -1          0          0      )
                  (     1          1          0      )
                  (     0          0          1      )

 cart.    s( 4) = ( -1.0000000  0.0000000  0.0000000 )
                  (  0.0000000  1.0000000  0.0000000 )
                  (  0.0000000  0.0000000  1.0000000 )


      isym =  5     inv. 180 deg rotation - cryst. axis [0,1,0]  

 cryst.   s( 5) = (     1          1          0      )
                  (     0         -1          0      )
                  (     0          0          1      )

 cart.    s( 5) = (  0.5000000  0.8660254  0.0000000 )
                  (  0.8660254 -0.5000000  0.0000000 )
                  (  0.0000000  0.0000000  1.0000000 )


      isym =  6     inv. 180 deg rotation - cryst. axis [1,1,0]  

 cryst.   s( 6) = (     0         -1          0      )
                  (    -1          0          0      )
                  (     0          0          1      )

 cart.    s( 6) = (  0.5000000 -0.8660254  0.0000000 )
                  ( -0.8660254 -0.5000000  0.0000000 )
                  (  0.0000000  0.0000000  1.0000000 )


     point group C_3v (3m)  
     there are  3 classes
     the character table:

       E     2C3   3s_v 
A_1    1.00  1.00  1.00
A_2    1.00  1.00 -1.00
E      2.00 -1.00  0.00

     the symmetry operations in each class and the name of the first element:

     E        1
          identity                                               
     2C3      2    3
          120 deg rotation - cryst. axis [0,0,1]                 
     3s_v     4    5    6
          inv. 180 deg rotation - cart. axis [1,0,0]             

   Cartesian axes

     site n.     atom                  positions (alat units)
         1           C   tau(   1) = (   0.0000000   0.0000000   0.0000000  )
         2           C   tau(   2) = (   0.0000000   0.0000000   1.3400504  )
         3           C   tau(   3) = (   0.5000005   0.2886748   0.0000000  )
         4           C   tau(   4) = (  -0.0000005   0.5773506   1.3403051  )

   Crystallographic axes

     site n.     atom                  positions (cryst. coord.)
         1           C   tau(   1) = (  0.0000000  0.0000000  0.0000000  )
         2           C   tau(   2) = (  0.0000000  0.0000000  0.1675063  )
         3           C   tau(   3) = (  0.6666670  0.3333330  0.0000000  )
         4           C   tau(   4) = (  0.3333330  0.6666670  0.1675381  )

     number of k points=   151  Marzari-Vanderbilt smearing, width (Ry)=  0.0050
                       cart. coord. in units 2pi/alat
        k(    1) = (   0.0000000   0.0000000   0.0000000), wk =   0.0132450
        k(    2) = (  -0.0066666   0.0115471   0.0000000), wk =   0.0132450
        k(    3) = (  -0.0133332   0.0230941   0.0000000), wk =   0.0132450
        k(    4) = (  -0.0199998   0.0346412   0.0000000), wk =   0.0132450
        k(    5) = (  -0.0266664   0.0461882   0.0000000), wk =   0.0132450
        k(    6) = (  -0.0333330   0.0577353   0.0000000), wk =   0.0132450
        k(    7) = (  -0.0399996   0.0692823   0.0000000), wk =   0.0132450
        k(    8) = (  -0.0466662   0.0808294   0.0000000), wk =   0.0132450
        k(    9) = (  -0.0533328   0.0923764   0.0000000), wk =   0.0132450
        k(   10) = (  -0.0599994   0.1039235   0.0000000), wk =   0.0132450
        k(   11) = (  -0.0666660   0.1154705   0.0000000), wk =   0.0132450
        k(   12) = (  -0.0733326   0.1270176   0.0000000), wk =   0.0132450
        k(   13) = (  -0.0799992   0.1385646   0.0000000), wk =   0.0132450
        k(   14) = (  -0.0866658   0.1501117   0.0000000), wk =   0.0132450
        k(   15) = (  -0.0933324   0.1616587   0.0000000), wk =   0.0132450
        k(   16) = (  -0.0999990   0.1732058   0.0000000), wk =   0.0132450
        k(   17) = (  -0.1066656   0.1847528   0.0000000), wk =   0.0132450
        k(   18) = (  -0.1133322   0.1962999   0.0000000), wk =   0.0132450
        k(   19) = (  -0.1199988   0.2078469   0.0000000), wk =   0.0132450
        k(   20) = (  -0.1266654   0.2193940   0.0000000), wk =   0.0132450
        k(   21) = (  -0.1333320   0.2309410   0.0000000), wk =   0.0132450
        k(   22) = (  -0.1399986   0.2424881   0.0000000), wk =   0.0132450
        k(   23) = (  -0.1466652   0.2540351   0.0000000), wk =   0.0132450
        k(   24) = (  -0.1533318   0.2655822   0.0000000), wk =   0.0132450
        k(   25) = (  -0.1599984   0.2771292   0.0000000), wk =   0.0132450
        k(   26) = (  -0.1666650   0.2886763   0.0000000), wk =   0.0132450
        k(   27) = (  -0.1733316   0.3002233   0.0000000), wk =   0.0132450
        k(   28) = (  -0.1799982   0.3117704   0.0000000), wk =   0.0132450
        k(   29) = (  -0.1866648   0.3233174   0.0000000), wk =   0.0132450
        k(   30) = (  -0.1933314   0.3348645   0.0000000), wk =   0.0132450
        k(   31) = (  -0.1999980   0.3464115   0.0000000), wk =   0.0132450
        k(   32) = (  -0.2066646   0.3579586   0.0000000), wk =   0.0132450
        k(   33) = (  -0.2133312   0.3695057   0.0000000), wk =   0.0132450
        k(   34) = (  -0.2199978   0.3810527   0.0000000), wk =   0.0132450
        k(   35) = (  -0.2266644   0.3925998   0.0000000), wk =   0.0132450
        k(   36) = (  -0.2333310   0.4041468   0.0000000), wk =   0.0132450
        k(   37) = (  -0.2399976   0.4156939   0.0000000), wk =   0.0132450
        k(   38) = (  -0.2466642   0.4272409   0.0000000), wk =   0.0132450
        k(   39) = (  -0.2533308   0.4387880   0.0000000), wk =   0.0132450
        k(   40) = (  -0.2599974   0.4503350   0.0000000), wk =   0.0132450
        k(   41) = (  -0.2666640   0.4618821   0.0000000), wk =   0.0132450
        k(   42) = (  -0.2733306   0.4734291   0.0000000), wk =   0.0132450
        k(   43) = (  -0.2799972   0.4849762   0.0000000), wk =   0.0132450
        k(   44) = (  -0.2866638   0.4965232   0.0000000), wk =   0.0132450
        k(   45) = (  -0.2933304   0.5080703   0.0000000), wk =   0.0132450
        k(   46) = (  -0.2999970   0.5196173   0.0000000), wk =   0.0132450
        k(   47) = (  -0.3066636   0.5311644   0.0000000), wk =   0.0132450
        k(   48) = (  -0.3133302   0.5427114   0.0000000), wk =   0.0132450
        k(   49) = (  -0.3199968   0.5542585   0.0000000), wk =   0.0132450
        k(   50) = (  -0.3266634   0.5658055   0.0000000), wk =   0.0132450
        k(   51) = (  -0.3333300   0.5773526   0.0000000), wk =   0.0132450
        k(   52) = (  -0.3266634   0.5773525   0.0000000), wk =   0.0132450
        k(   53) = (  -0.3199968   0.5773525   0.0000000), wk =   0.0132450
        k(   54) = (  -0.3133302   0.5773524   0.0000000), wk =   0.0132450
        k(   55) = (  -0.3066636   0.5773524   0.0000000), wk =   0.0132450
        k(   56) = (  -0.2999970   0.5773523   0.0000000), wk =   0.0132450
        k(   57) = (  -0.2933304   0.5773523   0.0000000), wk =   0.0132450
        k(   58) = (  -0.2866638   0.5773523   0.0000000), wk =   0.0132450
        k(   59) = (  -0.2799972   0.5773522   0.0000000), wk =   0.0132450
        k(   60) = (  -0.2733306   0.5773522   0.0000000), wk =   0.0132450
        k(   61) = (  -0.2666640   0.5773521   0.0000000), wk =   0.0132450
        k(   62) = (  -0.2599974   0.5773521   0.0000000), wk =   0.0132450
        k(   63) = (  -0.2533308   0.5773520   0.0000000), wk =   0.0132450
        k(   64) = (  -0.2466642   0.5773520   0.0000000), wk =   0.0132450
        k(   65) = (  -0.2399976   0.5773519   0.0000000), wk =   0.0132450
        k(   66) = (  -0.2333310   0.5773519   0.0000000), wk =   0.0132450
        k(   67) = (  -0.2266644   0.5773518   0.0000000), wk =   0.0132450
        k(   68) = (  -0.2199978   0.5773518   0.0000000), wk =   0.0132450
        k(   69) = (  -0.2133312   0.5773517   0.0000000), wk =   0.0132450
        k(   70) = (  -0.2066646   0.5773517   0.0000000), wk =   0.0132450
        k(   71) = (  -0.1999980   0.5773517   0.0000000), wk =   0.0132450
        k(   72) = (  -0.1933314   0.5773516   0.0000000), wk =   0.0132450
        k(   73) = (  -0.1866648   0.5773516   0.0000000), wk =   0.0132450
        k(   74) = (  -0.1799982   0.5773515   0.0000000), wk =   0.0132450
        k(   75) = (  -0.1733316   0.5773515   0.0000000), wk =   0.0132450
        k(   76) = (  -0.1666650   0.5773514   0.0000000), wk =   0.0132450
        k(   77) = (  -0.1599984   0.5773514   0.0000000), wk =   0.0132450
        k(   78) = (  -0.1533318   0.5773513   0.0000000), wk =   0.0132450
        k(   79) = (  -0.1466652   0.5773513   0.0000000), wk =   0.0132450
        k(   80) = (  -0.1399986   0.5773512   0.0000000), wk =   0.0132450
        k(   81) = (  -0.1333320   0.5773512   0.0000000), wk =   0.0132450
        k(   82) = (  -0.1266654   0.5773511   0.0000000), wk =   0.0132450
        k(   83) = (  -0.1199988   0.5773511   0.0000000), wk =   0.0132450
        k(   84) = (  -0.1133322   0.5773511   0.0000000), wk =   0.0132450
        k(   85) = (  -0.1066656   0.5773510   0.0000000), wk =   0.0132450
        k(   86) = (  -0.0999990   0.5773510   0.0000000), wk =   0.0132450
        k(   87) = (  -0.0933324   0.5773509   0.0000000), wk =   0.0132450
        k(   88) = (  -0.0866658   0.5773509   0.0000000), wk =   0.0132450
        k(   89) = (  -0.0799992   0.5773508   0.0000000), wk =   0.0132450
        k(   90) = (  -0.0733326   0.5773508   0.0000000), wk =   0.0132450
        k(   91) = (  -0.0666660   0.5773507   0.0000000), wk =   0.0132450
        k(   92) = (  -0.0599994   0.5773507   0.0000000), wk =   0.0132450
        k(   93) = (  -0.0533328   0.5773506   0.0000000), wk =   0.0132450
        k(   94) = (  -0.0466662   0.5773506   0.0000000), wk =   0.0132450
        k(   95) = (  -0.0399996   0.5773505   0.0000000), wk =   0.0132450
        k(   96) = (  -0.0333330   0.5773505   0.0000000), wk =   0.0132450
        k(   97) = (  -0.0266664   0.5773505   0.0000000), wk =   0.0132450
        k(   98) = (  -0.0199998   0.5773504   0.0000000), wk =   0.0132450
        k(   99) = (  -0.0133332   0.5773504   0.0000000), wk =   0.0132450
        k(  100) = (  -0.0066666   0.5773503   0.0000000), wk =   0.0132450
        k(  101) = (   0.0000000   0.5773503   0.0000000), wk =   0.0132450
        k(  102) = (   0.0000000   0.5658033   0.0000000), wk =   0.0132450
        k(  103) = (   0.0000000   0.5542563   0.0000000), wk =   0.0132450
        k(  104) = (   0.0000000   0.5427093   0.0000000), wk =   0.0132450
        k(  105) = (   0.0000000   0.5311622   0.0000000), wk =   0.0132450
        k(  106) = (   0.0000000   0.5196152   0.0000000), wk =   0.0132450
        k(  107) = (   0.0000000   0.5080682   0.0000000), wk =   0.0132450
        k(  108) = (   0.0000000   0.4965212   0.0000000), wk =   0.0132450
        k(  109) = (   0.0000000   0.4849742   0.0000000), wk =   0.0132450
        k(  110) = (   0.0000000   0.4734272   0.0000000), wk =   0.0132450
        k(  111) = (   0.0000000   0.4618802   0.0000000), wk =   0.0132450
        k(  112) = (   0.0000000   0.4503332   0.0000000), wk =   0.0132450
        k(  113) = (   0.0000000   0.4387862   0.0000000), wk =   0.0132450
        k(  114) = (   0.0000000   0.4272392   0.0000000), wk =   0.0132450
        k(  115) = (   0.0000000   0.4156922   0.0000000), wk =   0.0132450
        k(  116) = (   0.0000000   0.4041452   0.0000000), wk =   0.0132450
        k(  117) = (   0.0000000   0.3925982   0.0000000), wk =   0.0132450
        k(  118) = (   0.0000000   0.3810512   0.0000000), wk =   0.0132450
        k(  119) = (   0.0000000   0.3695042   0.0000000), wk =   0.0132450
        k(  120) = (   0.0000000   0.3579572   0.0000000), wk =   0.0132450
        k(  121) = (   0.0000000   0.3464102   0.0000000), wk =   0.0132450
        k(  122) = (   0.0000000   0.3348632   0.0000000), wk =   0.0132450
        k(  123) = (   0.0000000   0.3233162   0.0000000), wk =   0.0132450
        k(  124) = (   0.0000000   0.3117691   0.0000000), wk =   0.0132450
        k(  125) = (   0.0000000   0.3002221   0.0000000), wk =   0.0132450
        k(  126) = (   0.0000000   0.2886751   0.0000000), wk =   0.0132450
        k(  127) = (   0.0000000   0.2771281   0.0000000), wk =   0.0132450
        k(  128) = (   0.0000000   0.2655811   0.0000000), wk =   0.0132450
        k(  129) = (   0.0000000   0.2540341   0.0000000), wk =   0.0132450
        k(  130) = (   0.0000000   0.2424871   0.0000000), wk =   0.0132450
        k(  131) = (   0.0000000   0.2309401   0.0000000), wk =   0.0132450
        k(  132) = (   0.0000000   0.2193931   0.0000000), wk =   0.0132450
        k(  133) = (   0.0000000   0.2078461   0.0000000), wk =   0.0132450
        k(  134) = (   0.0000000   0.1962991   0.0000000), wk =   0.0132450
        k(  135) = (   0.0000000   0.1847521   0.0000000), wk =   0.0132450
        k(  136) = (   0.0000000   0.1732051   0.0000000), wk =   0.0132450
        k(  137) = (   0.0000000   0.1616581   0.0000000), wk =   0.0132450
        k(  138) = (   0.0000000   0.1501111   0.0000000), wk =   0.0132450
        k(  139) = (   0.0000000   0.1385641   0.0000000), wk =   0.0132450
        k(  140) = (   0.0000000   0.1270171   0.0000000), wk =   0.0132450
        k(  141) = (   0.0000000   0.1154701   0.0000000), wk =   0.0132450
        k(  142) = (   0.0000000   0.1039230   0.0000000), wk =   0.0132450
        k(  143) = (   0.0000000   0.0923760   0.0000000), wk =   0.0132450
        k(  144) = (   0.0000000   0.0808290   0.0000000), wk =   0.0132450
        k(  145) = (   0.0000000   0.0692820   0.0000000), wk =   0.0132450
        k(  146) = (   0.0000000   0.0577350   0.0000000), wk =   0.0132450
        k(  147) = (   0.0000000   0.0461880   0.0000000), wk =   0.0132450
        k(  148) = (   0.0000000   0.0346410   0.0000000), wk =   0.0132450
        k(  149) = (   0.0000000   0.0230940   0.0000000), wk =   0.0132450
        k(  150) = (   0.0000000   0.0115470   0.0000000), wk =   0.0132450
        k(  151) = (   0.0000000   0.0000000   0.0000000), wk =   0.0132450

                       cryst. coord.
        k(    1) = (   0.0000000   0.0000000   0.0000000), wk =   0.0132450
        k(    2) = (  -0.0066666   0.0133333   0.0000000), wk =   0.0132450
        k(    3) = (  -0.0133332   0.0266667   0.0000000), wk =   0.0132450
        k(    4) = (  -0.0199998   0.0400000   0.0000000), wk =   0.0132450
        k(    5) = (  -0.0266664   0.0533334   0.0000000), wk =   0.0132450
        k(    6) = (  -0.0333330   0.0666667   0.0000000), wk =   0.0132450
        k(    7) = (  -0.0399996   0.0800000   0.0000000), wk =   0.0132450
        k(    8) = (  -0.0466662   0.0933334   0.0000000), wk =   0.0132450
        k(    9) = (  -0.0533328   0.1066667   0.0000000), wk =   0.0132450
        k(   10) = (  -0.0599994   0.1200001   0.0000000), wk =   0.0132450
        k(   11) = (  -0.0666660   0.1333334   0.0000000), wk =   0.0132450
        k(   12) = (  -0.0733326   0.1466667   0.0000000), wk =   0.0132450
        k(   13) = (  -0.0799992   0.1600001   0.0000000), wk =   0.0132450
        k(   14) = (  -0.0866658   0.1733334   0.0000000), wk =   0.0132450
        k(   15) = (  -0.0933324   0.1866668   0.0000000), wk =   0.0132450
        k(   16) = (  -0.0999990   0.2000001   0.0000000), wk =   0.0132450
        k(   17) = (  -0.1066656   0.2133334   0.0000000), wk =   0.0132450
        k(   18) = (  -0.1133322   0.2266668   0.0000000), wk =   0.0132450
        k(   19) = (  -0.1199988   0.2400001   0.0000000), wk =   0.0132450
        k(   20) = (  -0.1266654   0.2533335   0.0000000), wk =   0.0132450
        k(   21) = (  -0.1333320   0.2666668   0.0000000), wk =   0.0132450
        k(   22) = (  -0.1399986   0.2800001   0.0000000), wk =   0.0132450
        k(   23) = (  -0.1466652   0.2933335   0.0000000), wk =   0.0132450
        k(   24) = (  -0.1533318   0.3066668   0.0000000), wk =   0.0132450
        k(   25) = (  -0.1599984   0.3200002   0.0000000), wk =   0.0132450
        k(   26) = (  -0.1666650   0.3333335   0.0000000), wk =   0.0132450
        k(   27) = (  -0.1733316   0.3466668   0.0000000), wk =   0.0132450
        k(   28) = (  -0.1799982   0.3600002   0.0000000), wk =   0.0132450
        k(   29) = (  -0.1866648   0.3733335   0.0000000), wk =   0.0132450
        k(   30) = (  -0.1933314   0.3866669   0.0000000), wk =   0.0132450
        k(   31) = (  -0.1999980   0.4000002   0.0000000), wk =   0.0132450
        k(   32) = (  -0.2066646   0.4133335   0.0000000), wk =   0.0132450
        k(   33) = (  -0.2133312   0.4266669   0.0000000), wk =   0.0132450
        k(   34) = (  -0.2199978   0.4400002   0.0000000), wk =   0.0132450
        k(   35) = (  -0.2266644   0.4533336   0.0000000), wk =   0.0132450
        k(   36) = (  -0.2333310   0.4666669   0.0000000), wk =   0.0132450
        k(   37) = (  -0.2399976   0.4800002   0.0000000), wk =   0.0132450
        k(   38) = (  -0.2466642   0.4933336   0.0000000), wk =   0.0132450
        k(   39) = (  -0.2533308   0.5066669   0.0000000), wk =   0.0132450
        k(   40) = (  -0.2599974   0.5200003   0.0000000), wk =   0.0132450
        k(   41) = (  -0.2666640   0.5333336   0.0000000), wk =   0.0132450
        k(   42) = (  -0.2733306   0.5466669   0.0000000), wk =   0.0132450
        k(   43) = (  -0.2799972   0.5600003   0.0000000), wk =   0.0132450
        k(   44) = (  -0.2866638   0.5733336   0.0000000), wk =   0.0132450
        k(   45) = (  -0.2933304   0.5866670   0.0000000), wk =   0.0132450
        k(   46) = (  -0.2999970   0.6000003   0.0000000), wk =   0.0132450
        k(   47) = (  -0.3066636   0.6133336   0.0000000), wk =   0.0132450
        k(   48) = (  -0.3133302   0.6266670   0.0000000), wk =   0.0132450
        k(   49) = (  -0.3199968   0.6400003   0.0000000), wk =   0.0132450
        k(   50) = (  -0.3266634   0.6533337   0.0000000), wk =   0.0132450
        k(   51) = (  -0.3333300   0.6666670   0.0000000), wk =   0.0132450
        k(   52) = (  -0.3266634   0.6633337   0.0000000), wk =   0.0132450
        k(   53) = (  -0.3199968   0.6600003   0.0000000), wk =   0.0132450
        k(   54) = (  -0.3133302   0.6566670   0.0000000), wk =   0.0132450
        k(   55) = (  -0.3066636   0.6533336   0.0000000), wk =   0.0132450
        k(   56) = (  -0.2999970   0.6500003   0.0000000), wk =   0.0132450
        k(   57) = (  -0.2933304   0.6466670   0.0000000), wk =   0.0132450
        k(   58) = (  -0.2866638   0.6433336   0.0000000), wk =   0.0132450
        k(   59) = (  -0.2799972   0.6400003   0.0000000), wk =   0.0132450
        k(   60) = (  -0.2733306   0.6366669   0.0000000), wk =   0.0132450
        k(   61) = (  -0.2666640   0.6333336   0.0000000), wk =   0.0132450
        k(   62) = (  -0.2599974   0.6300003   0.0000000), wk =   0.0132450
        k(   63) = (  -0.2533308   0.6266669   0.0000000), wk =   0.0132450
        k(   64) = (  -0.2466642   0.6233336   0.0000000), wk =   0.0132450
        k(   65) = (  -0.2399976   0.6200002   0.0000000), wk =   0.0132450
        k(   66) = (  -0.2333310   0.6166669   0.0000000), wk =   0.0132450
        k(   67) = (  -0.2266644   0.6133336   0.0000000), wk =   0.0132450
        k(   68) = (  -0.2199978   0.6100002   0.0000000), wk =   0.0132450
        k(   69) = (  -0.2133312   0.6066669   0.0000000), wk =   0.0132450
        k(   70) = (  -0.2066646   0.6033335   0.0000000), wk =   0.0132450
        k(   71) = (  -0.1999980   0.6000002   0.0000000), wk =   0.0132450
        k(   72) = (  -0.1933314   0.5966669   0.0000000), wk =   0.0132450
        k(   73) = (  -0.1866648   0.5933335   0.0000000), wk =   0.0132450
        k(   74) = (  -0.1799982   0.5900002   0.0000000), wk =   0.0132450
        k(   75) = (  -0.1733316   0.5866668   0.0000000), wk =   0.0132450
        k(   76) = (  -0.1666650   0.5833335   0.0000000), wk =   0.0132450
        k(   77) = (  -0.1599984   0.5800002   0.0000000), wk =   0.0132450
        k(   78) = (  -0.1533318   0.5766668   0.0000000), wk =   0.0132450
        k(   79) = (  -0.1466652   0.5733335   0.0000000), wk =   0.0132450
        k(   80) = (  -0.1399986   0.5700001   0.0000000), wk =   0.0132450
        k(   81) = (  -0.1333320   0.5666668   0.0000000), wk =   0.0132450
        k(   82) = (  -0.1266654   0.5633335   0.0000000), wk =   0.0132450
        k(   83) = (  -0.1199988   0.5600001   0.0000000), wk =   0.0132450
        k(   84) = (  -0.1133322   0.5566668   0.0000000), wk =   0.0132450
        k(   85) = (  -0.1066656   0.5533334   0.0000000), wk =   0.0132450
        k(   86) = (  -0.0999990   0.5500001   0.0000000), wk =   0.0132450
        k(   87) = (  -0.0933324   0.5466668   0.0000000), wk =   0.0132450
        k(   88) = (  -0.0866658   0.5433334   0.0000000), wk =   0.0132450
        k(   89) = (  -0.0799992   0.5400001   0.0000000), wk =   0.0132450
        k(   90) = (  -0.0733326   0.5366667   0.0000000), wk =   0.0132450
        k(   91) = (  -0.0666660   0.5333334   0.0000000), wk =   0.0132450
        k(   92) = (  -0.0599994   0.5300001   0.0000000), wk =   0.0132450
        k(   93) = (  -0.0533328   0.5266667   0.0000000), wk =   0.0132450
        k(   94) = (  -0.0466662   0.5233334   0.0000000), wk =   0.0132450
        k(   95) = (  -0.0399996   0.5200000   0.0000000), wk =   0.0132450
        k(   96) = (  -0.0333330   0.5166667   0.0000000), wk =   0.0132450
        k(   97) = (  -0.0266664   0.5133334   0.0000000), wk =   0.0132450
        k(   98) = (  -0.0199998   0.5100000   0.0000000), wk =   0.0132450
        k(   99) = (  -0.0133332   0.5066667   0.0000000), wk =   0.0132450
        k(  100) = (  -0.0066666   0.5033333   0.0000000), wk =   0.0132450
        k(  101) = (   0.0000000   0.5000000   0.0000000), wk =   0.0132450
        k(  102) = (   0.0000000   0.4900000   0.0000000), wk =   0.0132450
        k(  103) = (   0.0000000   0.4800000   0.0000000), wk =   0.0132450
        k(  104) = (   0.0000000   0.4700000   0.0000000), wk =   0.0132450
        k(  105) = (   0.0000000   0.4600000   0.0000000), wk =   0.0132450
        k(  106) = (   0.0000000   0.4500000   0.0000000), wk =   0.0132450
        k(  107) = (   0.0000000   0.4400000   0.0000000), wk =   0.0132450
        k(  108) = (   0.0000000   0.4300000   0.0000000), wk =   0.0132450
        k(  109) = (   0.0000000   0.4200000   0.0000000), wk =   0.0132450
        k(  110) = (   0.0000000   0.4100000   0.0000000), wk =   0.0132450
        k(  111) = (   0.0000000   0.4000000   0.0000000), wk =   0.0132450
        k(  112) = (   0.0000000   0.3900000   0.0000000), wk =   0.0132450
        k(  113) = (   0.0000000   0.3800000   0.0000000), wk =   0.0132450
        k(  114) = (   0.0000000   0.3700000   0.0000000), wk =   0.0132450
        k(  115) = (   0.0000000   0.3600000   0.0000000), wk =   0.0132450
        k(  116) = (   0.0000000   0.3500000   0.0000000), wk =   0.0132450
        k(  117) = (   0.0000000   0.3400000   0.0000000), wk =   0.0132450
        k(  118) = (   0.0000000   0.3300000   0.0000000), wk =   0.0132450
        k(  119) = (   0.0000000   0.3200000   0.0000000), wk =   0.0132450
        k(  120) = (   0.0000000   0.3100000   0.0000000), wk =   0.0132450
        k(  121) = (   0.0000000   0.3000000   0.0000000), wk =   0.0132450
        k(  122) = (   0.0000000   0.2900000   0.0000000), wk =   0.0132450
        k(  123) = (   0.0000000   0.2800000   0.0000000), wk =   0.0132450
        k(  124) = (   0.0000000   0.2700000   0.0000000), wk =   0.0132450
        k(  125) = (   0.0000000   0.2600000   0.0000000), wk =   0.0132450
        k(  126) = (   0.0000000   0.2500000   0.0000000), wk =   0.0132450
        k(  127) = (   0.0000000   0.2400000   0.0000000), wk =   0.0132450
        k(  128) = (   0.0000000   0.2300000   0.0000000), wk =   0.0132450
        k(  129) = (   0.0000000   0.2200000   0.0000000), wk =   0.0132450
        k(  130) = (   0.0000000   0.2100000   0.0000000), wk =   0.0132450
        k(  131) = (   0.0000000   0.2000000   0.0000000), wk =   0.0132450
        k(  132) = (   0.0000000   0.1900000   0.0000000), wk =   0.0132450
        k(  133) = (   0.0000000   0.1800000   0.0000000), wk =   0.0132450
        k(  134) = (   0.0000000   0.1700000   0.0000000), wk =   0.0132450
        k(  135) = (   0.0000000   0.1600000   0.0000000), wk =   0.0132450
        k(  136) = (   0.0000000   0.1500000   0.0000000), wk =   0.0132450
        k(  137) = (   0.0000000   0.1400000   0.0000000), wk =   0.0132450
        k(  138) = (   0.0000000   0.1300000   0.0000000), wk =   0.0132450
        k(  139) = (   0.0000000   0.1200000   0.0000000), wk =   0.0132450
        k(  140) = (   0.0000000   0.1100000   0.0000000), wk =   0.0132450
        k(  141) = (   0.0000000   0.1000000   0.0000000), wk =   0.0132450
        k(  142) = (   0.0000000   0.0900000   0.0000000), wk =   0.0132450
        k(  143) = (   0.0000000   0.0800000   0.0000000), wk =   0.0132450
        k(  144) = (   0.0000000   0.0700000   0.0000000), wk =   0.0132450
        k(  145) = (   0.0000000   0.0600000   0.0000000), wk =   0.0132450
        k(  146) = (   0.0000000   0.0500000   0.0000000), wk =   0.0132450
        k(  147) = (   0.0000000   0.0400000   0.0000000), wk =   0.0132450
        k(  148) = (   0.0000000   0.0300000   0.0000000), wk =   0.0132450
        k(  149) = (   0.0000000   0.0200000   0.0000000), wk =   0.0132450
        k(  150) = (   0.0000000   0.0100000   0.0000000), wk =   0.0132450
        k(  151) = (   0.0000000   0.0000000   0.0000000), wk =   0.0132450

     Dense  grid:    67911 G-vectors     FFT dimensions: (  27,  27, 216)

     Dynamical RAM for                 wfc:       0.26 MB

     Dynamical RAM for     wfc (w. buffer):       0.26 MB

     Dynamical RAM for           str. fact:       0.13 MB

     Dynamical RAM for           local pot:       0.00 MB

     Dynamical RAM for          nlocal pot:       0.52 MB

     Dynamical RAM for                qrad:       0.41 MB

     Dynamical RAM for          rho,v,vnew:       0.84 MB

     Dynamical RAM for           G-vectors:       0.55 MB

     Dynamical RAM for          h,s,v(r/c):       0.01 MB

     Dynamical RAM for          <psi|beta>:       0.01 MB

     Dynamical RAM for                 psi:       0.52 MB

     Dynamical RAM for                hpsi:       0.52 MB

     Dynamical RAM for      wfcinit/wfcrot:       0.52 MB

     Estimated static dynamical RAM per process >       3.72 MB

     Estimated max dynamical RAM per process >       4.77 MB

     Estimated total dynamical RAM >      38.18 MB

     The potential is recalculated from file :
     ./tmp/C2L_AB_PBE_vdW.save/charge-density



     %%%%%%%%%%%%%%%%%%%%%%%%%%%%%%%%%%%%%%%%%%%%%%%%%%%%%%%%%%%%%%%%%%%%%%%%
     %                                                                      %
     % You are using vdW-DF, which was implemented by the Thonhauser group. %
     % Please cite the following two papers that made this development      %
     % possible and the two reviews that describe the various versions:     %
     %                                                                      %
     %   T. Thonhauser et al., PRL 115, 136402 (2015).                      %
     %   T. Thonhauser et al., PRB 76, 125112 (2007).                       %
     %   K. Berland et al., Rep. Prog. Phys. 78, 066501 (2015).             %
     %   D.C. Langreth et al., J. Phys.: Condens. Matter 21, 084203 (2009). %
     %                                                                      %
     %                                                                      %
     % If you are calculating the stress with vdW-DF, please also cite:     %
     %                                                                      %
     %   R. Sabatini et al., J. Phys.: Condens. Matter 24, 424209 (2012).   %
     %                                                                      %
     %%%%%%%%%%%%%%%%%%%%%%%%%%%%%%%%%%%%%%%%%%%%%%%%%%%%%%%%%%%%%%%%%%%%%%%%


     Carrying out vdW-DF run using the following parameters:
     Nqs    =  20  Npoints =  1024  r_max =  100.000
     q_mesh =  0.00001000  0.04494208  0.09755937  0.15916263
               0.23128650  0.31572767  0.41458969  0.53033537
               0.66584808  0.82450364  1.01025438  1.22772762
               1.48234092  1.78043706  2.12944203  2.53805004
               3.01644009  3.57652955  4.23227104  5.00000000


     -----------------------------------------------
     Non-local corr. energy    =       0.19414916 Ry
     -----------------------------------------------

     Starting wfcs are   16 randomized atomic wfcs

     Band Structure Calculation
     Davidson diagonalization with overlap

     Computing kpt #:     1  of   151
     total cpu time spent up to now is       10.5 secs

     Computing kpt #:     2  of   151
     total cpu time spent up to now is       10.7 secs

     Computing kpt #:     3  of   151
     total cpu time spent up to now is       11.1 secs

     Computing kpt #:     4  of   151
     total cpu time spent up to now is       11.5 secs

     Computing kpt #:     5  of   151
     total cpu time spent up to now is       11.9 secs

     Computing kpt #:     6  of   151
     total cpu time spent up to now is       12.3 secs

     Computing kpt #:     7  of   151
     total cpu time spent up to now is       12.7 secs

     Computing kpt #:     8  of   151
     total cpu time spent up to now is       13.0 secs

     Computing kpt #:     9  of   151
     total cpu time spent up to now is       13.4 secs

     Computing kpt #:    10  of   151
     total cpu time spent up to now is       13.7 secs

     Computing kpt #:    11  of   151
     total cpu time spent up to now is       14.0 secs

     Computing kpt #:    12  of   151
     total cpu time spent up to now is       14.3 secs

     Computing kpt #:    13  of   151
     total cpu time spent up to now is       14.6 secs

     Computing kpt #:    14  of   151
     total cpu time spent up to now is       14.9 secs

     Computing kpt #:    15  of   151
     total cpu time spent up to now is       15.2 secs

     Computing kpt #:    16  of   151
     total cpu time spent up to now is       15.5 secs

     Computing kpt #:    17  of   151
     total cpu time spent up to now is       15.9 secs

     Computing kpt #:    18  of   151
     total cpu time spent up to now is       16.2 secs

     Computing kpt #:    19  of   151
     total cpu time spent up to now is       16.6 secs

     Computing kpt #:    20  of   151
     total cpu time spent up to now is       16.8 secs

     Computing kpt #:    21  of   151
     total cpu time spent up to now is       17.1 secs

     Computing kpt #:    22  of   151
     total cpu time spent up to now is       17.3 secs

     Computing kpt #:    23  of   151
     total cpu time spent up to now is       17.7 secs

     Computing kpt #:    24  of   151
     total cpu time spent up to now is       17.9 secs

     Computing kpt #:    25  of   151
     total cpu time spent up to now is       18.4 secs

     Computing kpt #:    26  of   151
     total cpu time spent up to now is       18.7 secs

     Computing kpt #:    27  of   151
     total cpu time spent up to now is       19.1 secs

     Computing kpt #:    28  of   151
     total cpu time spent up to now is       19.4 secs

     Computing kpt #:    29  of   151
     total cpu time spent up to now is       19.6 secs

     Computing kpt #:    30  of   151
     total cpu time spent up to now is       19.9 secs

     Computing kpt #:    31  of   151
     total cpu time spent up to now is       20.2 secs

     Computing kpt #:    32  of   151
     total cpu time spent up to now is       20.5 secs

     Computing kpt #:    33  of   151
     total cpu time spent up to now is       20.8 secs

     Computing kpt #:    34  of   151
     total cpu time spent up to now is       21.1 secs

     Computing kpt #:    35  of   151
     total cpu time spent up to now is       21.5 secs

     Computing kpt #:    36  of   151
     total cpu time spent up to now is       21.9 secs

     Computing kpt #:    37  of   151
     total cpu time spent up to now is       22.2 secs

     Computing kpt #:    38  of   151
     total cpu time spent up to now is       22.6 secs

     Computing kpt #:    39  of   151
     total cpu time spent up to now is       23.1 secs

     Computing kpt #:    40  of   151
     total cpu time spent up to now is       23.3 secs

     Computing kpt #:    41  of   151
     total cpu time spent up to now is       23.7 secs

     Computing kpt #:    42  of   151
     total cpu time spent up to now is       24.0 secs

     Computing kpt #:    43  of   151
     total cpu time spent up to now is       24.3 secs

     Computing kpt #:    44  of   151
     total cpu time spent up to now is       24.7 secs

     Computing kpt #:    45  of   151
     total cpu time spent up to now is       25.0 secs

     Computing kpt #:    46  of   151
     total cpu time spent up to now is       25.3 secs

     Computing kpt #:    47  of   151
     total cpu time spent up to now is       25.6 secs

     Computing kpt #:    48  of   151
     total cpu time spent up to now is       25.9 secs

     Computing kpt #:    49  of   151
     total cpu time spent up to now is       26.1 secs

     Computing kpt #:    50  of   151
     total cpu time spent up to now is       26.4 secs

     Computing kpt #:    51  of   151
     total cpu time spent up to now is       26.6 secs

     Computing kpt #:    52  of   151
     total cpu time spent up to now is       26.9 secs

     Computing kpt #:    53  of   151
     total cpu time spent up to now is       27.1 secs

     Computing kpt #:    54  of   151
     total cpu time spent up to now is       27.3 secs

     Computing kpt #:    55  of   151
     total cpu time spent up to now is       27.6 secs

     Computing kpt #:    56  of   151
     total cpu time spent up to now is       28.0 secs

     Computing kpt #:    57  of   151
     total cpu time spent up to now is       28.3 secs

     Computing kpt #:    58  of   151
     total cpu time spent up to now is       28.7 secs

     Computing kpt #:    59  of   151
     total cpu time spent up to now is       29.1 secs

     Computing kpt #:    60  of   151
     total cpu time spent up to now is       29.4 secs

     Computing kpt #:    61  of   151
     total cpu time spent up to now is       29.8 secs

     Computing kpt #:    62  of   151
     total cpu time spent up to now is       30.1 secs

     Computing kpt #:    63  of   151
     total cpu time spent up to now is       30.4 secs

     Computing kpt #:    64  of   151
     total cpu time spent up to now is       30.7 secs

     Computing kpt #:    65  of   151
     total cpu time spent up to now is       31.0 secs

     Computing kpt #:    66  of   151
     total cpu time spent up to now is       31.2 secs

     Computing kpt #:    67  of   151
     total cpu time spent up to now is       31.5 secs

     Computing kpt #:    68  of   151
     total cpu time spent up to now is       31.7 secs

     Computing kpt #:    69  of   151
     total cpu time spent up to now is       31.9 secs

     Computing kpt #:    70  of   151
     total cpu time spent up to now is       32.1 secs

     Computing kpt #:    71  of   151
     total cpu time spent up to now is       32.3 secs

     Computing kpt #:    72  of   151
     total cpu time spent up to now is       32.6 secs

     Computing kpt #:    73  of   151
     total cpu time spent up to now is       32.8 secs

     Computing kpt #:    74  of   151
     total cpu time spent up to now is       33.0 secs

     Computing kpt #:    75  of   151
     total cpu time spent up to now is       33.2 secs

     Computing kpt #:    76  of   151
     total cpu time spent up to now is       33.4 secs

     Computing kpt #:    77  of   151
     total cpu time spent up to now is       33.6 secs

     Computing kpt #:    78  of   151
     total cpu time spent up to now is       33.8 secs

     Computing kpt #:    79  of   151
     total cpu time spent up to now is       34.0 secs

     Computing kpt #:    80  of   151
     total cpu time spent up to now is       34.2 secs

     Computing kpt #:    81  of   151
     total cpu time spent up to now is       34.4 secs

     Computing kpt #:    82  of   151
     total cpu time spent up to now is       34.6 secs

     Computing kpt #:    83  of   151
     total cpu time spent up to now is       34.7 secs

     Computing kpt #:    84  of   151
     total cpu time spent up to now is       34.9 secs

     Computing kpt #:    85  of   151
     total cpu time spent up to now is       35.1 secs

     Computing kpt #:    86  of   151
     total cpu time spent up to now is       35.3 secs

     Computing kpt #:    87  of   151
     total cpu time spent up to now is       35.5 secs

     Computing kpt #:    88  of   151
     total cpu time spent up to now is       35.8 secs

     Computing kpt #:    89  of   151
     total cpu time spent up to now is       35.9 secs

     Computing kpt #:    90  of   151
     total cpu time spent up to now is       36.1 secs

     Computing kpt #:    91  of   151
     total cpu time spent up to now is       36.4 secs

     Computing kpt #:    92  of   151
     total cpu time spent up to now is       36.6 secs

     Computing kpt #:    93  of   151
     total cpu time spent up to now is       36.8 secs

     Computing kpt #:    94  of   151
     total cpu time spent up to now is       37.0 secs

     Computing kpt #:    95  of   151
     total cpu time spent up to now is       37.2 secs

     Computing kpt #:    96  of   151
     total cpu time spent up to now is       37.4 secs

     Computing kpt #:    97  of   151
     total cpu time spent up to now is       37.6 secs

     Computing kpt #:    98  of   151
     total cpu time spent up to now is       37.8 secs

     Computing kpt #:    99  of   151
     total cpu time spent up to now is       38.0 secs

     Computing kpt #:   100  of   151
     total cpu time spent up to now is       38.2 secs

     Computing kpt #:   101  of   151
     total cpu time spent up to now is       38.4 secs

     Computing kpt #:   102  of   151
     total cpu time spent up to now is       38.6 secs

     Computing kpt #:   103  of   151
     total cpu time spent up to now is       38.9 secs

     Computing kpt #:   104  of   151
     total cpu time spent up to now is       39.2 secs

     Computing kpt #:   105  of   151
     total cpu time spent up to now is       39.4 secs

     Computing kpt #:   106  of   151
     total cpu time spent up to now is       39.7 secs

     Computing kpt #:   107  of   151
     total cpu time spent up to now is       40.0 secs

     Computing kpt #:   108  of   151
     total cpu time spent up to now is       40.3 secs

     Computing kpt #:   109  of   151
     total cpu time spent up to now is       40.6 secs

     Computing kpt #:   110  of   151
     total cpu time spent up to now is       40.9 secs

     Computing kpt #:   111  of   151
     total cpu time spent up to now is       41.1 secs

     Computing kpt #:   112  of   151
     total cpu time spent up to now is       41.4 secs

     Computing kpt #:   113  of   151
     total cpu time spent up to now is       41.7 secs

     Computing kpt #:   114  of   151
     total cpu time spent up to now is       42.0 secs

     Computing kpt #:   115  of   151
     total cpu time spent up to now is       42.3 secs

     Computing kpt #:   116  of   151
     total cpu time spent up to now is       42.6 secs

     Computing kpt #:   117  of   151
     total cpu time spent up to now is       42.9 secs

     Computing kpt #:   118  of   151
     total cpu time spent up to now is       43.2 secs

     Computing kpt #:   119  of   151
     total cpu time spent up to now is       43.4 secs

     Computing kpt #:   120  of   151
     total cpu time spent up to now is       43.7 secs

     Computing kpt #:   121  of   151
     total cpu time spent up to now is       44.0 secs

     Computing kpt #:   122  of   151
     total cpu time spent up to now is       44.3 secs

     Computing kpt #:   123  of   151
     total cpu time spent up to now is       44.6 secs

     Computing kpt #:   124  of   151
     total cpu time spent up to now is       44.8 secs

     Computing kpt #:   125  of   151
     total cpu time spent up to now is       45.1 secs

     Computing kpt #:   126  of   151
     total cpu time spent up to now is       45.4 secs

     Computing kpt #:   127  of   151
     total cpu time spent up to now is       45.7 secs

     Computing kpt #:   128  of   151
     total cpu time spent up to now is       46.0 secs

     Computing kpt #:   129  of   151
     total cpu time spent up to now is       46.2 secs

     Computing kpt #:   130  of   151
     total cpu time spent up to now is       46.5 secs

     Computing kpt #:   131  of   151
     total cpu time spent up to now is       46.8 secs

     Computing kpt #:   132  of   151
     total cpu time spent up to now is       47.1 secs

     Computing kpt #:   133  of   151
     total cpu time spent up to now is       47.3 secs

     Computing kpt #:   134  of   151
     total cpu time spent up to now is       47.6 secs

     Computing kpt #:   135  of   151
     total cpu time spent up to now is       48.0 secs

     Computing kpt #:   136  of   151
     total cpu time spent up to now is       48.2 secs

     Computing kpt #:   137  of   151
     total cpu time spent up to now is       48.5 secs

     Computing kpt #:   138  of   151
     total cpu time spent up to now is       48.7 secs

     Computing kpt #:   139  of   151
     total cpu time spent up to now is       49.0 secs

     Computing kpt #:   140  of   151
     total cpu time spent up to now is       49.2 secs

     Computing kpt #:   141  of   151
     total cpu time spent up to now is       49.6 secs

     Computing kpt #:   142  of   151
     total cpu time spent up to now is       49.8 secs

     Computing kpt #:   143  of   151
     total cpu time spent up to now is       50.1 secs

     Computing kpt #:   144  of   151
     total cpu time spent up to now is       50.4 secs

     Computing kpt #:   145  of   151
     total cpu time spent up to now is       50.7 secs

     Computing kpt #:   146  of   151
     total cpu time spent up to now is       51.1 secs

     Computing kpt #:   147  of   151
     total cpu time spent up to now is       51.4 secs

     Computing kpt #:   148  of   151
     total cpu time spent up to now is       51.7 secs

     Computing kpt #:   149  of   151
     total cpu time spent up to now is       52.0 secs

     Computing kpt #:   150  of   151
     total cpu time spent up to now is       52.3 secs

     Computing kpt #:   151  of   151
     total cpu time spent up to now is       52.5 secs

     ethr =  5.00E-06,  avg # of iterations = 26.3

     total cpu time spent up to now is       52.5 secs

     End of band structure calculation

          k = 0.0000 0.0000 0.0000 (  8603 PWs)   bands (ev):

   -20.1429 -19.9700  -8.7228  -7.6475  -3.6463  -3.6462  -3.6337  -3.6336
     2.5688   2.9942   4.1451   5.2631   5.6799   7.5238   7.8096   7.8096

          k =-0.0067 0.0115 0.0000 (  8591 PWs)   bands (ev):

   -20.1397 -19.9669  -8.7189  -7.6438  -3.6594  -3.6533  -3.6466  -3.6405
     2.5730   2.9985   4.1495   5.2674   5.6840   7.5281   7.8114   7.8233

          k =-0.0133 0.0231 0.0000 (  8593 PWs)   bands (ev):

   -20.1303 -19.9575  -8.7075  -7.6327  -3.6985  -3.6859  -3.6736  -3.6612
     2.5857   3.0112   4.1625   5.2803   5.6960   7.5387   7.8165   7.8514

          k =-0.0200 0.0346 0.0000 (  8609 PWs)   bands (ev):

   -20.1145 -19.9419  -8.6883  -7.6142  -3.7628  -3.7498  -3.7082  -3.6956
     2.6068   3.0325   4.1842   5.3019   5.7160   7.5573   7.8252   7.8638

          k =-0.0267 0.0462 0.0000 (  8587 PWs)   bands (ev):

   -20.0924 -19.9200  -8.6616  -7.5883  -3.8512  -3.8378  -3.7563  -3.7435
     2.6364   3.0623   4.2146   5.3321   5.7441   7.5834   7.8376   7.8818

          k =-0.0333 0.0577 0.0000 (  8587 PWs)   bands (ev):

   -20.0640 -19.8920  -8.6272  -7.5551  -3.9622  -3.9483  -3.8175  -3.8046
     2.6744   3.1006   4.2536   5.3709   5.7803   7.6168   7.8541   7.9053

          k =-0.0400 0.0693 0.0000 (  8583 PWs)   bands (ev):

   -20.0293 -19.8576  -8.5851  -7.5145  -4.0941  -4.0796  -3.8917  -3.8786
     2.7208   3.1475   4.3014   5.4183   5.8244   7.6576   7.8751   7.9340

          k =-0.0467 0.0808 0.0000 (  8571 PWs)   bands (ev):

   -19.9884 -19.8171  -8.5355  -7.4665  -4.2450  -4.2297  -3.9784  -3.9651
     2.7757   3.2028   4.3579   5.4743   5.8766   7.7054   7.9008   7.9689

          k =-0.0533 0.0924 0.0000 (  8579 PWs)   bands (ev):

   -19.9411 -19.7703  -8.4783  -7.4113  -4.4128  -4.3968  -4.0773  -4.0637
     2.8391   3.2666   4.4230   5.5389   5.9368   7.7603   7.9315   8.0100

          k =-0.0600 0.1039 0.0000 (  8567 PWs)   bands (ev):

   -19.8876 -19.7174  -8.4136  -7.3488  -4.5957  -4.5789  -4.1876  -4.1737
     2.9109   3.3389   4.4968   5.6122   6.0050   7.8221   7.9675   8.0581

          k =-0.0667 0.1155 0.0000 (  8567 PWs)   bands (ev):

   -19.8278 -19.6582  -8.3413  -7.2791  -4.7917  -4.7740  -4.3090  -4.2947
     2.9911   3.4197   4.5793   5.6940   6.0813   7.8903   8.0092   8.1124

          k =-0.0733 0.1270 0.0000 (  8559 PWs)   bands (ev):

   -19.7618 -19.5929  -8.2616  -7.2021  -4.9989  -4.9804  -4.4407  -4.4261
     3.0798   3.5090   4.6705   5.7845   6.1655   7.9649   8.0567   8.1743

          k =-0.0800 0.1386 0.0000 (  8573 PWs)   bands (ev):

   -19.6896 -19.5214  -8.1744  -7.1181  -5.2158  -5.1963  -4.5823  -4.5672
     3.1770   3.6067   4.7705   5.8835   6.2578   8.0453   8.1101   8.2437

          k =-0.0867 0.1501 0.0000 (  8561 PWs)   bands (ev):

   -19.6111 -19.4438  -8.0798  -7.0269  -5.4406  -5.4202  -4.7329  -4.7174
     3.2825   3.7129   4.8790   5.9912   6.3579   8.1307   8.1693   8.3203

          k =-0.0933 0.1617 0.0000 (  8549 PWs)   bands (ev):

   -19.5264 -19.3600  -7.9778  -6.9288  -5.6721  -5.6506  -4.8920  -4.8760
     3.3965   3.8275   4.9962   6.1074   6.4660   8.2201   8.2337   8.4017

          k =-0.1000 0.1732 0.0000 (  8545 PWs)   bands (ev):

   -19.4356 -19.2701  -7.8685  -6.8236  -5.9088  -5.8864  -5.0589  -5.0423
     3.5190   3.9505   5.1221   6.2321   6.5820   8.2987   8.3078   8.4498

          k =-0.1067 0.1848 0.0000 (  8553 PWs)   bands (ev):

   -19.3386 -19.1741  -7.7520  -6.7116  -6.1497  -6.1263  -5.2328  -5.2156
     3.6498   4.0818   5.2567   6.3655   6.7057   8.2262   8.3339   8.4379

          k =-0.1133 0.1963 0.0000 (  8521 PWs)   bands (ev):

   -19.2355 -19.0721  -7.6283  -6.5929  -6.3937  -6.3691  -5.4131  -5.3953
     3.7890   4.2216   5.4000   6.5073   6.8374   7.9709   8.1709   8.5157

          k =-0.1200 0.2078 0.0000 (  8513 PWs)   bands (ev):

   -19.1263 -18.9640  -7.4975  -6.6399  -6.6151  -6.4665  -5.5991  -5.5806
     3.9366   4.3697   5.5519   6.6577   6.9763   7.6968   7.9142   8.5966

          k =-0.1267 0.2194 0.0000 (  8509 PWs)   bands (ev):

   -19.0110 -18.8499  -7.3597  -6.8874  -6.8613  -6.3347  -5.7902  -5.7710
     4.0926   4.5260   5.7125   6.8165   7.1230   7.4146   7.6421   8.6942

          k =-0.1333 0.2309 0.0000 (  8501 PWs)   bands (ev):

   -18.8896 -18.7298  -7.2157  -7.1348  -7.1084  -6.1960  -5.9856  -5.9657
     4.2569   4.6906   5.8817   6.9834   7.1265   7.2772   7.3631   8.8012

          k =-0.1400 0.2425 0.0000 (  8489 PWs)   bands (ev):

   -18.7623 -18.6038  -7.3842  -7.3556  -7.0628  -6.1848  -6.1641  -6.0509
     4.4295   4.8634   6.0595   6.8342   7.0745   7.1634   7.4382   8.9149

          k =-0.1467 0.2540 0.0000 (  8489 PWs)   bands (ev):

   -18.6290 -18.4719  -7.6317  -7.6022  -6.9045  -6.3871  -6.3656  -5.8995
     4.6104   5.0442   6.2459   6.5388   6.7896   7.3448   7.6066   9.0372

          k =-0.1533 0.2656 0.0000 (  8481 PWs)   bands (ev):

   -18.4898 -18.3341  -7.8782  -7.8477  -6.7394  -6.5920  -6.5697  -5.7420
     4.7996   5.2331   6.2408   6.4411   6.4995   7.5371   7.7814   9.1667

          k =-0.1600 0.2771 0.0000 (  8481 PWs)   bands (ev):

   -18.3448 -18.1906  -8.1231  -8.0917  -6.7988  -6.7757  -6.5679  -5.5785
     4.9969   5.4298   5.9418   6.2077   6.6447   7.7378   7.9623   9.2987

          k =-0.1667 0.2887 0.0000 (  8483 PWs)   bands (ev):

   -18.1939 -18.0413  -8.3662  -8.3337  -7.0071  -6.9831  -6.3899  -5.4093
     5.2021   5.6328   5.6424   5.9163   6.8569   7.9467   8.1494   9.4391

          k =-0.1733 0.3002 0.0000 (  8501 PWs)   bands (ev):

   -18.0373 -17.8863  -8.6069  -8.5734  -7.2162  -7.1915  -6.2058  -5.2344
     5.3371   5.4210   5.6172   5.8515   7.0775   8.1638   8.3419   9.5852

          k =-0.1800 0.3118 0.0000 (  8503 PWs)   bands (ev):

   -17.8750 -17.7257  -8.8449  -8.8105  -7.4258  -7.4002  -6.0155  -5.0541
     5.0415   5.3264   5.6391   6.0696   7.3066   8.3889   8.5391   9.7376

          k =-0.1867 0.3233 0.0000 (  8491 PWs)   bands (ev):

   -17.7071 -17.5595  -9.0801  -9.0446  -7.6352  -7.6088  -5.8194  -4.8688
     4.7436   5.0348   5.8687   6.2969   7.5441   8.6217   8.7402   9.8933

          k =-0.1933 0.3349 0.0000 (  8497 PWs)   bands (ev):

   -17.5337 -17.3879  -9.3120  -9.2756  -7.8441  -7.8169  -5.6177  -4.6785
     4.4473   4.7445   6.1064   6.5317   7.7899   8.8620   8.9437  10.0565

          k =-0.2000 0.3464 0.0000 (  8501 PWs)   bands (ev):

   -17.3548 -17.2109  -9.5406  -9.5032  -8.0520  -8.0239  -5.4105  -4.4836
     4.1532   4.4561   6.3521   6.7735   8.0438   9.1095   9.1482  10.2186

          k =-0.2067 0.3580 0.0000 (  8511 PWs)   bands (ev):

   -17.1706 -17.0287  -9.7656  -9.7272  -8.2585  -8.2296  -5.1981  -4.2844
     3.8618   4.1702   6.6055   7.0218   8.3057   9.3516   9.3636  10.3871

          k =-0.2133 0.3695 0.0000 (  8519 PWs)   bands (ev):

   -16.9813 -16.8413  -9.9868  -9.9474  -8.4632  -8.4335  -4.9808  -4.0812
     3.5735   3.8871   6.8666   7.2762   8.5751   9.5512   9.6236  10.5565

          k =-0.2200 0.3811 0.0000 (  8515 PWs)   bands (ev):

   -16.7868 -16.6489 -10.2040 -10.1636  -8.6656  -8.6352  -4.7588  -3.8745
     3.2886   3.6074   7.1352   7.5360   8.8515   9.7435   9.8882  10.7281

          k =-0.2267 0.3926 0.0000 (  8515 PWs)   bands (ev):

   -16.5875 -16.4518 -10.4171 -10.3758  -8.8654  -8.8342  -4.5326  -3.6647
     3.0076   3.3312   7.4112   7.8002   9.1338   9.9243  10.1551  10.9002

          k =-0.2333 0.4041 0.0000 (  8505 PWs)   bands (ev):

   -16.3834 -16.2500 -10.6260 -10.5837  -9.0621  -9.0303  -4.3025  -3.4521
     2.7307   3.0590   7.6943   8.0677   9.4194  10.0897  10.4205  11.0731

          k =-0.2400 0.4157 0.0000 (  8517 PWs)   bands (ev):

   -16.1749 -16.0438 -10.8306 -10.7873  -9.2553  -9.2229  -4.0690  -3.2373
     2.4584   2.7911   7.9842   8.3365   9.7021  10.2395  10.6768  11.2467

          k =-0.2467 0.4272 0.0000 (  8501 PWs)   bands (ev):

   -15.9621 -15.8334 -11.0307 -10.9865  -9.4447  -9.4117  -3.8323  -3.0209
     2.1908   2.5279   8.2806   8.6040   9.9632  10.3864  10.9100  11.4250

          k =-0.2533 0.4388 0.0000 (  8507 PWs)   bands (ev):

   -15.7454 -15.6193 -11.2262 -11.1811  -9.6297  -9.5963  -3.5931  -2.8035
     1.9282   2.2694   8.5832   8.8663  10.1564  10.5740  11.0997  11.6143

          k =-0.2600 0.4503 0.0000 (  8503 PWs)   bands (ev):

   -15.5252 -15.4017 -11.4171 -11.3711  -9.8098  -9.7760  -3.3520  -2.5858
     1.6708   2.0161   8.8913   9.1173  10.2503  10.8345  11.2322  11.7714

          k =-0.2667 0.4619 0.0000 (  8493 PWs)   bands (ev):

   -15.3019 -15.1813 -11.6033 -11.5563  -9.9845  -9.9505  -3.1095  -2.3685
     1.4190   1.7682   9.2042   9.3483  10.2757  11.1406  11.3192  11.8556

          k =-0.2733 0.4734 0.0000 (  8489 PWs)   bands (ev):

   -15.0761 -14.9585 -11.7847 -11.7368 -10.1530 -10.1191  -2.8663  -2.1524
     1.1730   1.5259   9.5208   9.5478  10.2625  11.3929  11.4670  11.9314

          k =-0.2800 0.4850 0.0000 (  8493 PWs)   bands (ev):

   -14.8485 -14.7343 -11.9612 -11.9125 -10.3146 -10.2809  -2.6232  -1.9384
     0.9329   1.2895   9.7030   9.8403  10.2264  11.4869  11.7936  12.0096

          k =-0.2867 0.4965 0.0000 (  8489 PWs)   bands (ev):

   -14.6201 -14.5096 -12.1329 -12.0833 -10.4683 -10.4351  -2.3811  -1.7276
     0.6991   1.0593   9.8072  10.1550  10.1819  11.6237  11.9948  12.2093

          k =-0.2933 0.5081 0.0000 (  8487 PWs)   bands (ev):

   -14.3922 -14.2859 -12.2995 -12.2491 -10.6125 -10.5803  -2.1410  -1.5210
     0.4719   0.8357   9.8635  10.1194  10.4793  11.8078  12.0482  12.2983

          k =-0.3000 0.5196 0.0000 (  8495 PWs)   bands (ev):

   -14.1666 -14.0651 -12.4611 -12.4099 -10.7455 -10.7149  -1.9041  -1.3199
     0.2518   0.6193   9.8839  10.0614  10.7918  12.0267  12.0738  12.3324

          k =-0.3067 0.5312 0.0000 (  8491 PWs)   bands (ev):

   -13.9456 -13.8498 -12.6177 -12.5656 -10.8647 -10.8366  -1.6718  -1.1262
     0.0393   0.4108   9.8830  10.0059  11.0929  12.0842  12.2335  12.3814

          k =-0.3133 0.5427 0.0000 (  8489 PWs)   bands (ev):

   -13.7326 -13.6437 -12.7690 -12.7162 -10.9667 -10.9422  -1.4465  -0.9425
    -0.1639   0.2121   9.8731   9.9561  11.3732  12.0832  12.2869  12.5639

          k =-0.3200 0.5543 0.0000 (  8485 PWs)   bands (ev):

   -13.5323 -13.4521 -12.9150 -12.8614 -11.0464 -11.0273  -1.2329  -0.7742
    -0.3543   0.0278   9.8630   9.9148  11.6157  12.0783  12.2645  12.7690

          k =-0.3267 0.5658 0.0000 (  8490 PWs)   bands (ev):

   -13.3514 -13.2821 -13.0548 -13.0007 -11.0978 -11.0857  -1.0460  -0.6376
    -0.5177  -0.1268   9.8589   9.8841  11.7845  12.0925  12.2175  12.9044

          k =-0.3333 0.5774 0.0000 (  8478 PWs)   bands (ev):

   -13.2219 -13.1670 -13.1609 -13.1118 -11.1148 -11.1087  -0.9530  -0.5908
    -0.5849  -0.1971   9.8631   9.8674  11.8365  12.1530  12.1533  12.9461

          k =-0.3267 0.5774 0.0000 (  8494 PWs)   bands (ev):

   -13.2660 -13.2095 -13.1203 -13.0736 -11.1106 -11.1020  -0.9769  -0.6166
    -0.5529  -0.1800   9.8605   9.8733  11.8281  12.1155  12.1864  12.9374

          k =-0.3200 0.5774 0.0000 (  8480 PWs)   bands (ev):

   -13.3280 -13.2715 -13.0666 -13.0275 -11.0966 -11.0826  -1.0334  -0.6709
    -0.4862  -0.1380   9.8598   9.8842  11.8075  12.0747  12.2089  12.9138

          k =-0.3133 0.5774 0.0000 (  8476 PWs)   bands (ev):

   -13.3906 -13.3339 -13.0209 -12.9898 -11.0712 -11.0511  -1.1041  -0.7384
    -0.4058  -0.0839   9.8626   9.8988  11.7792  12.0312  12.2153  12.8776

          k =-0.3067 0.5774 0.0000 (  8472 PWs)   bands (ev):

   -13.4523 -13.3953 -12.9848 -12.9618 -11.0341 -11.0076  -1.1805  -0.8119
    -0.3204  -0.0249   9.8689   9.9171  11.7455  11.9853  12.2030  12.8315

          k =-0.3000 0.5774 0.0000 (  8486 PWs)   bands (ev):

   -13.5129 -13.4556 -12.9588 -12.9432 -10.9853 -10.9528  -1.2590  -0.8878
    -0.2339   0.0355   9.8788   9.9392  11.7076  11.9374  12.1716  12.7757

          k =-0.2933 0.5774 0.0000 (  8486 PWs)   bands (ev):

   -13.5723 -13.5147 -12.9424 -12.9332 -10.9255 -10.8873  -1.3377  -0.9645
    -0.1480   0.0956   9.8922   9.9650  11.6664  11.8878  12.1213  12.7101

          k =-0.2867 0.5774 0.0000 (  8486 PWs)   bands (ev):

   -13.6305 -13.5725 -12.9361 -12.9300 -10.8554 -10.8121  -1.4161  -1.0411
    -0.0635   0.1543   9.9092   9.9945  11.6221  11.8366  12.0537  12.6349

          k =-0.2800 0.5774 0.0000 (  8488 PWs)   bands (ev):

   -13.6873 -13.6291 -12.9399 -12.9315 -10.7759 -10.7283  -1.4935  -1.1169
     0.0189   0.2112   9.9296  10.0275  11.5747  11.7843  11.9707  12.5471

          k =-0.2733 0.5774 0.0000 (  8484 PWs)   bands (ev):

   -13.7429 -13.6843 -12.9511 -12.9383 -10.6883 -10.6371  -1.5696  -1.1916
     0.0990   0.2658   9.9532  10.0640  11.5240  11.7309  11.8752  12.4430

          k =-0.2667 0.5774 0.0000 (  8484 PWs)   bands (ev):

   -13.7972 -13.7383 -12.9676 -12.9506 -10.5937 -10.5395  -1.6445  -1.2652
     0.1765   0.3181   9.9797  10.1037  11.4687  11.6766  11.7704  12.3205

          k =-0.2600 0.5774 0.0000 (  8496 PWs)   bands (ev):

   -13.8501 -13.7909 -12.9883 -12.9675 -10.4930 -10.4365  -1.7178  -1.3373
     0.2513   0.3678  10.0087  10.1462  11.4062  11.6214  11.6614  12.1783

          k =-0.2533 0.5774 0.0000 (  8488 PWs)   bands (ev):

   -13.9017 -13.8422 -13.0124 -12.9882 -10.3873 -10.3291  -1.7895  -1.4079
     0.3231   0.4150  10.0398  10.1913  11.3310  11.5558  11.5652  12.0224

          k =-0.2467 0.5774 0.0000 (  8488 PWs)   bands (ev):

   -13.9520 -13.8923 -13.0391 -13.0120 -10.2774 -10.2179  -1.8596  -1.4770
     0.3921   0.4595  10.0720  10.2382  11.2363  11.4627  11.5070  11.8579

          k =-0.2400 0.5774 0.0000 (  8492 PWs)   bands (ev):

   -14.0010 -13.9410 -13.0678 -13.0382 -10.1640 -10.1037  -1.9280  -1.5444
     0.4580   0.5015  10.1042  10.2861  11.1210  11.3859  11.4444  11.6919

          k =-0.2333 0.5774 0.0000 (  8482 PWs)   bands (ev):

   -14.0487 -13.9884 -13.0980 -13.0662 -10.0479  -9.9871  -1.9947  -1.6102
     0.5207   0.5411  10.1343  10.3337  10.9921  11.3212  11.3682  11.5376

          k =-0.2267 0.5774 0.0000 (  8476 PWs)   bands (ev):

   -14.0950 -14.0344 -13.1293 -13.0956  -9.9297  -9.8686  -2.0597  -1.6743
     0.5759   0.5825  10.1585  10.3788  10.8595  11.2563  11.2636  11.4207

          k =-0.2200 0.5774 0.0000 (  8480 PWs)   bands (ev):

   -14.1401 -14.0792 -13.1614 -13.1260  -9.8097  -9.7487  -2.1228  -1.7366
     0.6115   0.6382  10.1693  10.4167  10.7342  11.1119  11.2101  11.3436

          k =-0.2133 0.5774 0.0000 (  8476 PWs)   bands (ev):

   -14.1837 -14.1226 -13.1938 -13.1570  -9.6886  -9.6277  -2.1842  -1.7973
     0.6435   0.6920  10.1526  10.4370  10.6325  10.9696  11.1593  11.2828

          k =-0.2067 0.5774 0.0000 (  8464 PWs)   bands (ev):

   -14.2261 -14.1647 -13.2265 -13.1883  -9.5666  -9.5062  -2.2438  -1.8561
     0.6732   0.7429  10.0911  10.4175  10.5725  10.8621  11.1105  11.2280

          k =-0.2000 0.5774 0.0000 (  8474 PWs)   bands (ev):

   -14.2671 -14.2055 -13.2591 -13.2198  -9.4443  -9.3844  -2.3016  -1.9132
     0.7005   0.7909   9.9844  10.3348  10.5554  10.8157  11.0632  11.1764

          k =-0.1933 0.5774 0.0000 (  8474 PWs)   bands (ev):

   -14.3068 -14.2449 -13.2915 -13.2511  -9.3218  -9.2627  -2.3576  -1.9685
     0.7257   0.8362   9.8486  10.2004  10.5652  10.8194  11.0175  11.1270

          k =-0.1867 0.5774 0.0000 (  8474 PWs)   bands (ev):

   -14.3451 -14.2830 -13.3236 -13.2823  -9.1996  -9.1413  -2.4118  -2.0220
     0.7488   0.8786   9.6980  10.0414  10.5879  10.8460  10.9734  11.0795

          k =-0.1800 0.5774 0.0000 (  8478 PWs)   bands (ev):

   -14.3821 -14.3198 -13.3551 -13.3130  -9.0780  -9.0205  -2.4641  -2.0737
     0.7699   0.9184   9.5404   9.8726  10.6155  10.8798  10.9309  11.0345

          k =-0.1733 0.5774 0.0000 (  8482 PWs)   bands (ev):

   -14.4178 -14.3552 -13.3861 -13.3432  -8.9572  -8.9007  -2.5145  -2.1235
     0.7892   0.9556   9.3797   9.7007  10.6440  10.8902  10.9114  10.9942

          k =-0.1667 0.5774 0.0000 (  8486 PWs)   bands (ev):

   -14.4521 -14.3894 -13.4163 -13.3728  -8.8375  -8.7821  -2.5631  -2.1716
     0.8067   0.9903   9.2180   9.5285  10.6705  10.8523  10.9206  10.9754

          k =-0.1600 0.5774 0.0000 (  8490 PWs)   bands (ev):

   -14.4851 -14.4221 -13.4458 -13.4016  -8.7193  -8.6650  -2.6098  -2.2178
     0.8226   1.0226   9.0569   9.3577  10.6920  10.8190  10.8914  10.9917

          k =-0.1533 0.5774 0.0000 (  8488 PWs)   bands (ev):

   -14.5168 -14.4536 -13.4744 -13.4297  -8.6027  -8.5495  -2.6547  -2.2621
     0.8370   1.0526   8.8974   9.1893  10.7026  10.7952  10.8537  11.0122

          k =-0.1467 0.5774 0.0000 (  8480 PWs)   bands (ev):

   -14.5471 -14.4837 -13.5020 -13.4569  -8.4881  -8.4361  -2.6977  -2.3046
     0.8499   1.0804   8.7402   9.0241  10.6944  10.7883  10.8158  11.0281

          k =-0.1400 0.5774 0.0000 (  8480 PWs)   bands (ev):

   -14.5760 -14.5125 -13.5288 -13.4831  -8.3758  -8.3250  -2.7387  -2.3453
     0.8615   1.1061   8.5859   8.8627  10.6712  10.7784  10.7953  11.0382

          k =-0.1333 0.5774 0.0000 (  8482 PWs)   bands (ev):

   -14.6037 -14.5400 -13.5545 -13.5084  -8.2660  -8.2164  -2.7780  -2.3840
     0.8718   1.1298   8.4350   8.7055  10.6425  10.7430  10.8052  11.0426

          k =-0.1267 0.5774 0.0000 (  8486 PWs)   bands (ev):

   -14.6299 -14.5661 -13.5791 -13.5326  -8.1590  -8.1106  -2.8153  -2.4209
     0.8811   1.1516   8.2882   8.5529  10.6126  10.7089  10.8148  11.0420

          k =-0.1200 0.5774 0.0000 (  8482 PWs)   bands (ev):

   -14.6549 -14.5908 -13.6026 -13.5558  -8.0551  -8.0079  -2.8507  -2.4560
     0.8892   1.1716   8.1458   8.4055  10.5832  10.6763  10.8225  11.0372

          k =-0.1133 0.5774 0.0000 (  8488 PWs)   bands (ev):

   -14.6785 -14.6143 -13.6250 -13.5779  -7.9545  -7.9086  -2.8842  -2.4892
     0.8964   1.1899   8.0083   8.2635  10.5546  10.6453  10.8281  11.0292

          k =-0.1067 0.5774 0.0000 (  8484 PWs)   bands (ev):

   -14.7007 -14.6364 -13.6463 -13.5989  -7.8577  -7.8130  -2.9159  -2.5205
     0.9027   1.2067   7.8761   8.1272  10.5273  10.6160  10.8318  11.0187

          k =-0.1000 0.5774 0.0000 (  8482 PWs)   bands (ev):

   -14.7216 -14.6572 -13.6663 -13.6187  -7.7647  -7.7212  -2.9456  -2.5499
     0.9083   1.2219   7.7496   7.9972  10.5014  10.5883  10.8336  11.0066

          k =-0.0933 0.5774 0.0000 (  8472 PWs)   bands (ev):

   -14.7412 -14.6766 -13.6852 -13.6373  -7.6761  -7.6337  -2.9734  -2.5774
     0.9131   1.2357   7.6292   7.8736  10.4770  10.5623  10.8338  10.9935

          k =-0.0867 0.5774 0.0000 (  8484 PWs)   bands (ev):

   -14.7594 -14.6947 -13.7028 -13.6547  -7.5919  -7.5507  -2.9993  -2.6030
     0.9172   1.2482   7.5152   7.7569  10.4541  10.5380  10.8327  10.9797

          k =-0.0800 0.5774 0.0000 (  8480 PWs)   bands (ev):

   -14.7762 -14.7114 -13.7192 -13.6709  -7.5126  -7.4725  -3.0233  -2.6268
     0.9208   1.2594   7.4080   7.6472  10.4327  10.5155  10.8307  10.9660

          k =-0.0733 0.5774 0.0000 (  8484 PWs)   bands (ev):

   -14.7917 -14.7268 -13.7343 -13.6858  -7.4384  -7.3994  -3.0454  -2.6486
     0.9239   1.2695   7.3079   7.5451  10.4130  10.4948  10.8279  10.9524

          k =-0.0667 0.5774 0.0000 (  8492 PWs)   bands (ev):

   -14.8059 -14.7409 -13.7482 -13.6995  -7.3696  -7.3315  -3.0656  -2.6686
     0.9265   1.2784   7.2153   7.4507  10.3950  10.4757  10.8246  10.9394

          k =-0.0600 0.5774 0.0000 (  8480 PWs)   bands (ev):

   -14.8187 -14.7536 -13.7607 -13.7119  -7.3064  -7.2692  -3.0839  -2.6867
     0.9287   1.2863   7.1305   7.3643  10.3786  10.4585  10.8210  10.9271

          k =-0.0533 0.5774 0.0000 (  8474 PWs)   bands (ev):

   -14.8302 -14.7650 -13.7720 -13.7230  -7.2491  -7.2128  -3.1002  -2.7029
     0.9306   1.2933   7.0537   7.2862  10.3639  10.4431  10.8173  10.9158

          k =-0.0467 0.5774 0.0000 (  8474 PWs)   bands (ev):

   -14.8403 -14.7751 -13.7820 -13.7329  -7.1979  -7.1623  -3.1146  -2.7171
     0.9321   1.2992   6.9853   7.2167  10.3508  10.4294  10.8137  10.9055

          k =-0.0400 0.5774 0.0000 (  8462 PWs)   bands (ev):

   -14.8491 -14.7838 -13.7906 -13.7414  -7.1531  -7.1182  -3.1271  -2.7295
     0.9334   1.3043   6.9255   7.1559  10.3395  10.4176  10.8103  10.8964

          k =-0.0333 0.5774 0.0000 (  8466 PWs)   bands (ev):

   -14.8565 -14.7912 -13.7980 -13.7487  -7.1148  -7.0805  -3.1377  -2.7400
     0.9344   1.3086   6.8744   7.1041  10.3300  10.4075  10.8073  10.8886

          k =-0.0267 0.5774 0.0000 (  8458 PWs)   bands (ev):

   -14.8625 -14.7972 -13.8040 -13.7546  -7.0833  -7.0494  -3.1464  -2.7485
     0.9352   1.3120   6.8324   7.0615  10.3221  10.3993  10.8047  10.8821

          k =-0.0200 0.5774 0.0000 (  8450 PWs)   bands (ev):

   -14.8673 -14.8019 -13.8086 -13.7593  -7.0585  -7.0251  -3.1531  -2.7552
     0.9358   1.3146   6.7996   7.0282  10.3160  10.3929  10.8025  10.8770

          k =-0.0133 0.5774 0.0000 (  8452 PWs)   bands (ev):

   -14.8706 -14.8052 -13.8120 -13.7626  -7.0408  -7.0076  -3.1579  -2.7600
     0.9362   1.3165   6.7760   7.0043  10.3116  10.3884  10.8010  10.8733

          k =-0.0067 0.5774 0.0000 (  8456 PWs)   bands (ev):

   -14.8727 -14.8073 -13.8140 -13.7645  -7.0301  -6.9971  -3.1608  -2.7628
     0.9364   1.3176   6.7619   6.9900  10.3090  10.3856  10.8000  10.8711

          k = 0.0000 0.5774 0.0000 (  8466 PWs)   bands (ev):

   -14.8733 -14.8079 -13.8147 -13.7652  -7.0266  -6.9936  -3.1618  -2.7638
     0.9365   1.3179   6.7571   6.9852  10.3081  10.3847  10.7997  10.8703

          k = 0.0000 0.5658 0.0000 (  8456 PWs)   bands (ev):

   -14.9212 -14.8442 -13.7754 -13.7133  -7.0242  -6.9913  -3.1839  -2.7712
     0.9507   1.3407   6.7584   6.9863  10.0513  10.5243  10.6632  11.1260

          k = 0.0000 0.5543 0.0000 (  8458 PWs)   bands (ev):

   -15.0397 -14.9453 -13.6637 -13.5844  -7.0172  -6.9842  -3.2469  -2.7954
     0.9940   1.4066   6.7622   6.9897   9.7625  10.2455  10.9523  11.3909

          k = 0.0000 0.5427 0.0000 (  8456 PWs)   bands (ev):

   -15.1947 -15.0882 -13.5022 -13.4130  -7.0054  -6.9725  -3.3436  -2.8396
     1.0676   1.5106   6.7686   6.9953   9.4770   9.9599  11.2473  11.2822

          k = 0.0000 0.5312 0.0000 (  8468 PWs)   bands (ev):

   -15.3670 -15.2528 -13.3116 -13.2176  -6.9889  -6.9561  -3.4660  -2.9057
     1.1717   1.6463   6.7775   7.0031   9.1959   9.6776  10.9903  11.5580

          k = 0.0000 0.5196 0.0000 (  8462 PWs)   bands (ev):

   -15.5472 -15.4277 -13.1035 -13.0077  -6.9678  -6.9350  -3.6078  -2.9930
     1.3048   1.8078   6.7888   7.0130   8.9197   9.3996  10.7047  11.5407

          k = 0.0000 0.5081 0.0000 (  8472 PWs)   bands (ev):

   -15.7304 -15.6070 -12.8840 -12.7879  -6.9420  -6.9093  -3.7636  -3.0993
     1.4642   1.9905   6.8025   7.0249   8.6488   9.1265  10.4226  11.3258

          k = 0.0000 0.4965 0.0000 (  8484 PWs)   bands (ev):

   -15.9141 -15.7875 -12.6564 -12.5608  -6.9117  -6.8790  -3.9297  -3.2215
     1.6466   2.1903   6.8185   7.0385   8.3835   8.8585  10.1453  11.1029

          k = 0.0000 0.4850 0.0000 (  8478 PWs)   bands (ev):

   -16.0968 -15.9675 -12.4225 -12.3280  -6.8767  -6.8441  -4.1030  -3.3565
     1.8487   2.4042   6.8367   7.0537   8.1243   8.5960   9.8734  10.8788

          k = 0.0000 0.4734 0.0000 (  8482 PWs)   bands (ev):

   -16.2775 -16.1458 -12.1836 -12.0905  -6.8372  -6.8047  -4.2811  -3.5013
     2.0674   2.6296   6.8566   7.0696   7.8723   8.3391   9.6071  10.6785

          k = 0.0000 0.4619 0.0000 (  8490 PWs)   bands (ev):

   -16.4557 -16.3217 -11.9403 -11.8489  -6.7933  -6.7609  -4.4621  -3.6534
     2.3000   2.8646   6.8778   7.0844   7.6295   8.0883   9.3467  10.4350

          k = 0.0000 0.4503 0.0000 (  8486 PWs)   bands (ev):

   -16.6308 -16.4948 -11.6934 -11.6038  -6.7449  -6.7126  -4.6446  -3.8107
     2.5442   3.1074   6.8986   7.0908   7.4047   7.8439   9.0924  10.1724

          k = 0.0000 0.4388 0.0000 (  8480 PWs)   bands (ev):

   -16.8026 -16.6647 -11.4432 -11.3555  -6.6921  -6.6600  -4.8273  -3.9713
     2.7979   3.3567   6.9098   7.0505   7.2442   7.6070   8.8442   9.9265

          k = 0.0000 0.4272 0.0000 (  8474 PWs)   bands (ev):

   -16.9709 -16.8312 -11.1901 -11.1045  -6.6351  -6.6031  -5.0095  -4.1339
     3.0595   3.6113   6.8267   6.9828   7.2097   7.3810   8.6024   9.6866

          k = 0.0000 0.4157 0.0000 (  8464 PWs)   bands (ev):

   -17.1356 -16.9940 -10.9345 -10.8510  -6.5739  -6.5421  -5.1902  -4.2972
     3.3275   3.8702   6.6295   6.9732   7.1697   7.2321   8.3671   9.4529

          k = 0.0000 0.4041 0.0000 (  8470 PWs)   bands (ev):

   -17.2963 -17.1531 -10.6766 -10.5952  -6.5086  -6.4769  -5.3689  -4.4603
     3.6005   4.1324   6.4176   6.8696   7.0867   7.2497   8.1386   9.2255

          k = 0.0000 0.3926 0.0000 (  8472 PWs)   bands (ev):

   -17.4532 -17.3082 -10.4167 -10.3376  -6.4392  -6.4077  -5.5450  -4.6223
     3.8774   4.3972   6.2067   6.6766   7.0989   7.2750   7.9174   9.0043

          k = 0.0000 0.3811 0.0000 (  8474 PWs)   bands (ev):

   -17.6060 -17.4595 -10.1551 -10.0783  -6.3659  -6.3347  -5.7182  -4.7828
     4.1568   4.6635   6.0000   6.4747   7.1284   7.3004   7.7053   8.7895

          k = 0.0000 0.3695 0.0000 (  8480 PWs)   bands (ev):

   -17.7547 -17.6066  -9.8922  -9.8176  -6.2889  -6.2579  -5.8880  -4.9410
     4.4372   4.9304   5.7988   6.2770   7.1618   7.3161   7.5119   8.5812

          k = 0.0000 0.3580 0.0000 (  8480 PWs)   bands (ev):

   -17.8992 -17.7496  -9.6280  -9.5557  -6.2082  -6.1775  -6.0542  -5.0965
     4.7164   5.1956   5.6045   6.0877   7.1849   7.2585   7.4116   8.3794

          k = 0.0000 0.3464 0.0000 (  8492 PWs)   bands (ev):

   -18.0395 -17.8885  -9.3630  -9.2931  -6.2165  -6.1240  -6.0935  -5.2490
     4.9885   5.3925   5.4817   5.9142   7.0574   7.2495   7.4207   8.1846

          k = 0.0000 0.3349 0.0000 (  8490 PWs)   bands (ev):

   -18.1755 -18.0231  -9.0975  -9.0299  -6.3747  -6.0365  -6.0063  -5.3982
     5.1971   5.2637   5.6838   5.8157   6.8747   7.2860   7.4451   7.9970

          k = 0.0000 0.3233 0.0000 (  8492 PWs)   bands (ev):

   -18.3072 -18.1534  -8.8318  -8.7666  -6.5285  -5.9459  -5.9160  -5.5437
     5.0414   5.3581   5.7339   6.0196   6.6933   7.3238   7.4688   7.8182

          k = 0.0000 0.3118 0.0000 (  8502 PWs)   bands (ev):

   -18.4346 -18.2794  -8.5662  -8.5034  -6.6779  -5.8523  -5.8227  -5.6853
     4.8702   5.2663   5.9406   6.2746   6.5186   7.3574   7.4837   7.6531

          k = 0.0000 0.3002 0.0000 (  8500 PWs)   bands (ev):

   -18.5575 -18.4011  -8.3011  -8.2407  -6.8226  -5.8228  -5.7559  -5.7267
     4.7042   5.1210   6.2010   6.3393   6.5396   7.3636   7.4652   7.5402

          k = 0.0000 0.2887 0.0000 (  8502 PWs)   bands (ev):

   -18.6760 -18.5184  -8.0369  -7.9790  -6.9625  -5.9561  -5.6571  -5.6283
     4.5439   4.9689   6.1768   6.4699   6.7861   7.2683   7.4295   7.5240

          k = 0.0000 0.2771 0.0000 (  8511 PWs)   bands (ev):

   -18.7900 -18.6312  -7.7741  -7.7186  -7.0976  -6.0849  -5.5560  -5.5275
     4.3897   4.8186   6.0185   6.7330   7.0120   7.1321   7.3845   7.5475

          k = 0.0000 0.2656 0.0000 (  8505 PWs)   bands (ev):

   -18.8996 -18.7396  -7.5132  -7.4600  -7.2276  -6.2092  -5.4529  -5.4249
     4.2417   4.6724   5.8662   6.9111   7.0673   7.1395   7.4026   7.5933

          k = 0.0000 0.2540 0.0000 (  8519 PWs)   bands (ev):

   -19.0046 -18.8436  -7.3536  -7.2536  -7.2035  -6.3288  -5.3482  -5.3207
     4.0997   4.5315   5.7201   6.8123   7.0712   7.2978   7.5378   7.6836

          k = 0.0000 0.2425 0.0000 (  8517 PWs)   bands (ev):

   -19.1051 -18.9430  -7.4730  -6.9981  -6.9501  -6.4436  -5.2422  -5.2152
     3.9641   4.3962   5.5804   6.6808   6.9705   7.5394   7.6185   7.8275

          k = 0.0000 0.2309 0.0000 (  8529 PWs)   bands (ev):

   -19.2011 -19.0380  -7.5876  -6.7456  -6.7002  -6.5533  -5.1353  -5.1088
     3.8346   4.2668   5.4471   6.5510   6.8602   7.6605   7.7434   7.9022

          k = 0.0000 0.2194 0.0000 (  8513 PWs)   bands (ev):

   -19.2924 -19.1284  -7.6970  -6.6591  -6.4969  -6.4533  -5.0277  -5.0018
     3.7114   4.1434   5.3203   6.4267   6.7509   7.7001   7.8208   8.0931

          k = 0.0000 0.2078 0.0000 (  8535 PWs)   bands (ev):

   -19.3792 -19.2143  -7.8011  -6.7589  -6.2531  -6.2120  -4.9202  -4.8948
     3.5944   4.0261   5.2000   6.3081   6.6447   7.7342   7.8525   8.3102

          k = 0.0000 0.1963 0.0000 (  8545 PWs)   bands (ev):

   -19.4614 -19.2956  -7.8997  -6.8537  -6.0145  -5.9758  -4.8129  -4.7882
     3.4837   3.9150   5.0861   6.1957   6.5428   7.7644   7.8740   8.3643

          k = 0.0000 0.1848 0.0000 (  8557 PWs)   bands (ev):

   -19.5389 -19.3724  -7.9930  -6.9435  -5.7821  -5.7457  -4.7066  -4.6825
     3.3793   3.8102   4.9787   6.0895   6.4458   7.7907   7.8890   8.2918

          k = 0.0000 0.1732 0.0000 (  8573 PWs)   bands (ev):

   -19.6119 -19.4445  -8.0808  -7.0280  -5.5565  -5.5224  -4.6017  -4.5783
     3.2813   3.7116   4.8778   5.9897   6.3541   7.8128   7.8985   8.2130

          k = 0.0000 0.1617 0.0000 (  8561 PWs)   bands (ev):

   -19.6801 -19.5121  -8.1631  -7.1072  -5.3388  -5.3069  -4.4987  -4.4761
     3.1895   3.6193   4.7834   5.8962   6.2679   7.8306   7.9009   8.1387

          k = 0.0000 0.1501 0.0000 (  8567 PWs)   bands (ev):

   -19.7437 -19.5750  -8.2398  -7.1812  -5.1297  -5.1000  -4.3984  -4.3766
     3.1040   3.5333   4.6954   5.8091   6.1874   7.8435   7.8942   8.0735

          k = 0.0000 0.1386 0.0000 (  8567 PWs)   bands (ev):

   -19.8027 -19.6333  -8.3109  -7.2498  -4.9302  -4.9026  -4.3014  -4.2804
     3.0248   3.4537   4.6140   5.7284   6.1126   7.8487   7.8777   8.0233

          k = 0.0000 0.1270 0.0000 (  8561 PWs)   bands (ev):

   -19.8569 -19.6870  -8.3765  -7.3130  -4.7413  -4.7158  -4.2084  -4.1882
     2.9520   3.3803   4.5391   5.6541   6.0437   7.8296   7.8674   7.9891

          k = 0.0000 0.1155 0.0000 (  8565 PWs)   bands (ev):

   -19.9065 -19.7361  -8.4364  -7.3709  -4.5641  -4.5405  -4.1200  -4.1007
     2.8855   3.3134   4.4708   5.5863   5.9807   7.7886   7.8662   7.9659

          k = 0.0000 0.1039 0.0000 (  8571 PWs)   bands (ev):

   -19.9514 -19.7805  -8.4907  -7.4233  -4.3996  -4.3777  -4.0371  -4.0187
     2.8253   3.2528   4.4089   5.5249   5.9237   7.7435   7.8638   7.9474

          k = 0.0000 0.0924 0.0000 (  8571 PWs)   bands (ev):

   -19.9915 -19.8202  -8.5393  -7.4702  -4.2487  -4.2286  -3.9603  -3.9428
     2.7715   3.1985   4.3535   5.4700   5.8725   7.7000   7.8591   7.9306

          k = 0.0000 0.0808 0.0000 (  8569 PWs)   bands (ev):

   -20.0270 -19.8553  -8.5823  -7.5117  -4.1126  -4.0941  -3.8903  -3.8738
     2.7240   3.1506   4.3047   5.4215   5.8274   7.6596   7.8524   7.9144

          k = 0.0000 0.0693 0.0000 (  8577 PWs)   bands (ev):

   -20.0577 -19.8857  -8.6195  -7.5477  -3.9922  -3.9752  -3.8280  -3.8123
     2.6828   3.1092   4.2623   5.3795   5.7883   7.6240   7.8444   7.8982

          k = 0.0000 0.0577 0.0000 (  8577 PWs)   bands (ev):

   -20.0837 -19.9115  -8.6510  -7.5781  -3.8886  -3.8728  -3.7739  -3.7591
     2.6480   3.0740   4.2265   5.3439   5.7552   7.5936   7.8359   7.8828

          k = 0.0000 0.0462 0.0000 (  8579 PWs)   bands (ev):

   -20.1050 -19.9325  -8.6769  -7.6031  -3.8024  -3.7877  -3.7288  -3.7147
     2.6195   3.0453   4.1972   5.3148   5.7281   7.5687   7.8276   7.8688

          k = 0.0000 0.0346 0.0000 (  8591 PWs)   bands (ev):

   -20.1216 -19.9489  -8.6969  -7.6225  -3.7346  -3.7208  -3.6930  -3.6796
     2.5973   3.0229   4.1744   5.2922   5.7070   7.5490   7.8202   7.8571

          k = 0.0000 0.0231 0.0000 (  8595 PWs)   bands (ev):

   -20.1334 -19.9606  -8.7113  -7.6364  -3.6856  -3.6725  -3.6671  -3.6542
     2.5815   3.0070   4.1581   5.2761   5.6920   7.5350   7.8145   7.8484

          k = 0.0000 0.0115 0.0000 (  8599 PWs)   bands (ev):

   -20.1405 -19.9677  -8.7199  -7.6447  -3.6561  -3.6515  -3.6434  -3.6388
     2.5720   2.9974   4.1483   5.2664   5.6830   7.5274   7.8109   7.8199

          k = 0.0000 0.0000 0.0000 (  8603 PWs)   bands (ev):

   -20.1429 -19.9700  -8.7228  -7.6475  -3.6463  -3.6462  -3.6337  -3.6336
     2.5688   2.9942   4.1451   5.2631   5.6800   7.8096   7.8096   7.8408

     Writing all to output data dir ./tmp/C2L_AB_PBE_vdW.save/

     init_run     :      9.93s CPU     10.02s WALL (       1 calls)
     electrons    :     42.37s CPU     42.34s WALL (       1 calls)

     Called by init_run:
     wfcinit      :      0.00s CPU      0.00s WALL (       1 calls)
     wfcinit:atom :      0.04s CPU      0.04s WALL (     151 calls)
     wfcinit:wfcr :      2.08s CPU      2.09s WALL (     151 calls)
     potinit      :      9.59s CPU      9.67s WALL (       1 calls)
     hinit0       :      0.26s CPU      0.27s WALL (       1 calls)

     Called by electrons:
     c_bands      :     42.37s CPU     42.33s WALL (       1 calls)
     v_of_rho     :      9.59s CPU      9.67s WALL (       1 calls)
     v_h          :      0.00s CPU      0.00s WALL (       1 calls)
     v_xc         :      9.59s CPU      9.67s WALL (       1 calls)
     vdW_kernel   :      9.52s CPU      9.58s WALL (       1 calls)

     Called by c_bands:
     init_us_2    :      0.05s CPU      0.05s WALL (     151 calls)
     init_us_2:cp :      0.05s CPU      0.05s WALL (     151 calls)
     cegterg      :     39.97s CPU     39.88s WALL (     264 calls)

     Called by sum_band:

     Called by *egterg:
     cdiaghg      :      3.06s CPU      3.14s WALL (    4123 calls)
     cegterg:over :      3.09s CPU      3.16s WALL (    3972 calls)
     cegterg:upda :      3.52s CPU      3.99s WALL (    3972 calls)
     cegterg:last :      4.03s CPU      3.29s WALL (    1924 calls)
     cdiaghg:chol :      0.27s CPU      0.28s WALL (    4123 calls)
     cdiaghg:inve :      0.08s CPU      0.08s WALL (    4123 calls)
     cdiaghg:para :      0.42s CPU      0.45s WALL (    8246 calls)
     h_psi        :     27.41s CPU     27.37s WALL (    4387 calls)
     g_psi        :      0.18s CPU      0.21s WALL (    3972 calls)

     Called by h_psi:
     h_psi:calbec :      1.91s CPU      1.87s WALL (    4387 calls)
     vloc_psi     :     23.14s CPU     23.75s WALL (    4387 calls)
     add_vuspsi   :      2.16s CPU      1.52s WALL (    4387 calls)

     General routines
     calbec       :      1.90s CPU      1.85s WALL (    4387 calls)
     fft          :      0.23s CPU      0.24s WALL (      61 calls)
     fftw         :     21.03s CPU     21.52s WALL (   67260 calls)
     davcio       :      0.00s CPU      0.07s WALL (     302 calls)

     Parallel routines

     PWSCF        :     52.79s CPU     53.13s WALL


   This run was terminated on:  14:58:58  14Apr2025            

=------------------------------------------------------------------------------=
   JOB DONE.
=------------------------------------------------------------------------------=
