
     Program PWSCF v.7.2 starts on  4Apr2024 at 16:45:43 

     This program is part of the open-source Quantum ESPRESSO suite
     for quantum simulation of materials; please cite
         "P. Giannozzi et al., J. Phys.:Condens. Matter 21 395502 (2009);
         "P. Giannozzi et al., J. Phys.:Condens. Matter 29 465901 (2017);
         "P. Giannozzi et al., J. Chem. Phys. 152 154105 (2020);
          URL http://www.quantum-espresso.org", 
     in publications or presentations arising from this work. More details at
     http://www.quantum-espresso.org/quote

     Parallel version (MPI & OpenMP), running on       8 processor cores
     Number of MPI processes:                 8
     Threads/MPI process:                     1

     MPI processes distributed on     1 nodes
     0 MiB available memory on the printing compute node when the environment starts

     Waiting for input...
     Reading input from standard input
Warning: card &IONS ignored
Warning: card / ignored

     Current dimensions of program PWSCF are:
     Max number of different atomic species (ntypx) = 10
     Max number of k-points (npk) =  40000
     Max angular momentum in pseudopotentials (lmaxx) =  4

     Atomic positions and unit cell read from directory:
     ./tmp/C2L_AB_PBE_vdW.save/
     Atomic positions from file used, from input discarded


     IMPORTANT: XC functional enforced from input :
     Exchange-correlation= VDW-DF2-B86R
                           (   1   4  26   0   2   0   0)
     Any further DFT definition will be discarded
     Please, verify this is what you really want


     R & G space division:  proc/nbgrp/npool/nimage =       8
     Subspace diagonalization in iterative solution of the eigenvalue problem:
     a serial algorithm will be used


     Parallelization info
     --------------------
     sticks:   dense  smooth     PW     G-vecs:    dense   smooth      PW
     Min          45      45     13                 5519     5519     941
     Max          46      46     14                 5546     5546     968
     Sum         361     361    109                44285    44285    7663

     Using Slab Decomposition



     bravais-lattice index     =            4
     lattice parameter (alat)  =       4.6645  a.u.
     unit-cell volume          =     703.1169 (a.u.)^3
     number of atoms/cell      =            4
     number of atomic types    =            1
     number of electrons       =        16.00
     number of Kohn-Sham states=           16
     kinetic-energy cutoff     =      60.0000  Ry
     charge density cutoff     =     240.0000  Ry
     Exchange-correlation= VDW-DF2-B86R
                           (   1   4  26   0   2   0   0)

     celldm(1)=   4.664470  celldm(2)=   0.000000  celldm(3)=   8.000000
     celldm(4)=   0.000000  celldm(5)=   0.000000  celldm(6)=   0.000000

     crystal axes: (cart. coord. in units of alat)
               a(1) = (   1.000000   0.000000   0.000000 )  
               a(2) = (  -0.500000   0.866025   0.000000 )  
               a(3) = (   0.000000   0.000000   8.000000 )  

     reciprocal axes: (cart. coord. in units 2 pi/alat)
               b(1) = (  1.000000  0.577350 -0.000000 )  
               b(2) = (  0.000000  1.154701  0.000000 )  
               b(3) = (  0.000000 -0.000000  0.125000 )  


     PseudoPot. # 1 for C  read from file:
     ../../../../Pseudo/PBE/C.upf
     MD5 check sum: 34a24e64c0a39f27c6c36b90a16ac686
     Pseudo is Norm-conserving + core correction, Zval =  4.0
     Generated using ONCVPSP code by D. R. Hamann
     Using radial grid of 1248 points,  4 beta functions with: 
                l(1) =   0
                l(2) =   0
                l(3) =   1
                l(4) =   1

     atomic species   valence    mass     pseudopotential
        C              4.00    12.01100     C ( 1.00)

      6 Sym. Ops. (no inversion) found


                                    s                        frac. trans.

      isym =  1     identity                                     

 cryst.   s( 1) = (     1          0          0      )
                  (     0          1          0      )
                  (     0          0          1      )

 cart.    s( 1) = (  1.0000000  0.0000000  0.0000000 )
                  (  0.0000000  1.0000000  0.0000000 )
                  (  0.0000000  0.0000000  1.0000000 )


      isym =  2     120 deg rotation - cryst. axis [0,0,1]       

 cryst.   s( 2) = (     0          1          0      )
                  (    -1         -1          0      )
                  (     0          0          1      )

 cart.    s( 2) = ( -0.5000000 -0.8660254  0.0000000 )
                  (  0.8660254 -0.5000000  0.0000000 )
                  (  0.0000000  0.0000000  1.0000000 )


      isym =  3     120 deg rotation - cryst. axis [0,0,-1]      

 cryst.   s( 3) = (    -1         -1          0      )
                  (     1          0          0      )
                  (     0          0          1      )

 cart.    s( 3) = ( -0.5000000  0.8660254  0.0000000 )
                  ( -0.8660254 -0.5000000  0.0000000 )
                  (  0.0000000  0.0000000  1.0000000 )


      isym =  4     inv. 180 deg rotation - cart. axis [1,0,0]   

 cryst.   s( 4) = (    -1          0          0      )
                  (     1          1          0      )
                  (     0          0          1      )

 cart.    s( 4) = ( -1.0000000  0.0000000  0.0000000 )
                  (  0.0000000  1.0000000  0.0000000 )
                  (  0.0000000  0.0000000  1.0000000 )


      isym =  5     inv. 180 deg rotation - cryst. axis [0,1,0]  

 cryst.   s( 5) = (     1          1          0      )
                  (     0         -1          0      )
                  (     0          0          1      )

 cart.    s( 5) = (  0.5000000  0.8660254  0.0000000 )
                  (  0.8660254 -0.5000000  0.0000000 )
                  (  0.0000000  0.0000000  1.0000000 )


      isym =  6     inv. 180 deg rotation - cryst. axis [1,1,0]  

 cryst.   s( 6) = (     0         -1          0      )
                  (    -1          0          0      )
                  (     0          0          1      )

 cart.    s( 6) = (  0.5000000 -0.8660254  0.0000000 )
                  ( -0.8660254 -0.5000000  0.0000000 )
                  (  0.0000000  0.0000000  1.0000000 )


     point group C_3v (3m)  
     there are  3 classes
     the character table:

       E     2C3   3s_v 
A_1    1.00  1.00  1.00
A_2    1.00  1.00 -1.00
E      2.00 -1.00  0.00

     the symmetry operations in each class and the name of the first element:

     E        1
          identity                                               
     2C3      2    3
          120 deg rotation - cryst. axis [0,0,1]                 
     3s_v     4    5    6
          inv. 180 deg rotation - cart. axis [1,0,0]             

   Cartesian axes

     site n.     atom                  positions (alat units)
         1           C   tau(   1) = (   0.0000000   0.0000000   0.0000000  )
         2           C   tau(   2) = (   0.0000000   0.0000000   1.3401360  )
         3           C   tau(   3) = (   0.5000005   0.2886748   0.0000000  )
         4           C   tau(   4) = (  -0.0000005   0.5773506   1.3401360  )

   Crystallographic axes

     site n.     atom                  positions (cryst. coord.)
         1           C   tau(   1) = (  0.0000000  0.0000000  0.0000000  )
         2           C   tau(   2) = (  0.0000000  0.0000000  0.1675170  )
         3           C   tau(   3) = (  0.6666670  0.3333330  0.0000000  )
         4           C   tau(   4) = (  0.3333330  0.6666670  0.1675170  )

     number of k points=    51  Marzari-Vanderbilt smearing, width (Ry)=  0.0050
                       cart. coord. in units 2pi/alat
        k(    1) = (   0.0000000   0.0000000   0.0000000), wk =   0.0392157
        k(    2) = (  -0.0158729   0.0274930   0.0000000), wk =   0.0392157
        k(    3) = (  -0.0317457   0.0549860   0.0000000), wk =   0.0392157
        k(    4) = (  -0.0476186   0.0824789   0.0000000), wk =   0.0392157
        k(    5) = (  -0.0634914   0.1099719   0.0000000), wk =   0.0392157
        k(    6) = (  -0.0793643   0.1374649   0.0000000), wk =   0.0392157
        k(    7) = (  -0.0952371   0.1649579   0.0000000), wk =   0.0392157
        k(    8) = (  -0.1111100   0.1924509   0.0000000), wk =   0.0392157
        k(    9) = (  -0.1269829   0.2199438   0.0000000), wk =   0.0392157
        k(   10) = (  -0.1428557   0.2474368   0.0000000), wk =   0.0392157
        k(   11) = (  -0.1587286   0.2749298   0.0000000), wk =   0.0392157
        k(   12) = (  -0.1746014   0.3024228   0.0000000), wk =   0.0392157
        k(   13) = (  -0.1904743   0.3299158   0.0000000), wk =   0.0392157
        k(   14) = (  -0.2063471   0.3574087   0.0000000), wk =   0.0392157
        k(   15) = (  -0.2222200   0.3849017   0.0000000), wk =   0.0392157
        k(   16) = (  -0.2380929   0.4123947   0.0000000), wk =   0.0392157
        k(   17) = (  -0.2539657   0.4398877   0.0000000), wk =   0.0392157
        k(   18) = (  -0.2698386   0.4673807   0.0000000), wk =   0.0392157
        k(   19) = (  -0.2857114   0.4948736   0.0000000), wk =   0.0392157
        k(   20) = (  -0.3015843   0.5223666   0.0000000), wk =   0.0392157
        k(   21) = (  -0.3174571   0.5498596   0.0000000), wk =   0.0392157
        k(   22) = (  -0.3333300   0.5773526   0.0000000), wk =   0.0392157
        k(   23) = (  -0.3030273   0.5773524   0.0000000), wk =   0.0392157
        k(   24) = (  -0.2727245   0.5773522   0.0000000), wk =   0.0392157
        k(   25) = (  -0.2424218   0.5773519   0.0000000), wk =   0.0392157
        k(   26) = (  -0.2121191   0.5773517   0.0000000), wk =   0.0392157
        k(   27) = (  -0.1818164   0.5773515   0.0000000), wk =   0.0392157
        k(   28) = (  -0.1515136   0.5773513   0.0000000), wk =   0.0392157
        k(   29) = (  -0.1212109   0.5773511   0.0000000), wk =   0.0392157
        k(   30) = (  -0.0909082   0.5773509   0.0000000), wk =   0.0392157
        k(   31) = (  -0.0606055   0.5773507   0.0000000), wk =   0.0392157
        k(   32) = (  -0.0303027   0.5773505   0.0000000), wk =   0.0392157
        k(   33) = (   0.0000000   0.5773503   0.0000000), wk =   0.0392157
        k(   34) = (   0.0000000   0.5452753   0.0000000), wk =   0.0392157
        k(   35) = (   0.0000000   0.5132002   0.0000000), wk =   0.0392157
        k(   36) = (   0.0000000   0.4811252   0.0000000), wk =   0.0392157
        k(   37) = (   0.0000000   0.4490502   0.0000000), wk =   0.0392157
        k(   38) = (   0.0000000   0.4169752   0.0000000), wk =   0.0392157
        k(   39) = (   0.0000000   0.3849002   0.0000000), wk =   0.0392157
        k(   40) = (   0.0000000   0.3528252   0.0000000), wk =   0.0392157
        k(   41) = (   0.0000000   0.3207501   0.0000000), wk =   0.0392157
        k(   42) = (   0.0000000   0.2886751   0.0000000), wk =   0.0392157
        k(   43) = (   0.0000000   0.2566001   0.0000000), wk =   0.0392157
        k(   44) = (   0.0000000   0.2245251   0.0000000), wk =   0.0392157
        k(   45) = (   0.0000000   0.1924501   0.0000000), wk =   0.0392157
        k(   46) = (   0.0000000   0.1603751   0.0000000), wk =   0.0392157
        k(   47) = (   0.0000000   0.1283001   0.0000000), wk =   0.0392157
        k(   48) = (   0.0000000   0.0962250   0.0000000), wk =   0.0392157
        k(   49) = (   0.0000000   0.0641500   0.0000000), wk =   0.0392157
        k(   50) = (   0.0000000   0.0320750   0.0000000), wk =   0.0392157
        k(   51) = (   0.0000000   0.0000000   0.0000000), wk =   0.0392157

                       cryst. coord.
        k(    1) = (   0.0000000   0.0000000   0.0000000), wk =   0.0392157
        k(    2) = (  -0.0158729   0.0317460   0.0000000), wk =   0.0392157
        k(    3) = (  -0.0317457   0.0634921   0.0000000), wk =   0.0392157
        k(    4) = (  -0.0476186   0.0952381   0.0000000), wk =   0.0392157
        k(    5) = (  -0.0634914   0.1269842   0.0000000), wk =   0.0392157
        k(    6) = (  -0.0793643   0.1587302   0.0000000), wk =   0.0392157
        k(    7) = (  -0.0952371   0.1904763   0.0000000), wk =   0.0392157
        k(    8) = (  -0.1111100   0.2222223   0.0000000), wk =   0.0392157
        k(    9) = (  -0.1269829   0.2539684   0.0000000), wk =   0.0392157
        k(   10) = (  -0.1428557   0.2857144   0.0000000), wk =   0.0392157
        k(   11) = (  -0.1587286   0.3174605   0.0000000), wk =   0.0392157
        k(   12) = (  -0.1746014   0.3492065   0.0000000), wk =   0.0392157
        k(   13) = (  -0.1904743   0.3809526   0.0000000), wk =   0.0392157
        k(   14) = (  -0.2063471   0.4126986   0.0000000), wk =   0.0392157
        k(   15) = (  -0.2222200   0.4444447   0.0000000), wk =   0.0392157
        k(   16) = (  -0.2380929   0.4761907   0.0000000), wk =   0.0392157
        k(   17) = (  -0.2539657   0.5079368   0.0000000), wk =   0.0392157
        k(   18) = (  -0.2698386   0.5396828   0.0000000), wk =   0.0392157
        k(   19) = (  -0.2857114   0.5714289   0.0000000), wk =   0.0392157
        k(   20) = (  -0.3015843   0.6031749   0.0000000), wk =   0.0392157
        k(   21) = (  -0.3174571   0.6349210   0.0000000), wk =   0.0392157
        k(   22) = (  -0.3333300   0.6666670   0.0000000), wk =   0.0392157
        k(   23) = (  -0.3030273   0.6515155   0.0000000), wk =   0.0392157
        k(   24) = (  -0.2727245   0.6363639   0.0000000), wk =   0.0392157
        k(   25) = (  -0.2424218   0.6212124   0.0000000), wk =   0.0392157
        k(   26) = (  -0.2121191   0.6060608   0.0000000), wk =   0.0392157
        k(   27) = (  -0.1818164   0.5909093   0.0000000), wk =   0.0392157
        k(   28) = (  -0.1515136   0.5757577   0.0000000), wk =   0.0392157
        k(   29) = (  -0.1212109   0.5606062   0.0000000), wk =   0.0392157
        k(   30) = (  -0.0909082   0.5454546   0.0000000), wk =   0.0392157
        k(   31) = (  -0.0606055   0.5303031   0.0000000), wk =   0.0392157
        k(   32) = (  -0.0303027   0.5151515   0.0000000), wk =   0.0392157
        k(   33) = (   0.0000000   0.5000000   0.0000000), wk =   0.0392157
        k(   34) = (   0.0000000   0.4722222   0.0000000), wk =   0.0392157
        k(   35) = (   0.0000000   0.4444444   0.0000000), wk =   0.0392157
        k(   36) = (   0.0000000   0.4166667   0.0000000), wk =   0.0392157
        k(   37) = (   0.0000000   0.3888889   0.0000000), wk =   0.0392157
        k(   38) = (   0.0000000   0.3611111   0.0000000), wk =   0.0392157
        k(   39) = (   0.0000000   0.3333333   0.0000000), wk =   0.0392157
        k(   40) = (   0.0000000   0.3055556   0.0000000), wk =   0.0392157
        k(   41) = (   0.0000000   0.2777778   0.0000000), wk =   0.0392157
        k(   42) = (   0.0000000   0.2500000   0.0000000), wk =   0.0392157
        k(   43) = (   0.0000000   0.2222222   0.0000000), wk =   0.0392157
        k(   44) = (   0.0000000   0.1944444   0.0000000), wk =   0.0392157
        k(   45) = (   0.0000000   0.1666667   0.0000000), wk =   0.0392157
        k(   46) = (   0.0000000   0.1388889   0.0000000), wk =   0.0392157
        k(   47) = (   0.0000000   0.1111111   0.0000000), wk =   0.0392157
        k(   48) = (   0.0000000   0.0833333   0.0000000), wk =   0.0392157
        k(   49) = (   0.0000000   0.0555556   0.0000000), wk =   0.0392157
        k(   50) = (   0.0000000   0.0277778   0.0000000), wk =   0.0392157
        k(   51) = (   0.0000000   0.0000000   0.0000000), wk =   0.0392157

     Dense  grid:    44285 G-vectors     FFT dimensions: (  24,  24, 192)

     Dynamical RAM for                 wfc:       0.17 MB

     Dynamical RAM for     wfc (w. buffer):       0.17 MB

     Dynamical RAM for           str. fact:       0.08 MB

     Dynamical RAM for           local pot:       0.00 MB

     Dynamical RAM for          nlocal pot:       0.34 MB

     Dynamical RAM for                qrad:       0.36 MB

     Dynamical RAM for          rho,v,vnew:       0.57 MB

     Dynamical RAM for           G-vectors:       0.36 MB

     Dynamical RAM for          h,s,v(r/c):       0.05 MB

     Dynamical RAM for          <psi|beta>:       0.01 MB

     Dynamical RAM for                 psi:       0.34 MB

     Dynamical RAM for                hpsi:       0.34 MB

     Dynamical RAM for      wfcinit/wfcrot:       0.34 MB

     Estimated static dynamical RAM per process >       2.57 MB

     Estimated max dynamical RAM per process >       3.30 MB

     Estimated total dynamical RAM >      26.38 MB

     The potential is recalculated from file :
     ./tmp/C2L_AB_PBE_vdW.save/charge-density



     %%%%%%%%%%%%%%%%%%%%%%%%%%%%%%%%%%%%%%%%%%%%%%%%%%%%%%%%%%%%%%%%%%%%%%%%
     %                                                                      %
     % You are using vdW-DF, which was implemented by the Thonhauser group. %
     % Please cite the following two papers that made this development      %
     % possible and the two reviews that describe the various versions:     %
     %                                                                      %
     %   T. Thonhauser et al., PRL 115, 136402 (2015).                      %
     %   T. Thonhauser et al., PRB 76, 125112 (2007).                       %
     %   K. Berland et al., Rep. Prog. Phys. 78, 066501 (2015).             %
     %   D.C. Langreth et al., J. Phys.: Condens. Matter 21, 084203 (2009). %
     %                                                                      %
     % If you are calculating stress with vdW-DF, please also cite:         %
     %                                                                      %
     %   R. Sabatini et al., J. Phys.: Condens. Matter 24, 424209 (2012).   %
     %                                                                      %
     %%%%%%%%%%%%%%%%%%%%%%%%%%%%%%%%%%%%%%%%%%%%%%%%%%%%%%%%%%%%%%%%%%%%%%%%

     %%%%%%%%%%%%%%%%%%%%%%%%%%%%%%%%%%%%%%%%%%%%%%%%%%%%%%%%%%%%%%%%%%%%%%%%
     %                                                                      %
     %  vdW-DF NEWS:                                                        %
     %                                                                      %
     %  * vdW-DF3 is now available. DOI: 10.1021/acs.jctc.0c00471           %
     %    use with input_dft = 'vdW-DF3-opt1' or 'vdW-DF3-opt2'             %
     %                                                                      %
     %  * Unscreened and range-separated hybrid vdW-DF-cx functionals       %
     %    DOI: 10.1063/1.4986522 and 10.1088/1361-648X/ac2ad2               %
     %    use with input_dft = 'vdW-DF-cx0'    and 'vdW-DF-ahcx'            %
     %  * Unscreened and range-separated hybrid vdW-DF2-b86r functionals    %
     %    DOI: 10.1063/1.4986522 and DOI: 10.1103/PhysRevX.12.041003        %
     %    use with input_dft = 'vdW-DF2-br0' and 'vdW-DF2-ahbr'             %
     %                                                                      %
     %%%%%%%%%%%%%%%%%%%%%%%%%%%%%%%%%%%%%%%%%%%%%%%%%%%%%%%%%%%%%%%%%%%%%%%%


     Carrying out vdW-DF run using the following parameters:
     Nqs    =  20  Npoints =  1024  r_max =  100.000
     q_mesh =  0.00001000  0.04494208  0.09755937  0.15916263
               0.23128650  0.31572767  0.41458969  0.53033537
               0.66584808  0.82450364  1.01025438  1.22772762
               1.48234092  1.78043706  2.12944203  2.53805004
               3.01644009  3.57652955  4.23227104  5.00000000


     -----------------------------------------------
     Non-local corr. energy    =       0.19408252 Ry
     -----------------------------------------------

     Starting wfcs are   16 randomized atomic wfcs

     Band Structure Calculation
     Davidson diagonalization with overlap

     Computing kpt #:     1  of    51
     total cpu time spent up to now is        8.6 secs

     Computing kpt #:     2  of    51
     c_bands:  2 eigenvalues not converged
     total cpu time spent up to now is        9.1 secs

     Computing kpt #:     3  of    51
     total cpu time spent up to now is        9.4 secs

     Computing kpt #:     4  of    51
     total cpu time spent up to now is        9.7 secs

     Computing kpt #:     5  of    51
     total cpu time spent up to now is       10.0 secs

     Computing kpt #:     6  of    51
     total cpu time spent up to now is       10.3 secs

     Computing kpt #:     7  of    51
     total cpu time spent up to now is       10.7 secs

     Computing kpt #:     8  of    51
     total cpu time spent up to now is       11.2 secs

     Computing kpt #:     9  of    51
     total cpu time spent up to now is       11.6 secs

     Computing kpt #:    10  of    51
     total cpu time spent up to now is       12.0 secs

     Computing kpt #:    11  of    51
     total cpu time spent up to now is       12.3 secs

     Computing kpt #:    12  of    51
     total cpu time spent up to now is       12.6 secs

     Computing kpt #:    13  of    51
     total cpu time spent up to now is       12.9 secs

     Computing kpt #:    14  of    51
     total cpu time spent up to now is       13.1 secs

     Computing kpt #:    15  of    51
     total cpu time spent up to now is       13.4 secs

     Computing kpt #:    16  of    51
     total cpu time spent up to now is       13.6 secs

     Computing kpt #:    17  of    51
     total cpu time spent up to now is       13.9 secs

     Computing kpt #:    18  of    51
     total cpu time spent up to now is       14.2 secs

     Computing kpt #:    19  of    51
     total cpu time spent up to now is       14.5 secs

     Computing kpt #:    20  of    51
     total cpu time spent up to now is       14.7 secs

     Computing kpt #:    21  of    51
     total cpu time spent up to now is       14.9 secs

     Computing kpt #:    22  of    51
     total cpu time spent up to now is       15.1 secs

     Computing kpt #:    23  of    51
     total cpu time spent up to now is       15.3 secs

     Computing kpt #:    24  of    51
     total cpu time spent up to now is       15.5 secs

     Computing kpt #:    25  of    51
     total cpu time spent up to now is       15.7 secs

     Computing kpt #:    26  of    51
     total cpu time spent up to now is       15.9 secs

     Computing kpt #:    27  of    51
     total cpu time spent up to now is       16.0 secs

     Computing kpt #:    28  of    51
     total cpu time spent up to now is       16.2 secs

     Computing kpt #:    29  of    51
     total cpu time spent up to now is       16.4 secs

     Computing kpt #:    30  of    51
     total cpu time spent up to now is       16.6 secs

     Computing kpt #:    31  of    51
     total cpu time spent up to now is       16.8 secs

     Computing kpt #:    32  of    51
     total cpu time spent up to now is       17.0 secs

     Computing kpt #:    33  of    51
     total cpu time spent up to now is       17.1 secs

     Computing kpt #:    34  of    51
     total cpu time spent up to now is       17.4 secs

     Computing kpt #:    35  of    51
     total cpu time spent up to now is       17.6 secs

     Computing kpt #:    36  of    51
     total cpu time spent up to now is       17.8 secs

     Computing kpt #:    37  of    51
     total cpu time spent up to now is       18.1 secs

     Computing kpt #:    38  of    51
     total cpu time spent up to now is       18.3 secs

     Computing kpt #:    39  of    51
     total cpu time spent up to now is       18.6 secs

     Computing kpt #:    40  of    51
     total cpu time spent up to now is       18.8 secs

     Computing kpt #:    41  of    51
     total cpu time spent up to now is       19.0 secs

     Computing kpt #:    42  of    51
     total cpu time spent up to now is       19.3 secs

     Computing kpt #:    43  of    51
     total cpu time spent up to now is       19.6 secs

     Computing kpt #:    44  of    51
     total cpu time spent up to now is       20.0 secs

     Computing kpt #:    45  of    51
     total cpu time spent up to now is       20.3 secs

     Computing kpt #:    46  of    51
     total cpu time spent up to now is       20.6 secs

     Computing kpt #:    47  of    51
     total cpu time spent up to now is       20.8 secs

     Computing kpt #:    48  of    51
     total cpu time spent up to now is       21.1 secs

     Computing kpt #:    49  of    51
     total cpu time spent up to now is       21.4 secs

     Computing kpt #:    50  of    51
     c_bands:  1 eigenvalues not converged
     total cpu time spent up to now is       21.8 secs

     Computing kpt #:    51  of    51
     total cpu time spent up to now is       22.2 secs

     ethr =  6.25E-09,  avg # of iterations = 56.8

     total cpu time spent up to now is       22.2 secs

     End of band structure calculation

          k = 0.0000 0.0000 0.0000 (  5505 PWs)   bands (ev):

   -20.1558 -19.9789  -8.7243  -7.6482  -3.6515  -3.6514  -3.6117  -3.6117
     2.5617   2.9847   4.0534   5.1909   5.6456   7.4830   7.8156   7.8157

          k =-0.0159 0.0275 0.0000 (  5497 PWs)   bands (ev):

   -20.1377 -19.9611  -8.7023  -7.6272  -3.7256  -3.6914  -3.6851  -3.6510
     2.5857   3.0088   4.0780   5.2154   5.6685   7.5044   7.8265   7.8899

          k =-0.0317 0.0550 0.0000 (  5507 PWs)   bands (ev):

   -20.0841 -19.9080  -8.6372  -7.5643  -3.9407  -3.9007  -3.8073  -3.7676
     2.6576   3.0813   4.1519   5.2887   5.7370   7.5682   7.8577   7.9182

          k =-0.0476 0.0825 0.0000 (  5509 PWs)   bands (ev):

   -19.9947 -19.8195  -8.5286  -7.4593  -4.2756  -4.2348  -3.9981  -3.9582
     2.7774   3.2021   4.2751   5.4109   5.8512   7.6741   7.9135   7.9905

          k =-0.0635 0.1100 0.0000 (  5511 PWs)   bands (ev):

   -19.8697 -19.6958  -8.3774  -7.3133  -4.7051  -4.6636  -4.2563  -4.2162
     2.9451   3.3710   4.4476   5.5820   6.0110   7.8205   7.9979   8.0974

          k =-0.0794 0.1375 0.0000 (  5509 PWs)   bands (ev):

   -19.7093 -19.5369  -8.1835  -7.1261  -5.2037  -5.1611  -4.5755  -4.5350
     3.1608   3.5881   4.6693   5.8018   6.2163   8.0052   8.1158   8.2428

          k =-0.0952 0.1650 0.0000 (  5517 PWs)   bands (ev):

   -19.5135 -19.3432  -7.9477  -6.8989  -5.7490  -5.7054  -4.9465  -4.9056
     3.4243   3.8530   4.9403   6.0704   6.4668   8.2213   8.2658   8.4194

          k =-0.1111 0.1925 0.0000 (  5521 PWs)   bands (ev):

   -19.2828 -19.1148  -7.6705  -6.6326  -6.3222  -6.2774  -5.3602  -5.3187
     3.7356   4.1657   5.2605   6.3875   6.7620   8.0787   8.2655   8.4803

          k =-0.1270 0.2199 0.0000 (  5502 PWs)   bands (ev):

   -19.0174 -18.8521  -7.3527  -6.9097  -6.8639  -6.3271  -5.8073  -5.7651
     4.0945   4.5256   5.6299   6.7528   7.1008   7.4191   7.6497   8.7077

          k =-0.1429 0.2474 0.0000 (  5512 PWs)   bands (ev):

   -18.7179 -18.5560  -7.5010  -7.4537  -6.9957  -6.2794  -6.2363  -5.9856
     4.5007   4.9322   6.0484   6.7251   6.9733   7.1684   7.4813   8.9750

          k =-0.1587 0.2749 0.0000 (  5508 PWs)   bands (ev):

   -18.3847 -18.2261  -8.0876  -8.0390  -6.7677  -6.7237  -6.6006  -5.6082
     4.9537   5.3845   6.0144   6.2814   6.5158   7.6280   7.9010   9.2823

          k =-0.1746 0.3024 0.0000 (  5510 PWs)   bands (ev):

   -18.0186 -17.8637  -8.6636  -8.6136  -7.2647  -7.2195  -6.1695  -5.1982
     5.2967   5.4554   5.5788   5.8856   7.0317   8.1355   8.3548   9.6242

          k =-0.1905 0.3299 0.0000 (  5516 PWs)   bands (ev):

   -17.6202 -17.4694  -9.2248  -9.1732  -7.7636  -7.7173  -5.7039  -4.7577
     4.5869   4.8843   5.9994   6.4242   7.5958   8.6881   8.8344   9.9955

          k =-0.2063 0.3574 0.0000 (  5518 PWs)   bands (ev):

   -17.1910 -17.0444  -9.7670  -9.7136  -8.2577  -8.2104  -5.2069  -4.2908
     3.8874   4.1985   6.5897   7.0046   8.2068   9.2823   9.3234  10.3895

          k =-0.2222 0.3849 0.0000 (  5514 PWs)   bands (ev):

   -16.7324 -16.5903 -10.2879 -10.2329  -8.7416  -8.6931  -4.6819  -3.8015
     3.2052   3.5287   7.2235   7.6193   8.8621   9.7895   9.9100  10.7964

          k =-0.2381 0.4124 0.0000 (  5498 PWs)   bands (ev):

   -16.2462 -16.1091 -10.7851 -10.7284  -9.2091  -9.1599  -4.1331  -3.2946
     2.5452   2.8794   7.8985   8.2568   9.5495  10.1789  10.5448  11.2038

          k =-0.2540 0.4399 0.0000 (  5490 PWs)   bands (ev):

   -15.7359 -15.6043 -11.2572 -11.1989  -9.6557  -9.6057  -3.5672  -2.7781
     1.9122   2.2564   8.6108   8.8899  10.1499  10.5287  11.0780  11.6255

          k =-0.2698 0.4674 0.0000 (  5482 PWs)   bands (ev):

   -15.2058 -15.0805 -11.7028 -11.6429 -10.0745 -10.0242  -2.9900  -2.2602
     1.3095   1.6633   9.3529   9.4506  10.2786  11.2061  11.3399  11.9065

          k =-0.2857 0.4949 0.0000 (  5482 PWs)   bands (ev):

   -14.6637 -14.5464 -12.1215 -12.0598 -10.4562 -10.4063  -2.4111  -1.7515
     0.7400   1.1022   9.7970  10.1155  10.1916  11.5939  11.9648  12.1103

          k =-0.3016 0.5224 0.0000 (  5472 PWs)   bands (ev):

   -14.1245 -14.0176 -12.5116 -12.4482 -10.7852 -10.7375  -1.8432  -1.2659
     0.2082   0.5788   9.8868  10.0528  10.8693  12.0795  12.0943  12.3507

          k =-0.3175 0.5499 0.0000 (  5484 PWs)   bands (ev):

   -13.6182 -13.5268 -12.8731 -12.8081 -11.0310 -10.9883  -1.3063  -0.8284
    -0.2765   0.1048   9.8668   9.9346  11.5377  12.0934  12.2899  12.7003

          k =-0.3333 0.5774 0.0000 (  5484 PWs)   bands (ev):

   -13.2326 -13.1904 -13.1526 -13.1163 -11.1317 -11.0944  -0.9459  -0.5983
    -0.5625  -0.1891   9.8561   9.8797  11.8498  12.1622  12.1657  12.9582

          k =-0.3030 0.5774 0.0000 (  5484 PWs)   bands (ev):

   -13.4984 -13.4307 -12.9876 -12.9465 -11.0191 -10.9716  -1.2170  -0.8456
    -0.2661   0.0168   9.8739   9.9342  11.7368  11.9684  12.2020  12.8115

          k =-0.2727 0.5774 0.0000 (  5480 PWs)   bands (ev):

   -13.7608 -13.6918 -12.9720 -12.9331 -10.6876 -10.6238  -1.5711  -1.1914
     0.1129   0.2800   9.9570  10.0728  11.5294  11.7334  11.8793  12.4452

          k =-0.2424 0.5774 0.0000 (  5492 PWs)   bands (ev):

   -13.9966 -13.9264 -13.0724 -13.0258 -10.2128 -10.1415  -1.8983  -1.5132
     0.4384   0.4991  10.0953  10.2746  11.1776  11.4184  11.4755  11.7656

          k =-0.2121 0.5774 0.0000 (  5516 PWs)   bands (ev):

   -14.2048 -14.1337 -13.2135 -13.1613  -9.6737  -9.6021  -2.1909  -1.8018
     0.6515   0.7145  10.1519  10.4444  10.6262  10.9578  11.1544  11.2763

          k =-0.1818 0.5774 0.0000 (  5530 PWs)   bands (ev):

   -14.3858 -14.3136 -13.3597 -13.3040  -9.1180  -9.0492  -2.4462  -2.0542
     0.7696   0.9176   9.5916   9.9298  10.6106  10.8758  10.9466  11.0498

          k =-0.1515 0.5774 0.0000 (  5516 PWs)   bands (ev):

   -14.5387 -14.4658 -13.4947 -13.4368  -8.5778  -8.5132  -2.6623  -2.2680
     0.8467   1.0699   8.8597   9.1523  10.7038  10.7927  10.8476  11.0230

          k =-0.1212 0.5774 0.0000 (  5512 PWs)   bands (ev):

   -14.6641 -14.5903 -13.6109 -13.5514  -8.0800  -8.0198  -2.8402  -2.4439
     0.8940   1.1773   8.1746   8.4382  10.5891  10.6834  10.8248  11.0410

          k =-0.0909 0.5774 0.0000 (  5524 PWs)   bands (ev):

   -14.7618 -14.6874 -13.7041 -13.6436  -7.6515  -7.5959  -2.9793  -2.5817
     0.9212   1.2489   7.5887   7.8350  10.4686  10.5546  10.8356  10.9888

          k =-0.0606 0.5774 0.0000 (  5538 PWs)   bands (ev):

   -14.8316 -14.7567 -13.7723 -13.7111  -7.3187  -7.2665  -3.0787  -2.6799
     0.9350   1.2940   7.1383   7.3751  10.3798  10.4611  10.8225  10.9273

          k =-0.0303 0.5774 0.0000 (  5530 PWs)   bands (ev):

   -14.8733 -14.7982 -13.8135 -13.7518  -7.1066  -7.0569  -3.1380  -2.7386
     0.9419   1.3186   6.8540   7.0862  10.3258  10.4046  10.8067  10.8841

          k = 0.0000 0.5774 0.0000 (  5540 PWs)   bands (ev):

   -14.8874 -14.8121 -13.8274 -13.7655  -7.0338  -6.9848  -3.1581  -2.7584
     0.9433   1.3263   6.7566   6.9874  10.3077  10.3856  10.8002  10.8688

          k = 0.0000 0.5453 0.0000 (  5534 PWs)   bands (ev):

   -15.1705 -15.0595 -13.5515 -13.4561  -7.0152  -6.9665  -3.3159  -2.8226
     1.0554   1.4929   6.7665   6.9962   9.5394  10.0207  11.1868  11.2686

          k = 0.0000 0.5132 0.0000 (  5542 PWs)   bands (ev):

   -15.6606 -15.5331 -12.9928 -12.8893  -6.9610  -6.9122  -3.6900  -3.0451
     1.3971   1.9156   6.7958   7.0221   8.7668   9.2436  10.4663  11.4051

          k = 0.0000 0.4811 0.0000 (  5530 PWs)   bands (ev):

   -16.1687 -16.0336 -12.3528 -12.2518  -6.8710  -6.8221  -4.1594  -3.3992
     1.9274   2.4878   6.8433   7.0626   8.0368   8.5052   9.6994  10.7824

          k = 0.0000 0.4491 0.0000 (  5528 PWs)   bands (ev):

   -16.6616 -16.5206 -11.6749 -11.5782  -6.7459  -6.6971  -4.6628  -3.8242
     2.5805   3.1460   6.9010   7.0940   7.3783   7.8119   8.9780  10.0749

          k = 0.0000 0.4170 0.0000 (  5536 PWs)   bands (ev):

   -17.1293 -16.9830 -10.9719 -10.8805  -6.5875  -6.5391  -5.1687  -4.2757
     3.3074   3.8538   6.6504   6.9763   7.1795   7.2357   8.3051   9.4083

          k = 0.0000 0.3849 0.0000 (  5544 PWs)   bands (ev):

   -17.5673 -17.4166 -10.2511 -10.1654  -6.3973  -6.3491  -5.6598  -4.7274
     4.0748   4.5883   6.0647   6.5359   7.1175   7.2941   7.6875   8.7898

          k = 0.0000 0.3528 0.0000 (  5532 PWs)   bands (ev):

   -17.9740 -17.8192  -9.5186  -9.4384  -6.1773  -6.1295  -6.1258  -5.1629
     4.8510   5.3245   5.5193   6.0015   7.0755   7.2296   7.4075   8.2214

          k = 0.0000 0.3208 0.0000 (  5526 PWs)   bands (ev):

   -18.3478 -18.1895  -8.7804  -8.7060  -6.5614  -5.9309  -5.8838  -5.5740
     4.9983   5.3473   5.7779   6.0924   6.5650   7.3311   7.4751   7.7118

          k = 0.0000 0.2887 0.0000 (  5500 PWs)   bands (ev):

   -18.6877 -18.5260  -8.0446  -7.9750  -6.9621  -5.9545  -5.6624  -5.6158
     4.5387   4.9616   6.0875   6.4851   6.8027   7.2057   7.4183   7.5220

          k = 0.0000 0.2566 0.0000 (  5514 PWs)   bands (ev):

   -18.9937 -18.8287  -7.3308  -7.3137  -7.2546  -6.3018  -5.3771  -5.3311
     4.1251   4.5544   5.6618   6.7721   7.0677   7.2608   7.5169   7.6672

          k = 0.0000 0.2245 0.0000 (  5514 PWs)   bands (ev):

   -19.2646 -19.0969  -7.6494  -6.6171  -6.6095  -6.5544  -5.0810  -5.0357
     3.7594   4.1891   5.2852   6.4099   6.7700   7.6883   7.8082   8.0153

          k = 0.0000 0.1925 0.0000 (  5532 PWs)   bands (ev):

   -19.5002 -19.3301  -7.9321  -6.8842  -5.9434  -5.8893  -4.7829  -4.7385
     3.4419   3.8707   4.9586   6.0879   6.4787   7.7792   7.8890   8.3073

          k = 0.0000 0.1604 0.0000 (  5516 PWs)   bands (ev):

   -19.7000 -19.5277  -8.1725  -7.1157  -5.3217  -5.2722  -4.4928  -4.4494
     3.1731   3.6005   4.6820   5.8143   6.2264   7.8378   7.9059   8.1010

          k = 0.0000 0.1283 0.0000 (  5520 PWs)   bands (ev):

   -19.8638 -19.6899  -8.3704  -7.3064  -4.7677  -4.7220  -4.2240  -4.1816
     2.9531   3.3790   4.4557   5.5900   6.0181   7.8072   7.8756   7.9936

          k = 0.0000 0.0962 0.0000 (  5518 PWs)   bands (ev):

   -19.9914 -19.8162  -8.5247  -7.4556  -4.3035  -4.2608  -3.9906  -3.9491
     2.7818   3.2066   4.2797   5.4155   5.8553   7.6758   7.8693   7.9508

          k = 0.0000 0.0642 0.0000 (  5520 PWs)   bands (ev):

   -20.0826 -19.9065  -8.6355  -7.5624  -3.9504  -3.9093  -3.8084  -3.7679
     2.6596   3.0833   4.1540   5.2907   5.7389   7.5698   7.8484   7.9101

          k = 0.0000 0.0321 0.0000 (  5498 PWs)   bands (ev):

   -20.1374 -19.9608  -8.7020  -7.6268  -3.7273  -3.6914  -3.6872  -3.6515
     2.5862   3.0093   4.0785   5.2159   5.6690   7.5048   7.8260   7.8774

          k = 0.0000 0.0000 0.0000 (  5505 PWs)   bands (ev):

   -20.1558 -19.9789  -8.7243  -7.6482  -3.6515  -3.6514  -3.6117  -3.6117
     2.5617   2.9847   4.0534   5.1909   5.6456   7.4830   7.8156   7.8157

     Writing all to output data dir ./tmp/C2L_AB_PBE_vdW.save/

     init_run     :      8.32s CPU      8.33s WALL (       1 calls)
     electrons    :     13.88s CPU     13.83s WALL (       1 calls)

     Called by init_run:
     wfcinit      :      0.00s CPU      0.00s WALL (       1 calls)
     wfcinit:atom :      0.01s CPU      0.01s WALL (      51 calls)
     wfcinit:wfcr :      0.35s CPU      0.35s WALL (      51 calls)
     potinit      :      7.99s CPU      8.00s WALL (       1 calls)
     hinit0       :      0.30s CPU      0.30s WALL (       1 calls)

     Called by electrons:
     c_bands      :     13.88s CPU     13.83s WALL (       1 calls)
     v_of_rho     :      7.99s CPU      8.00s WALL (       1 calls)
     v_h          :      0.00s CPU      0.00s WALL (       1 calls)
     v_xc         :      7.99s CPU      8.00s WALL (       1 calls)
     vdW_kernel   :      7.95s CPU      7.95s WALL (       1 calls)

     Called by c_bands:
     init_us_2    :      0.01s CPU      0.01s WALL (      51 calls)
     init_us_2:cp :      0.01s CPU      0.01s WALL (      51 calls)
     cegterg      :     13.47s CPU     13.40s WALL (     168 calls)

     Called by sum_band:

     Called by *egterg:
     cdiaghg      :      0.99s CPU      1.00s WALL (    2947 calls)
     cegterg:over :      1.05s CPU      1.08s WALL (    2896 calls)
     cegterg:upda :      0.95s CPU      0.90s WALL (    2896 calls)
     cegterg:last :      1.26s CPU      0.92s WALL (    1270 calls)
     h_psi        :      9.04s CPU      9.21s WALL (    3115 calls)
     g_psi        :      0.09s CPU      0.14s WALL (    2896 calls)

     Called by h_psi:
     h_psi:calbec :      0.68s CPU      0.70s WALL (    3115 calls)
     vloc_psi     :      7.49s CPU      7.73s WALL (    3115 calls)
     add_vuspsi   :      0.80s CPU      0.69s WALL (    3115 calls)

     General routines
     calbec       :      0.67s CPU      0.69s WALL (    3115 calls)
     fft          :      0.28s CPU      0.28s WALL (      61 calls)
     fftw         :      6.71s CPU      6.90s WALL (   42656 calls)
     davcio       :      0.00s CPU      0.01s WALL (     102 calls)

     Parallel routines

     PWSCF        :     22.36s CPU     22.40s WALL


   This run was terminated on:  16:46: 6   4Apr2024            

=------------------------------------------------------------------------------=
   JOB DONE.
=------------------------------------------------------------------------------=
