
     Program PWSCF v.6.7MaX starts on 15Feb2024 at 17:45:39 

     This program is part of the open-source Quantum ESPRESSO suite
     for quantum simulation of materials; please cite
         "P. Giannozzi et al., J. Phys.:Condens. Matter 21 395502 (2009);
         "P. Giannozzi et al., J. Phys.:Condens. Matter 29 465901 (2017);
          URL http://www.quantum-espresso.org", 
     in publications or presentations arising from this work. More details at
     http://www.quantum-espresso.org/quote

     Parallel version (MPI), running on     4 processors

     MPI processes distributed on     1 nodes
     K-points division:     npool     =       4
     Waiting for input...
     Reading input from standard input

     Current dimensions of program PWSCF are:
     Max number of different atomic species (ntypx) = 10
     Max number of k-points (npk) =  40000
     Max angular momentum in pseudopotentials (lmaxx) =  3
     Message from routine read_pp_mesh:
     mesh size missing, using the one in header

     IMPORTANT: XC functional enforced from input :
     Exchange-correlation= VDW-DF2-B86R
                           (   1   4  26   0   2   0   0)
     Any further DFT definition will be discarded
     Please, verify this is what you really want


     Subspace diagonalization in iterative solution of the eigenvalue problem:
     a serial algorithm will be used


     G-vector sticks info
     --------------------
     sticks:   dense  smooth     PW     G-vecs:    dense   smooth      PW
     Sum         361     361    109                32201    32201    5621



     bravais-lattice index     =            4
     lattice parameter (alat)  =       4.6203  a.u.
     unit-cell volume          =     512.4983 (a.u.)^3
     number of atoms/cell      =            4
     number of atomic types    =            1
     number of electrons       =        16.00
     number of Kohn-Sham states=            8
     kinetic-energy cutoff     =      60.0000  Ry
     charge density cutoff     =     240.0000  Ry
     scf convergence threshold =      1.0E-06
     mixing beta               =       0.7000
     number of iterations used =            8  plain     mixing
     energy convergence thresh.=      1.0E-04
     force convergence thresh. =      1.0E-03
     press convergence thresh. =      5.0E-01
     Exchange-correlation= VDW-DF2-B86R
                           (   1   4  26   0   2   0   0)
     nstep                     =          200


     celldm(1)=   4.620300  celldm(2)=   0.000000  celldm(3)=   6.000000
     celldm(4)=   0.000000  celldm(5)=   0.000000  celldm(6)=   0.000000

     crystal axes: (cart. coord. in units of alat)
               a(1) = (   1.000000   0.000000   0.000000 )  
               a(2) = (  -0.500000   0.866025   0.000000 )  
               a(3) = (   0.000000   0.000000   6.000000 )  

     reciprocal axes: (cart. coord. in units 2 pi/alat)
               b(1) = (  1.000000  0.577350 -0.000000 )  
               b(2) = (  0.000000  1.154701  0.000000 )  
               b(3) = (  0.000000 -0.000000  0.166667 )  


     PseudoPot. # 1 for C  read from file:
     ../../../Pseudo/PBE/C.upf
     MD5 check sum: 34a24e64c0a39f27c6c36b90a16ac686
     Pseudo is Norm-conserving + core correction, Zval =  4.0
     Generated using ONCVPSP code by D. R. Hamann
     Using radial grid of 1248 points,  4 beta functions with: 
                l(1) =   0
                l(2) =   0
                l(3) =   1
                l(4) =   1

     atomic species   valence    mass     pseudopotential
        C              4.00    12.01100     C ( 1.00)

     24 Sym. Ops., with inversion, found (18 have fractional translation)


                                    s                        frac. trans.

      isym =  1     identity                                     

 cryst.   s( 1) = (     1          0          0      )
                  (     0          1          0      )
                  (     0          0          1      )

 cart.    s( 1) = (  1.0000000  0.0000000  0.0000000 )
                  (  0.0000000  1.0000000  0.0000000 )
                  (  0.0000000  0.0000000  1.0000000 )


      isym =  2     180 deg rotation - cart. axis [0,0,1]        

 cryst.   s( 2) = (    -1          0          0      )    f =( -0.3333333 )
                  (     0         -1          0      )       (  0.3333333 )
                  (     0          0          1      )       (  0.0000000 )

 cart.    s( 2) = ( -1.0000000  0.0000000  0.0000000 )    f =( -0.5000000 )
                  (  0.0000000 -1.0000000  0.0000000 )       (  0.2886751 )
                  (  0.0000000  0.0000000  1.0000000 )       (  0.0000000 )


      isym =  3     180 deg rotation - cart. axis [0,1,0]        

 cryst.   s( 3) = (    -1          0          0      )    f =(  0.0000000 )
                  (     1          1          0      )       (  0.0000000 )
                  (     0          0         -1      )       ( -0.2500000 )

 cart.    s( 3) = ( -1.0000000  0.0000000  0.0000000 )    f =(  0.0000000 )
                  (  0.0000000  1.0000000  0.0000000 )       (  0.0000000 )
                  (  0.0000000  0.0000000 -1.0000000 )       ( -1.5000000 )


      isym =  4     180 deg rotation - cart. axis [1,0,0]        

 cryst.   s( 4) = (     1          0          0      )    f =( -0.3333333 )
                  (    -1         -1          0      )       (  0.3333333 )
                  (     0          0         -1      )       ( -0.2500000 )

 cart.    s( 4) = (  1.0000000  0.0000000  0.0000000 )    f =( -0.5000000 )
                  (  0.0000000 -1.0000000  0.0000000 )       (  0.2886751 )
                  (  0.0000000  0.0000000 -1.0000000 )       ( -1.5000000 )


      isym =  5      60 deg rotation - cryst. axis [0,0,1]       

 cryst.   s( 5) = (     1          1          0      )    f =( -0.3333333 )
                  (    -1          0          0      )       (  0.3333333 )
                  (     0          0          1      )       (  0.0000000 )

 cart.    s( 5) = (  0.5000000 -0.8660254  0.0000000 )    f =( -0.5000000 )
                  (  0.8660254  0.5000000  0.0000000 )       (  0.2886751 )
                  (  0.0000000  0.0000000  1.0000000 )       (  0.0000000 )


      isym =  6      60 deg rotation - cryst. axis [0,0,-1]      

 cryst.   s( 6) = (     0         -1          0      )    f =( -0.3333333 )
                  (     1          1          0      )       (  0.3333333 )
                  (     0          0          1      )       (  0.0000000 )

 cart.    s( 6) = (  0.5000000  0.8660254  0.0000000 )    f =( -0.5000000 )
                  ( -0.8660254  0.5000000  0.0000000 )       (  0.2886751 )
                  (  0.0000000  0.0000000  1.0000000 )       (  0.0000000 )


      isym =  7     120 deg rotation - cryst. axis [0,0,1]       

 cryst.   s( 7) = (     0          1          0      )
                  (    -1         -1          0      )
                  (     0          0          1      )

 cart.    s( 7) = ( -0.5000000 -0.8660254  0.0000000 )
                  (  0.8660254 -0.5000000  0.0000000 )
                  (  0.0000000  0.0000000  1.0000000 )


      isym =  8     120 deg rotation - cryst. axis [0,0,-1]      

 cryst.   s( 8) = (    -1         -1          0      )
                  (     1          0          0      )
                  (     0          0          1      )

 cart.    s( 8) = ( -0.5000000  0.8660254  0.0000000 )
                  ( -0.8660254 -0.5000000  0.0000000 )
                  (  0.0000000  0.0000000  1.0000000 )


      isym =  9     180 deg rotation - cryst. axis [1,-1,0]      

 cryst.   s( 9) = (     0         -1          0      )    f =(  0.0000000 )
                  (    -1          0          0      )       (  0.0000000 )
                  (     0          0         -1      )       ( -0.2500000 )

 cart.    s( 9) = (  0.5000000 -0.8660254  0.0000000 )    f =(  0.0000000 )
                  ( -0.8660254 -0.5000000  0.0000000 )       (  0.0000000 )
                  (  0.0000000  0.0000000 -1.0000000 )       ( -1.5000000 )


      isym = 10     180 deg rotation - cryst. axis [2,1,0]       

 cryst.   s(10) = (     1          1          0      )    f =(  0.0000000 )
                  (     0         -1          0      )       (  0.0000000 )
                  (     0          0         -1      )       ( -0.2500000 )

 cart.    s(10) = (  0.5000000  0.8660254  0.0000000 )    f =(  0.0000000 )
                  (  0.8660254 -0.5000000  0.0000000 )       (  0.0000000 )
                  (  0.0000000  0.0000000 -1.0000000 )       ( -1.5000000 )


      isym = 11     180 deg rotation - cryst. axis [0,1,0]       

 cryst.   s(11) = (    -1         -1          0      )    f =( -0.3333333 )
                  (     0          1          0      )       (  0.3333333 )
                  (     0          0         -1      )       ( -0.2500000 )

 cart.    s(11) = ( -0.5000000 -0.8660254  0.0000000 )    f =( -0.5000000 )
                  ( -0.8660254  0.5000000  0.0000000 )       (  0.2886751 )
                  (  0.0000000  0.0000000 -1.0000000 )       ( -1.5000000 )


      isym = 12     180 deg rotation - cryst. axis [1,1,0]       

 cryst.   s(12) = (     0          1          0      )    f =( -0.3333333 )
                  (     1          0          0      )       (  0.3333333 )
                  (     0          0         -1      )       ( -0.2500000 )

 cart.    s(12) = ( -0.5000000  0.8660254  0.0000000 )    f =( -0.5000000 )
                  (  0.8660254  0.5000000  0.0000000 )       (  0.2886751 )
                  (  0.0000000  0.0000000 -1.0000000 )       ( -1.5000000 )


      isym = 13     inversion                                    

 cryst.   s(13) = (    -1          0          0      )    f =( -0.3333333 )
                  (     0         -1          0      )       (  0.3333333 )
                  (     0          0         -1      )       ( -0.2500000 )

 cart.    s(13) = ( -1.0000000  0.0000000  0.0000000 )    f =( -0.5000000 )
                  (  0.0000000 -1.0000000  0.0000000 )       (  0.2886751 )
                  (  0.0000000  0.0000000 -1.0000000 )       ( -1.5000000 )


      isym = 14     inv. 180 deg rotation - cart. axis [0,0,1]   

 cryst.   s(14) = (     1          0          0      )    f =(  0.0000000 )
                  (     0          1          0      )       (  0.0000000 )
                  (     0          0         -1      )       ( -0.2500000 )

 cart.    s(14) = (  1.0000000  0.0000000  0.0000000 )    f =(  0.0000000 )
                  (  0.0000000  1.0000000  0.0000000 )       (  0.0000000 )
                  (  0.0000000  0.0000000 -1.0000000 )       ( -1.5000000 )


      isym = 15     inv. 180 deg rotation - cart. axis [0,1,0]   

 cryst.   s(15) = (     1          0          0      )    f =( -0.3333333 )
                  (    -1         -1          0      )       (  0.3333333 )
                  (     0          0          1      )       (  0.0000000 )

 cart.    s(15) = (  1.0000000  0.0000000  0.0000000 )    f =( -0.5000000 )
                  (  0.0000000 -1.0000000  0.0000000 )       (  0.2886751 )
                  (  0.0000000  0.0000000  1.0000000 )       (  0.0000000 )


      isym = 16     inv. 180 deg rotation - cart. axis [1,0,0]   

 cryst.   s(16) = (    -1          0          0      )
                  (     1          1          0      )
                  (     0          0          1      )

 cart.    s(16) = ( -1.0000000  0.0000000  0.0000000 )
                  (  0.0000000  1.0000000  0.0000000 )
                  (  0.0000000  0.0000000  1.0000000 )


      isym = 17     inv.  60 deg rotation - cryst. axis [0,0,1]  

 cryst.   s(17) = (    -1         -1          0      )    f =(  0.0000000 )
                  (     1          0          0      )       (  0.0000000 )
                  (     0          0         -1      )       ( -0.2500000 )

 cart.    s(17) = ( -0.5000000  0.8660254  0.0000000 )    f =(  0.0000000 )
                  ( -0.8660254 -0.5000000  0.0000000 )       (  0.0000000 )
                  (  0.0000000  0.0000000 -1.0000000 )       ( -1.5000000 )


      isym = 18     inv.  60 deg rotation - cryst. axis [0,0,-1] 

 cryst.   s(18) = (     0          1          0      )    f =(  0.0000000 )
                  (    -1         -1          0      )       (  0.0000000 )
                  (     0          0         -1      )       ( -0.2500000 )

 cart.    s(18) = ( -0.5000000 -0.8660254  0.0000000 )    f =(  0.0000000 )
                  (  0.8660254 -0.5000000  0.0000000 )       (  0.0000000 )
                  (  0.0000000  0.0000000 -1.0000000 )       ( -1.5000000 )


      isym = 19     inv. 120 deg rotation - cryst. axis [0,0,1]  

 cryst.   s(19) = (     0         -1          0      )    f =( -0.3333333 )
                  (     1          1          0      )       (  0.3333333 )
                  (     0          0         -1      )       ( -0.2500000 )

 cart.    s(19) = (  0.5000000  0.8660254  0.0000000 )    f =( -0.5000000 )
                  ( -0.8660254  0.5000000  0.0000000 )       (  0.2886751 )
                  (  0.0000000  0.0000000 -1.0000000 )       ( -1.5000000 )


      isym = 20     inv. 120 deg rotation - cryst. axis [0,0,-1] 

 cryst.   s(20) = (     1          1          0      )    f =( -0.3333333 )
                  (    -1          0          0      )       (  0.3333333 )
                  (     0          0         -1      )       ( -0.2500000 )

 cart.    s(20) = (  0.5000000 -0.8660254  0.0000000 )    f =( -0.5000000 )
                  (  0.8660254  0.5000000  0.0000000 )       (  0.2886751 )
                  (  0.0000000  0.0000000 -1.0000000 )       ( -1.5000000 )


      isym = 21     inv. 180 deg rotation - cryst. axis [1,-1,0] 

 cryst.   s(21) = (     0          1          0      )    f =( -0.3333333 )
                  (     1          0          0      )       (  0.3333333 )
                  (     0          0          1      )       (  0.0000000 )

 cart.    s(21) = ( -0.5000000  0.8660254  0.0000000 )    f =( -0.5000000 )
                  (  0.8660254  0.5000000  0.0000000 )       (  0.2886751 )
                  (  0.0000000  0.0000000  1.0000000 )       (  0.0000000 )


      isym = 22     inv. 180 deg rotation - cryst. axis [2,1,0]  

 cryst.   s(22) = (    -1         -1          0      )    f =( -0.3333333 )
                  (     0          1          0      )       (  0.3333333 )
                  (     0          0          1      )       (  0.0000000 )

 cart.    s(22) = ( -0.5000000 -0.8660254  0.0000000 )    f =( -0.5000000 )
                  ( -0.8660254  0.5000000  0.0000000 )       (  0.2886751 )
                  (  0.0000000  0.0000000  1.0000000 )       (  0.0000000 )


      isym = 23     inv. 180 deg rotation - cryst. axis [0,1,0]  

 cryst.   s(23) = (     1          1          0      )
                  (     0         -1          0      )
                  (     0          0          1      )

 cart.    s(23) = (  0.5000000  0.8660254  0.0000000 )
                  (  0.8660254 -0.5000000  0.0000000 )
                  (  0.0000000  0.0000000  1.0000000 )


      isym = 24     inv. 180 deg rotation - cryst. axis [1,1,0]  

 cryst.   s(24) = (     0         -1          0      )
                  (    -1          0          0      )
                  (     0          0          1      )

 cart.    s(24) = (  0.5000000 -0.8660254  0.0000000 )
                  ( -0.8660254 -0.5000000  0.0000000 )
                  (  0.0000000  0.0000000  1.0000000 )


     point group D_6h(6/mmm)
     there are 12 classes
     the character table:

       E     2C6   2C3   C2    3C2'  3C2'' i     2S3   2S6   s_h   3s_d  3s_v 
A_1g   1.00  1.00  1.00  1.00  1.00  1.00  1.00  1.00  1.00  1.00  1.00  1.00
A_2g   1.00  1.00  1.00  1.00 -1.00 -1.00  1.00  1.00  1.00  1.00 -1.00 -1.00
B_1g   1.00 -1.00  1.00 -1.00  1.00 -1.00  1.00 -1.00  1.00 -1.00  1.00 -1.00
B_2g   1.00 -1.00  1.00 -1.00 -1.00  1.00  1.00 -1.00  1.00 -1.00 -1.00  1.00
E_1g   2.00  1.00 -1.00 -2.00  0.00  0.00  2.00  1.00 -1.00 -2.00  0.00  0.00
E_2g   2.00 -1.00 -1.00  2.00  0.00  0.00  2.00 -1.00 -1.00  2.00  0.00  0.00
A_1u   1.00  1.00  1.00  1.00  1.00  1.00 -1.00 -1.00 -1.00 -1.00 -1.00 -1.00
A_2u   1.00  1.00  1.00  1.00 -1.00 -1.00 -1.00 -1.00 -1.00 -1.00  1.00  1.00
B_1u   1.00 -1.00  1.00 -1.00  1.00 -1.00 -1.00  1.00 -1.00  1.00 -1.00  1.00
B_2u   1.00 -1.00  1.00 -1.00 -1.00  1.00 -1.00  1.00 -1.00  1.00  1.00 -1.00
E_1u   2.00  1.00 -1.00 -2.00  0.00  0.00 -2.00 -1.00  1.00  2.00  0.00  0.00
E_2u   2.00 -1.00 -1.00  2.00  0.00  0.00 -2.00  1.00  1.00 -2.00  0.00  0.00

     the symmetry operations in each class and the name of the first element:

     E        1
          identity                                               
     2C6      5    6
           60 deg rotation - cryst. axis [0,0,1]                 
     2C3      7    8
          120 deg rotation - cryst. axis [0,0,1]                 
     C2       2
          180 deg rotation - cart. axis [0,0,1]                  
     3C2'     4   12   11
          180 deg rotation - cart. axis [1,0,0]                  
     3C2''    3    9   10
          180 deg rotation - cart. axis [0,1,0]                  
     i       13
          inversion                                              
     2S3     17   18
          inv.  60 deg rotation - cryst. axis [0,0,1]            
     2S6     19   20
          inv. 120 deg rotation - cryst. axis [0,0,1]            
     s_h     14
          inv. 180 deg rotation - cart. axis [0,0,1]             
     3s_d    16   24   23
          inv. 180 deg rotation - cart. axis [1,0,0]             
     3s_v    15   21   22
          inv. 180 deg rotation - cart. axis [0,1,0]             

   Cartesian axes

     site n.     atom                  positions (alat units)
         1           C   tau(   1) = (   0.0000000   0.0000000   0.0000000  )
         2           C   tau(   2) = (  -0.0000000   0.5773503   0.0000000  )
         3           C   tau(   3) = (   0.0000000   0.0000000   1.5000000  )
         4           C   tau(   4) = (  -0.0000000   0.5773503   1.5000000  )

   Crystallographic axes

     site n.     atom                  positions (cryst. coord.)
         1           C   tau(   1) = (  0.0000000  0.0000000  0.0000000  )
         2           C   tau(   2) = (  0.3333333  0.6666667  0.0000000  )
         3           C   tau(   3) = (  0.0000000  0.0000000  0.2500000  )
         4           C   tau(   4) = (  0.3333333  0.6666667  0.2500000  )

     number of k points=    19  Marzari-Vanderbilt smearing, width (Ry)=  0.0100
                       cart. coord. in units 2pi/alat
        k(    1) = (   0.0000000   0.0000000   0.0000000), wk =   0.0138889
        k(    2) = (   0.0000000   0.0962250   0.0000000), wk =   0.0833333
        k(    3) = (   0.0000000   0.1924501   0.0000000), wk =   0.0833333
        k(    4) = (   0.0000000   0.2886751   0.0000000), wk =   0.0833333
        k(    5) = (   0.0000000   0.3849002   0.0000000), wk =   0.0833333
        k(    6) = (   0.0000000   0.4811252   0.0000000), wk =   0.0833333
        k(    7) = (   0.0000000  -0.5773503   0.0000000), wk =   0.0416667
        k(    8) = (   0.0833333   0.1443376   0.0000000), wk =   0.0833333
        k(    9) = (   0.0833333   0.2405626   0.0000000), wk =   0.1666667
        k(   10) = (   0.0833333   0.3367877   0.0000000), wk =   0.1666667
        k(   11) = (   0.0833333   0.4330127   0.0000000), wk =   0.1666667
        k(   12) = (   0.0833333   0.5292377   0.0000000), wk =   0.1666667
        k(   13) = (   0.1666667   0.2886751   0.0000000), wk =   0.0833333
        k(   14) = (   0.1666667   0.3849002   0.0000000), wk =   0.1666667
        k(   15) = (   0.1666667   0.4811252   0.0000000), wk =   0.1666667
        k(   16) = (   0.1666667   0.5773503   0.0000000), wk =   0.0833333
        k(   17) = (   0.2500000   0.4330127   0.0000000), wk =   0.0833333
        k(   18) = (   0.2500000   0.5292377   0.0000000), wk =   0.1666667
        k(   19) = (   0.3333333   0.5773503   0.0000000), wk =   0.0277778

                       cryst. coord.
        k(    1) = (   0.0000000   0.0000000   0.0000000), wk =   0.0138889
        k(    2) = (   0.0000000   0.0833333   0.0000000), wk =   0.0833333
        k(    3) = (   0.0000000   0.1666667   0.0000000), wk =   0.0833333
        k(    4) = (   0.0000000   0.2500000   0.0000000), wk =   0.0833333
        k(    5) = (   0.0000000   0.3333333   0.0000000), wk =   0.0833333
        k(    6) = (   0.0000000   0.4166667   0.0000000), wk =   0.0833333
        k(    7) = (   0.0000000  -0.5000000   0.0000000), wk =   0.0416667
        k(    8) = (   0.0833333   0.0833333   0.0000000), wk =   0.0833333
        k(    9) = (   0.0833333   0.1666667   0.0000000), wk =   0.1666667
        k(   10) = (   0.0833333   0.2500000   0.0000000), wk =   0.1666667
        k(   11) = (   0.0833333   0.3333333   0.0000000), wk =   0.1666667
        k(   12) = (   0.0833333   0.4166667   0.0000000), wk =   0.1666667
        k(   13) = (   0.1666667   0.1666667   0.0000000), wk =   0.0833333
        k(   14) = (   0.1666667   0.2500000   0.0000000), wk =   0.1666667
        k(   15) = (   0.1666667   0.3333333   0.0000000), wk =   0.1666667
        k(   16) = (   0.1666667   0.4166667   0.0000000), wk =   0.0833333
        k(   17) = (   0.2500000   0.2500000   0.0000000), wk =   0.0833333
        k(   18) = (   0.2500000   0.3333333   0.0000000), wk =   0.1666667
        k(   19) = (   0.3333333   0.3333333   0.0000000), wk =   0.0277778

     Dense  grid:    32201 G-vectors     FFT dimensions: (  24,  24, 144)

     Dynamical RAM for                 wfc:       0.49 MB

     Dynamical RAM for     wfc (w. buffer):       2.95 MB

     Dynamical RAM for           str. fact:       0.49 MB

     Dynamical RAM for           local pot:       0.00 MB

     Dynamical RAM for          nlocal pot:       1.96 MB

     Dynamical RAM for                qrad:       0.71 MB

     Dynamical RAM for          rho,v,vnew:       3.37 MB

     Dynamical RAM for               rhoin:       1.12 MB

     Dynamical RAM for            rho*nmix:       7.86 MB

     Dynamical RAM for           G-vectors:       2.09 MB

     Dynamical RAM for          h,s,v(r/c):       0.01 MB

     Dynamical RAM for          <psi|beta>:       0.00 MB

     Dynamical RAM for                 psi:       0.98 MB

     Dynamical RAM for                hpsi:       0.98 MB

     Dynamical RAM for      wfcinit/wfcrot:       0.98 MB

     Estimated static dynamical RAM per process >      24.71 MB

     Estimated max dynamical RAM per process >      26.68 MB

     Estimated total dynamical RAM >     106.74 MB

     Atomic positions and unit cell read from directory:
     ./tmp/graphene.save/
     Atomic positions from file used, from input discarded


     The initial density is read from file :
     ./tmp/graphene.save/charge-density



     %%%%%%%%%%%%%%%%%%%%%%%%%%%%%%%%%%%%%%%%%%%%%%%%%%%%%%%%%%%%%%%%%%%%%%%%
     %                                                                      %
     % You are using vdW-DF, which was implemented by the Thonhauser group. %
     % Please cite the following two papers that made this development      %
     % possible and the two reviews that describe the various versions:     %
     %                                                                      %
     %   T. Thonhauser et al., PRL 115, 136402 (2015).                      %
     %   T. Thonhauser et al., PRB 76, 125112 (2007).                       %
     %   K. Berland et al., Rep. Prog. Phys. 78, 066501 (2015).             %
     %   D.C. Langreth et al., J. Phys.: Condens. Matter 21, 084203 (2009). %
     %                                                                      %
     %                                                                      %
     % If you are calculating the stress with vdW-DF, please also cite:     %
     %                                                                      %
     %   R. Sabatini et al., J. Phys.: Condens. Matter 24, 424209 (2012).   %
     %                                                                      %
     %%%%%%%%%%%%%%%%%%%%%%%%%%%%%%%%%%%%%%%%%%%%%%%%%%%%%%%%%%%%%%%%%%%%%%%%


     Carrying out vdW-DF run using the following parameters:
     Nqs    =  20  Npoints =  1024  r_max =  100.000
     q_mesh =  0.00001000  0.04494208  0.09755937  0.15916263
               0.23128650  0.31572767  0.41458969  0.53033537
               0.66584808  0.82450364  1.01025438  1.22772762
               1.48234092  1.78043706  2.12944203  2.53805004
               3.01644009  3.57652955  4.23227104  5.00000000


     -----------------------------------------------
     Non-local corr. energy    =       0.19500400 Ry
     -----------------------------------------------

     Starting wfcs from file

     total cpu time spent up to now is       19.6 secs

     Self-consistent Calculation

     iteration #  1     ecut=    60.00 Ry     beta= 0.70
     Davidson diagonalization with overlap
     ethr =  1.00E-05,  avg # of iterations =  2.0

     Threshold (ethr) on eigenvalues was too large:
     Diagonalizing with lowered threshold

     Davidson diagonalization with overlap
     ethr =  7.67E-09,  avg # of iterations =  4.1


     -----------------------------------------------
     Non-local corr. energy    =       0.19499843 Ry
     -----------------------------------------------


     total cpu time spent up to now is       23.4 secs

     total energy              =     -48.24957624 Ry
     estimated scf accuracy    <       0.00000224 Ry

     iteration #  2     ecut=    60.00 Ry     beta= 0.70
     Davidson diagonalization with overlap
     ethr =  1.40E-08,  avg # of iterations =  2.2


     -----------------------------------------------
     Non-local corr. energy    =       0.19499758 Ry
     -----------------------------------------------


     total cpu time spent up to now is       25.8 secs

     total energy              =     -48.24957652 Ry
     estimated scf accuracy    <       0.00000114 Ry

     iteration #  3     ecut=    60.00 Ry     beta= 0.70
     Davidson diagonalization with overlap
     ethr =  7.13E-09,  avg # of iterations =  2.0


     -----------------------------------------------
     Non-local corr. energy    =       0.19499941 Ry
     -----------------------------------------------


     total cpu time spent up to now is       28.1 secs

     End of self-consistent calculation

          k = 0.0000 0.0000 0.0000 (  4005 PWs)   bands (ev):

   -16.7857 -16.6511  -5.3061  -4.3824  -0.2351  -0.2351  -0.2199  -0.2199

     occupation numbers 
     1.0000   1.0000   1.0000   1.0000   1.0000   1.0000   1.0000   1.0000

          k = 0.0000 0.0955 0.0000 (  4020 PWs)   bands (ev):

   -16.6209 -16.4876  -5.1065  -4.1881  -0.8888  -0.8688  -0.5755  -0.5589

     occupation numbers 
     1.0000   1.0000   1.0000   1.0000   1.0000   1.0000   1.0000   1.0000

          k = 0.0000 0.1911 0.0000 (  4038 PWs)   bands (ev):

   -16.1282 -15.9989  -4.5123  -3.6105  -2.5341  -2.5019  -1.3734  -1.3548

     occupation numbers 
     1.0000   1.0000   1.0000   1.0000   1.0000   1.0000   1.0000   1.0000

          k = 0.0000 0.2866 0.0000 (  4016 PWs)   bands (ev):

   -15.3134 -15.1905  -4.6418  -4.5952  -3.5414  -2.6698  -2.2598  -2.2385

     occupation numbers 
     1.0000   1.0000   1.0000   1.0000   1.0000   1.0000   1.0000   1.0000

          k = 0.0000 0.3822 0.0000 (  4040 PWs)   bands (ev):

   -14.1891 -14.0748  -6.8552  -6.7944  -2.9988  -2.9761  -2.2421  -1.4191

     occupation numbers 
     1.0000   1.0000   1.0000   1.0000   1.0000   1.0000   1.0000   1.0000

          k = 0.0000 0.4777 0.0000 (  4028 PWs)   bands (ev):

   -12.7865 -12.6820  -8.9656  -8.8911  -3.4754  -3.4520  -0.7717  -0.0264

     occupation numbers 
     1.0000   1.0000   1.0000   1.0000   1.0000   1.0000   1.0000   1.0000

          k =-0.0000-0.5733-0.0000 (  4024 PWs)   bands (ev):

   -11.5159 -11.4170 -10.4797 -10.3991  -3.6387  -3.6155   0.1182   0.7878

     occupation numbers 
     1.0000   1.0000   1.0000   1.0000   1.0000   1.0000   1.0000   1.0000

          k = 0.0827 0.1433-0.0000 (  4045 PWs)   bands (ev):

   -16.2922 -16.1616  -4.7094  -3.8019  -1.9281  -1.9009  -1.2568  -1.2368

     occupation numbers 
     1.0000   1.0000   1.0000   1.0000   1.0000   1.0000   1.0000   1.0000

          k = 0.0827 0.2389-0.0000 (  4025 PWs)   bands (ev):

   -15.6384 -15.5130  -3.9260  -3.6451  -3.6063  -3.0415  -2.2606  -2.2359

     occupation numbers 
     1.0000   1.0000   1.0000   1.0000   1.0000   1.0000   1.0000   1.0000

          k = 0.0827 0.3344 0.0000 (  4029 PWs)   bands (ev):

   -14.6687 -14.5508  -5.7273  -5.6744  -3.1531  -3.1255  -2.7845  -1.9390

     occupation numbers 
     1.0000   1.0000   1.0000   1.0000   1.0000   1.0000   1.0000   1.0000

          k = 0.0827 0.4299 0.0000 (  4009 PWs)   bands (ev):

   -13.4019 -13.2936  -7.8597  -7.7927  -3.7924  -3.7636  -1.3667  -0.5821

     occupation numbers 
     1.0000   1.0000   1.0000   1.0000   1.0000   1.0000   1.0000   1.0000

          k = 0.0827 0.5255 0.0000 (  4026 PWs)   bands (ev):

   -11.9152 -11.8163  -9.8112  -9.7322  -4.1237  -4.0937  -0.0024   0.6911

     occupation numbers 
     1.0000   1.0000   1.0000   1.0000   1.0000   1.0000   1.0000   1.0000

          k = 0.1655 0.2866-0.0000 (  4032 PWs)   bands (ev):

   -14.8298 -14.7107  -4.9818  -4.9351  -3.6289  -3.5947  -2.9680  -2.1150

     occupation numbers 
     1.0000   1.0000   1.0000   1.0000   1.0000   1.0000   1.0000   1.0000

          k = 0.1655 0.3822-0.0000 (  4020 PWs)   bands (ev):

   -13.7163 -13.6056  -6.7167  -6.6578  -4.6908  -4.6508  -1.6838  -0.8796

     occupation numbers 
     1.0000   1.0000   1.0000   1.0000   1.0000   1.0000   1.0000   1.0000

          k = 0.1655 0.4777-0.0000 (  4002 PWs)   bands (ev):

   -12.3335 -12.2329  -8.6360  -8.5645  -5.2698  -5.2278  -0.2116   0.5194

     occupation numbers 
     1.0000   1.0000   1.0000   1.0000   1.0000   1.0000   1.0000   1.0000

          k = 0.1655 0.5733 0.0000 (  4032 PWs)   bands (ev):

   -11.0928 -10.9982 -10.0789  -9.9997  -5.4566  -5.4137   0.7246   1.3833

     occupation numbers 
     1.0000   1.0000   1.0000   1.0000   1.0000   1.0000   1.0000   1.0000

          k = 0.2482 0.4299-0.0000 (  3996 PWs)   bands (ev):

   -12.4819 -12.3807  -7.7567  -7.6909  -6.1803  -6.1303  -0.3040   0.4416

     occupation numbers 
     1.0000   1.0000   1.0000   1.0000   1.0000   1.0000   1.0000   1.0000

          k = 0.2482 0.5255-0.0000 (  4003 PWs)   bands (ev):

   -11.0526 -10.9608  -9.1841  -9.1085  -6.8914  -6.8371   1.1286   1.7988

     occupation numbers 
     1.0000   1.0000   1.0000   1.0000   1.0000   1.0000   1.0000   1.0000

          k = 0.3310 0.5733-0.0000 (  3942 PWs)   bands (ev):

    -9.8286  -9.8286  -9.7457  -9.7457  -7.7918  -7.7331   2.5151   2.5151

     occupation numbers 
     1.0000   1.0000   1.0000   1.0000   1.0000   1.0000   1.0000   1.0000

     the Fermi energy is     2.6404 ev

!    total energy              =     -48.24957682 Ry
     estimated scf accuracy    <       0.00000004 Ry
     smearing contrib. (-TS)   =       0.00004531 Ry
     internal energy E=F+TS    =     -48.24962212 Ry

     The total energy is F=E-TS. E is the sum of the following terms:
     one-electron contribution =    -111.80874143 Ry
     hartree contribution      =      61.57344010 Ry
     xc contribution           =     -17.23244868 Ry
     ewald contribution        =      19.21812789 Ry

     convergence has been achieved in   3 iterations


     -----------------------------------------------
     Non-local corr. energy    =       0.19499941 Ry
     -----------------------------------------------


     Forces acting on atoms (cartesian axes, Ry/au):

     atom    1 type  1   force =     0.00000000    0.00000000   -0.00061248
     atom    2 type  1   force =    -0.00000000   -0.00000000   -0.00061248
     atom    3 type  1   force =     0.00000000    0.00000000    0.00061248
     atom    4 type  1   force =    -0.00000000   -0.00000000    0.00061248
     The non-local contrib.  to forces
     atom    1 type  1   force =    -0.00000000   -0.00000000   -0.00106483
     atom    2 type  1   force =     0.00000000   -0.00000000   -0.00106483
     atom    3 type  1   force =     0.00000000    0.00000000    0.00106483
     atom    4 type  1   force =    -0.00000000   -0.00000000    0.00106483
     The ionic contribution  to forces
     atom    1 type  1   force =     0.00000027   -0.00000016   -7.59093116
     atom    2 type  1   force =    -0.00000027    0.00000016   -7.59093116
     atom    3 type  1   force =     0.00000027   -0.00000016    7.59093116
     atom    4 type  1   force =    -0.00000027    0.00000016    7.59093116
     The local contribution  to forces
     atom    1 type  1   force =    -0.00000013    0.00000007    7.59101527
     atom    2 type  1   force =     0.00000014   -0.00000008    7.59101527
     atom    3 type  1   force =    -0.00000013    0.00000007   -7.59101527
     atom    4 type  1   force =     0.00000014   -0.00000008   -7.59101527
     The core correction contribution to forces
     atom    1 type  1   force =    -0.00000000    0.00000000   -0.00000509
     atom    2 type  1   force =     0.00000000   -0.00000000   -0.00000509
     atom    3 type  1   force =    -0.00000000    0.00000000    0.00000509
     atom    4 type  1   force =     0.00000000   -0.00000000    0.00000509
     The Hubbard contrib.    to forces
     atom    1 type  1   force =     0.00000000    0.00000000    0.00000000
     atom    2 type  1   force =     0.00000000    0.00000000    0.00000000
     atom    3 type  1   force =     0.00000000    0.00000000    0.00000000
     atom    4 type  1   force =     0.00000000    0.00000000    0.00000000
     The SCF correction term to forces
     atom    1 type  1   force =     0.00000000   -0.00000000    0.00037333
     atom    2 type  1   force =    -0.00000000    0.00000000    0.00037333
     atom    3 type  1   force =     0.00000000   -0.00000000   -0.00037333
     atom    4 type  1   force =    -0.00000000    0.00000000   -0.00037333

     Total force =     0.001225     Total SCF correction =     0.000747
     SCF correction compared to forces is large: reduce conv_thr to get better values


     Computing stress (Cartesian axis) and pressure



     -----------------------------------------------
     Non-local corr. energy    =       0.19499941 Ry
     -----------------------------------------------

          total   stress  (Ry/bohr**3)                   (kbar)     P=        0.13
  -0.00000049  -0.00000000   0.00000000           -0.07       -0.00        0.00
  -0.00000000  -0.00000049   0.00000000           -0.00       -0.07        0.00
   0.00000000   0.00000000   0.00000366            0.00        0.00        0.54

     kinetic stress (kbar)   8498.35      0.00     -0.00
                                0.00   8498.35      0.00
                               -0.00      0.00   9352.07

     local   stress (kbar) -52202.62      0.00      0.00
                                0.00 -52202.62      0.00
                                0.00      0.00  54756.75

     nonloc. stress (kbar)   -877.19     -0.00      0.00
                               -0.00   -877.19     -0.00
                                0.00     -0.00   -721.34

     hartree stress (kbar)  23490.20     -0.00     -0.00
                               -0.00  23490.20      0.00
                               -0.00      0.00 -22837.75

     exc-cor stress (kbar)   -677.51     -0.00      0.00
                               -0.00   -677.51      0.00
                                0.00      0.00   -790.18

     corecor stress (kbar)  -1288.12     -0.00      0.00
                               -0.00  -1288.12     -0.00
                                0.00     -0.00  -1251.59

     ewald   stress (kbar)  23051.02      0.00     -0.00
                                0.00  23051.02      0.00
                               -0.00      0.00 -38566.71

     hubbard stress (kbar)      0.00      0.00      0.00
                                0.00      0.00      0.00
                                0.00      0.00      0.00

     DFT-D   stress (kbar)      0.00      0.00      0.00
                                0.00      0.00      0.00
                                0.00      0.00      0.00

     XDM     stress (kbar)      0.00      0.00      0.00
                                0.00      0.00      0.00
                                0.00      0.00      0.00

     dft-nl  stress (kbar)      5.80      0.00     -0.00
                                0.00      5.80      0.00
                               -0.00      0.00     59.28

     TS-vdW  stress (kbar)      0.00      0.00      0.00
                                0.00      0.00      0.00
                                0.00      0.00      0.00


     Energy error            =      3.5E-06
     Gradient error          =      6.1E-04
     Cell gradient error     =      3.7E-06


     number of scf cycles    =  51
     number of bfgs steps    =  46

     enthalpy old            =     -48.2495732916 Ry
     enthalpy new            =     -48.2495768187 Ry

     CASE: enthalpy_new < enthalpy_old

     new trust radius        =       0.0047575418 bohr
     new conv_thr            =       0.0000000100 Ry

     new unit-cell volume =    374.65903 a.u.^3 (    55.51874 Ang^3 )
     density =      1.43697 g/cm^3

CELL_PARAMETERS (alat=  4.62030000)
   1.007059039  -0.000000017  -0.000000000
  -0.503529534   0.872138702  -0.000000000
   0.000000000  -0.000000000   4.324990815

ATOMIC_POSITIONS (crystal)
C             0.0000000000        0.0000000000       -0.0366946132
C             0.3333333330        0.6666666670       -0.0366946132
C            -0.0000000000       -0.0000000000        0.2866946132
C             0.3333333330        0.6666666670        0.2866946132



     Writing output data file ./tmp/graphene.save/
     NEW-OLD atomic charge density approx. for the potential


     -----------------------------------------------
     Non-local corr. energy    =       0.19482842 Ry
     -----------------------------------------------

     extrapolated charge   15.97788, renormalised to   16.00000

     total cpu time spent up to now is       36.8 secs

     Self-consistent Calculation

     iteration #  1     ecut=    60.00 Ry     beta= 0.70
     Davidson diagonalization with overlap
     ethr =  1.00E-06,  avg # of iterations =  3.0


     -----------------------------------------------
     Non-local corr. energy    =       0.19518794 Ry
     -----------------------------------------------


     total cpu time spent up to now is       40.4 secs

     total energy              =     -48.24940096 Ry
     estimated scf accuracy    <       0.00011966 Ry

     iteration #  2     ecut=    60.00 Ry     beta= 0.70
     Davidson diagonalization with overlap
     ethr =  7.48E-07,  avg # of iterations =  3.6


     -----------------------------------------------
     Non-local corr. energy    =       0.19512572 Ry
     -----------------------------------------------


     total cpu time spent up to now is       43.3 secs

     total energy              =     -48.24956105 Ry
     estimated scf accuracy    <       0.00051308 Ry

     iteration #  3     ecut=    60.00 Ry     beta= 0.70
     Davidson diagonalization with overlap
     ethr =  7.48E-07,  avg # of iterations =  2.2


     -----------------------------------------------
     Non-local corr. energy    =       0.19504736 Ry
     -----------------------------------------------


     total cpu time spent up to now is       45.4 secs

     total energy              =     -48.24958045 Ry
     estimated scf accuracy    <       0.00007761 Ry

     iteration #  4     ecut=    60.00 Ry     beta= 0.70
     Davidson diagonalization with overlap
     ethr =  4.85E-07,  avg # of iterations =  2.0


     -----------------------------------------------
     Non-local corr. energy    =       0.19499227 Ry
     -----------------------------------------------


     total cpu time spent up to now is       47.6 secs

     total energy              =     -48.24958107 Ry
     estimated scf accuracy    <       0.00001440 Ry

     iteration #  5     ecut=    60.00 Ry     beta= 0.70
     Davidson diagonalization with overlap
     ethr =  9.00E-08,  avg # of iterations =  2.8


     -----------------------------------------------
     Non-local corr. energy    =       0.19499462 Ry
     -----------------------------------------------


     total cpu time spent up to now is       49.6 secs

     total energy              =     -48.24958431 Ry
     estimated scf accuracy    <       0.00000029 Ry

     iteration #  6     ecut=    60.00 Ry     beta= 0.70
     Davidson diagonalization with overlap
     ethr =  1.82E-09,  avg # of iterations =  4.1


     -----------------------------------------------
     Non-local corr. energy    =       0.19498686 Ry
     -----------------------------------------------


     total cpu time spent up to now is       51.9 secs

     total energy              =     -48.24958459 Ry
     estimated scf accuracy    <       0.00000028 Ry

     iteration #  7     ecut=    60.00 Ry     beta= 0.70
     Davidson diagonalization with overlap
     ethr =  1.76E-09,  avg # of iterations =  2.1


     -----------------------------------------------
     Non-local corr. energy    =       0.19498251 Ry
     -----------------------------------------------


     total cpu time spent up to now is       54.0 secs

     total energy              =     -48.24958431 Ry
     estimated scf accuracy    <       0.00000066 Ry

     iteration #  8     ecut=    60.00 Ry     beta= 0.70
     Davidson diagonalization with overlap
     ethr =  1.76E-09,  avg # of iterations =  2.2


     -----------------------------------------------
     Non-local corr. energy    =       0.19498393 Ry
     -----------------------------------------------


     total cpu time spent up to now is       56.0 secs

     End of self-consistent calculation

          k = 0.0000 0.0000 0.0000 (  4005 PWs)   bands (ev):

   -16.7779 -16.6431  -5.2982  -4.3737  -0.2253  -0.2253  -0.2101  -0.2101

     occupation numbers 
     1.0000   1.0000   1.0000   1.0000   1.0000   1.0000   1.0000   1.0000

          k = 0.0000 0.0956 0.0000 (  4020 PWs)   bands (ev):

   -16.6130 -16.4796  -5.0985  -4.1793  -0.8791  -0.8590  -0.5658  -0.5492

     occupation numbers 
     1.0000   1.0000   1.0000   1.0000   1.0000   1.0000   1.0000   1.0000

          k = 0.0000 0.1911 0.0000 (  4038 PWs)   bands (ev):

   -16.1202 -15.9908  -4.5042  -3.6016  -2.5245  -2.4923  -1.3639  -1.3453

     occupation numbers 
     1.0000   1.0000   1.0000   1.0000   1.0000   1.0000   1.0000   1.0000

          k = 0.0000 0.2867 0.0000 (  4016 PWs)   bands (ev):

   -15.3053 -15.1823  -4.6325  -4.5858  -3.5332  -2.6609  -2.2504  -2.2291

     occupation numbers 
     1.0000   1.0000   1.0000   1.0000   1.0000   1.0000   1.0000   1.0000

          k = 0.0000 0.3822 0.0000 (  4040 PWs)   bands (ev):

   -14.1809 -14.0664  -6.8462  -6.7853  -2.9896  -2.9669  -2.2336  -1.4099

     occupation numbers 
     1.0000   1.0000   1.0000   1.0000   1.0000   1.0000   1.0000   1.0000

          k = 0.0000 0.4778 0.0000 (  4028 PWs)   bands (ev):

   -12.7780 -12.6734  -8.9569  -8.8823  -3.4663  -3.4428  -0.7628  -0.0169

     occupation numbers 
     1.0000   1.0000   1.0000   1.0000   1.0000   1.0000   1.0000   1.0000

          k =-0.0000-0.5733-0.0000 (  4024 PWs)   bands (ev):

   -11.5069 -11.4080 -10.4714 -10.3907  -3.6296  -3.6064   0.1273   0.7974

     occupation numbers 
     1.0000   1.0000   1.0000   1.0000   1.0000   1.0000   1.0000   1.0000

          k = 0.0827 0.1433-0.0000 (  4045 PWs)   bands (ev):

   -16.2842 -16.1535  -4.7014  -3.7931  -1.9184  -1.8912  -1.2473  -1.2272

     occupation numbers 
     1.0000   1.0000   1.0000   1.0000   1.0000   1.0000   1.0000   1.0000

          k = 0.0827 0.2389 0.0000 (  4025 PWs)   bands (ev):

   -15.6304 -15.5049  -3.9178  -3.6356  -3.5968  -3.0326  -2.2512  -2.2265

     occupation numbers 
     1.0000   1.0000   1.0000   1.0000   1.0000   1.0000   1.0000   1.0000

          k = 0.0827 0.3344 0.0000 (  4029 PWs)   bands (ev):

   -14.6606 -14.5425  -5.7181  -5.6651  -3.1439  -3.1163  -2.7761  -1.9298

     occupation numbers 
     1.0000   1.0000   1.0000   1.0000   1.0000   1.0000   1.0000   1.0000

          k = 0.0827 0.4300 0.0000 (  4009 PWs)   bands (ev):

   -13.3935 -13.2851  -7.8508  -7.7837  -3.7833  -3.7544  -1.3580  -0.5727

     occupation numbers 
     1.0000   1.0000   1.0000   1.0000   1.0000   1.0000   1.0000   1.0000

          k = 0.0827 0.5255 0.0000 (  4026 PWs)   bands (ev):

   -11.9066 -11.8075  -9.8027  -9.7235  -4.1146  -4.0846   0.0066   0.7008

     occupation numbers 
     1.0000   1.0000   1.0000   1.0000   1.0000   1.0000   1.0000   1.0000

          k = 0.1655 0.2867-0.0000 (  4032 PWs)   bands (ev):

   -14.8217 -14.7024  -4.9724  -4.9256  -3.6199  -3.5856  -2.9596  -2.1059

     occupation numbers 
     1.0000   1.0000   1.0000   1.0000   1.0000   1.0000   1.0000   1.0000

          k = 0.1655 0.3822-0.0000 (  4020 PWs)   bands (ev):

   -13.7080 -13.5972  -6.7076  -6.6485  -4.6819  -4.6418  -1.6752  -0.8703

     occupation numbers 
     1.0000   1.0000   1.0000   1.0000   1.0000   1.0000   1.0000   1.0000

          k = 0.1655 0.4778 0.0000 (  4002 PWs)   bands (ev):

   -12.3250 -12.2243  -8.6272  -8.5556  -5.2610  -5.2189  -0.2026   0.5290

     occupation numbers 
     1.0000   1.0000   1.0000   1.0000   1.0000   1.0000   1.0000   1.0000

          k = 0.1655 0.5733 0.0000 (  4032 PWs)   bands (ev):

   -11.0838 -10.9891 -10.0705  -9.9913  -5.4478  -5.4048   0.7338   1.3931

     occupation numbers 
     1.0000   1.0000   1.0000   1.0000   1.0000   1.0000   1.0000   1.0000

          k = 0.2482 0.4300-0.0000 (  3996 PWs)   bands (ev):

   -12.4734 -12.3721  -7.7475  -7.6817  -6.1717  -6.1217  -0.2950   0.4512

     occupation numbers 
     1.0000   1.0000   1.0000   1.0000   1.0000   1.0000   1.0000   1.0000

          k = 0.2482 0.5255-0.0000 (  4003 PWs)   bands (ev):

   -11.0438 -10.9519  -9.1753  -9.0995  -6.8830  -6.8286   1.1378   1.8086

     occupation numbers 
     1.0000   1.0000   1.0000   1.0000   1.0000   1.0000   1.0000   1.0000

          k = 0.3310 0.5733-0.0000 (  3942 PWs)   bands (ev):

    -9.8196  -9.8196  -9.7366  -9.7366  -7.7837  -7.7250   2.5246   2.5246

     occupation numbers 
     1.0000   1.0000   1.0000   1.0000   1.0000   1.0000   1.0000   1.0000

     the Fermi energy is     2.6499 ev

!    total energy              =     -48.24958443 Ry
     estimated scf accuracy    <          1.5E-09 Ry
     smearing contrib. (-TS)   =       0.00004531 Ry
     internal energy E=F+TS    =     -48.24962974 Ry

     The total energy is F=E-TS. E is the sum of the following terms:
     one-electron contribution =    -111.38449994 Ry
     hartree contribution      =      61.36758878 Ry
     xc contribution           =     -17.23318831 Ry
     ewald contribution        =      19.00046973 Ry

     convergence has been achieved in   8 iterations


     -----------------------------------------------
     Non-local corr. energy    =       0.19498393 Ry
     -----------------------------------------------


     Forces acting on atoms (cartesian axes, Ry/au):

     atom    1 type  1   force =    -0.00000000    0.00000000   -0.00072928
     atom    2 type  1   force =     0.00000000    0.00000000   -0.00072928
     atom    3 type  1   force =    -0.00000000   -0.00000000    0.00072928
     atom    4 type  1   force =    -0.00000000    0.00000000    0.00072928
     The non-local contrib.  to forces
     atom    1 type  1   force =    -0.00000000   -0.00000000   -0.00099105
     atom    2 type  1   force =    -0.00000000   -0.00000000   -0.00099105
     atom    3 type  1   force =     0.00000000   -0.00000000    0.00099105
     atom    4 type  1   force =     0.00000000    0.00000000    0.00099105
     The ionic contribution  to forces
     atom    1 type  1   force =     0.00000027   -0.00000016   -7.57711632
     atom    2 type  1   force =    -0.00000027    0.00000016   -7.57711632
     atom    3 type  1   force =     0.00000027   -0.00000016    7.57711632
     atom    4 type  1   force =    -0.00000027    0.00000016    7.57711632
     The local contribution  to forces
     atom    1 type  1   force =    -0.00000013    0.00000007    7.57734329
     atom    2 type  1   force =     0.00000014   -0.00000008    7.57734329
     atom    3 type  1   force =    -0.00000013    0.00000007   -7.57734329
     atom    4 type  1   force =     0.00000014   -0.00000008   -7.57734329
     The core correction contribution to forces
     atom    1 type  1   force =    -0.00000000    0.00000000   -0.00000856
     atom    2 type  1   force =     0.00000000   -0.00000000   -0.00000856
     atom    3 type  1   force =    -0.00000000    0.00000000    0.00000856
     atom    4 type  1   force =     0.00000000   -0.00000000    0.00000856
     The Hubbard contrib.    to forces
     atom    1 type  1   force =     0.00000000    0.00000000    0.00000000
     atom    2 type  1   force =     0.00000000    0.00000000    0.00000000
     atom    3 type  1   force =     0.00000000    0.00000000    0.00000000
     atom    4 type  1   force =     0.00000000    0.00000000    0.00000000
     The SCF correction term to forces
     atom    1 type  1   force =     0.00000000   -0.00000000    0.00004336
     atom    2 type  1   force =    -0.00000000    0.00000000    0.00004336
     atom    3 type  1   force =     0.00000000   -0.00000000   -0.00004336
     atom    4 type  1   force =    -0.00000000    0.00000000   -0.00004336

     Total force =     0.001459     Total SCF correction =     0.000087


     Computing stress (Cartesian axis) and pressure



     -----------------------------------------------
     Non-local corr. energy    =       0.19498393 Ry
     -----------------------------------------------

          total   stress  (Ry/bohr**3)                   (kbar)     P=        0.58
   0.00000382   0.00000000   0.00000000            0.56        0.00        0.00
   0.00000000   0.00000382  -0.00000000            0.00        0.56       -0.00
  -0.00000000   0.00000000   0.00000423           -0.00        0.00        0.62

     kinetic stress (kbar)   8510.94      0.00     -0.00
                                0.00   8510.94      0.00
                               -0.00      0.00   9365.55

     local   stress (kbar) -52109.68      0.00     -0.00
                                0.00 -52109.68      0.00
                               -0.00      0.00  54668.51

     nonloc. stress (kbar)   -878.62     -0.00      0.00
                               -0.00   -878.62     -0.00
                                0.00     -0.00   -722.47

     hartree stress (kbar)  23441.94     -0.00     -0.00
                               -0.00  23441.94     -0.00
                               -0.00     -0.00 -22788.68

     exc-cor stress (kbar)   -678.52     -0.00      0.00
                               -0.00   -678.52      0.00
                                0.00      0.00   -791.35

     corecor stress (kbar)  -1289.93     -0.00     -0.00
                               -0.00  -1289.93      0.00
                               -0.00      0.00  -1253.33

     ewald   stress (kbar)  22998.62      0.00     -0.00
                                0.00  22998.62     -0.00
                               -0.00     -0.00 -38536.96

     hubbard stress (kbar)      0.00      0.00      0.00
                                0.00      0.00      0.00
                                0.00      0.00      0.00

     DFT-D   stress (kbar)      0.00      0.00      0.00
                                0.00      0.00      0.00
                                0.00      0.00      0.00

     XDM     stress (kbar)      0.00      0.00      0.00
                                0.00      0.00      0.00
                                0.00      0.00      0.00

     dft-nl  stress (kbar)      5.81      0.00     -0.00
                                0.00      5.81     -0.00
                               -0.00     -0.00     59.36

     TS-vdW  stress (kbar)      0.00      0.00      0.00
                                0.00      0.00      0.00
                                0.00      0.00      0.00


     Energy error            =      7.6E-06
     Gradient error          =      7.3E-04
     Cell gradient error     =      4.2E-06


     number of scf cycles    =  52
     number of bfgs steps    =  47

     enthalpy old            =     -48.2495768187 Ry
     enthalpy new            =     -48.2495844337 Ry

     CASE: enthalpy_new < enthalpy_old


     WARNING: bfgs curvature condition failed, Theta= 0.514
     new trust radius        =       0.0009490601 bohr
     new conv_thr            =       0.0000000100 Ry

     new unit-cell volume =    374.56222 a.u.^3 (    55.50439 Ang^3 )
     density =      1.43734 g/cm^3

CELL_PARAMETERS (alat=  4.62030000)
   1.006951962  -0.000000017  -0.000000000
  -0.503475995   0.872045971  -0.000000000
   0.000000000  -0.000000000   4.324792892

ATOMIC_POSITIONS (crystal)
C             0.0000000000        0.0000000000       -0.0367421072
C             0.3333333330        0.6666666670       -0.0367421072
C            -0.0000000000       -0.0000000000        0.2867421072
C             0.3333333330        0.6666666670        0.2867421072



     Writing output data file ./tmp/graphene.save/
     NEW-OLD atomic charge density approx. for the potential


     -----------------------------------------------
     Non-local corr. energy    =       0.19495359 Ry
     -----------------------------------------------

     extrapolated charge   15.99586, renormalised to   16.00000

     total cpu time spent up to now is       63.4 secs

     Self-consistent Calculation

     iteration #  1     ecut=    60.00 Ry     beta= 0.70
     Davidson diagonalization with overlap
     ethr =  1.00E-06,  avg # of iterations =  2.0

     Threshold (ethr) on eigenvalues was too large:
     Diagonalizing with lowered threshold

     Davidson diagonalization with overlap
     ethr =  2.95E-08,  avg # of iterations =  2.0


     -----------------------------------------------
     Non-local corr. energy    =       0.19502575 Ry
     -----------------------------------------------


     total cpu time spent up to now is       67.3 secs

     total energy              =     -48.24958009 Ry
     estimated scf accuracy    <       0.00000419 Ry

     iteration #  2     ecut=    60.00 Ry     beta= 0.70
     Davidson diagonalization with overlap
     ethr =  2.62E-08,  avg # of iterations =  3.2


     -----------------------------------------------
     Non-local corr. energy    =       0.19501324 Ry
     -----------------------------------------------


     total cpu time spent up to now is       69.8 secs

     total energy              =     -48.24958561 Ry
     estimated scf accuracy    <       0.00001629 Ry

     iteration #  3     ecut=    60.00 Ry     beta= 0.70
     Davidson diagonalization with overlap
     ethr =  2.62E-08,  avg # of iterations =  2.0


     -----------------------------------------------
     Non-local corr. energy    =       0.19499547 Ry
     -----------------------------------------------


     total cpu time spent up to now is       71.9 secs

     total energy              =     -48.24958614 Ry
     estimated scf accuracy    <       0.00000248 Ry

     iteration #  4     ecut=    60.00 Ry     beta= 0.70
     Davidson diagonalization with overlap
     ethr =  1.55E-08,  avg # of iterations =  2.0


     -----------------------------------------------
     Non-local corr. energy    =       0.19498616 Ry
     -----------------------------------------------


     total cpu time spent up to now is       73.7 secs

     total energy              =     -48.24958628 Ry
     estimated scf accuracy    <       0.00000032 Ry

     iteration #  5     ecut=    60.00 Ry     beta= 0.70
     Davidson diagonalization with overlap
     ethr =  2.00E-09,  avg # of iterations =  3.5


     -----------------------------------------------
     Non-local corr. energy    =       0.19498408 Ry
     -----------------------------------------------


     total cpu time spent up to now is       75.8 secs

     End of self-consistent calculation

          k = 0.0000 0.0000 0.0000 (  4005 PWs)   bands (ev):

   -16.7776 -16.6430  -5.2971  -4.3739  -0.2224  -0.2224  -0.2072  -0.2072

     occupation numbers 
     1.0000   1.0000   1.0000   1.0000   1.0000   1.0000   1.0000   1.0000

          k = 0.0000 0.0956 0.0000 (  4020 PWs)   bands (ev):

   -16.6127 -16.4795  -5.0974  -4.1795  -0.8762  -0.8563  -0.5630  -0.5464

     occupation numbers 
     1.0000   1.0000   1.0000   1.0000   1.0000   1.0000   1.0000   1.0000

          k = 0.0000 0.1911 0.0000 (  4038 PWs)   bands (ev):

   -16.1198 -15.9907  -4.5029  -3.6016  -2.5219  -2.4897  -1.3613  -1.3428

     occupation numbers 
     1.0000   1.0000   1.0000   1.0000   1.0000   1.0000   1.0000   1.0000

          k = 0.0000 0.2867 0.0000 (  4016 PWs)   bands (ev):

   -15.3047 -15.1820  -4.6302  -4.5836  -3.5316  -2.6605  -2.2482  -2.2269

     occupation numbers 
     1.0000   1.0000   1.0000   1.0000   1.0000   1.0000   1.0000   1.0000

          k = 0.0000 0.3822 0.0000 (  4040 PWs)   bands (ev):

   -14.1801 -14.0658  -6.8443  -6.7835  -2.9875  -2.9649  -2.2317  -1.4092

     occupation numbers 
     1.0000   1.0000   1.0000   1.0000   1.0000   1.0000   1.0000   1.0000

          k = 0.0000 0.4778 0.0000 (  4028 PWs)   bands (ev):

   -12.7769 -12.6725  -8.9554  -8.8810  -3.4644  -3.4409  -0.7606  -0.0157

     occupation numbers 
     1.0000   1.0000   1.0000   1.0000   1.0000   1.0000   1.0000   1.0000

          k =-0.0000-0.5734-0.0000 (  4024 PWs)   bands (ev):

   -11.5052 -11.4065 -10.4706 -10.3901  -3.6277  -3.6046   0.1299   0.7989

     occupation numbers 
     1.0000   1.0000   1.0000   1.0000   1.0000   1.0000   1.0000   1.0000

          k = 0.0828 0.1433-0.0000 (  4045 PWs)   bands (ev):

   -16.2838 -16.1534  -4.7001  -3.7931  -1.9157  -1.8885  -1.2447  -1.2247

     occupation numbers 
     1.0000   1.0000   1.0000   1.0000   1.0000   1.0000   1.0000   1.0000

          k = 0.0828 0.2389 0.0000 (  4025 PWs)   bands (ev):

   -15.6298 -15.5046  -3.9164  -3.6331  -3.5944  -3.0323  -2.2489  -2.2243

     occupation numbers 
     1.0000   1.0000   1.0000   1.0000   1.0000   1.0000   1.0000   1.0000

          k = 0.0828 0.3345 0.0000 (  4029 PWs)   bands (ev):

   -14.6598 -14.5420  -5.7160  -5.6631  -3.1419  -3.1143  -2.7744  -1.9293

     occupation numbers 
     1.0000   1.0000   1.0000   1.0000   1.0000   1.0000   1.0000   1.0000

          k = 0.0828 0.4300 0.0000 (  4009 PWs)   bands (ev):

   -13.3926 -13.2843  -7.8491  -7.7822  -3.7814  -3.7526  -1.3559  -0.5718

     occupation numbers 
     1.0000   1.0000   1.0000   1.0000   1.0000   1.0000   1.0000   1.0000

          k = 0.0828 0.5256 0.0000 (  4026 PWs)   bands (ev):

   -11.9052 -11.8063  -9.8014  -9.7225  -4.1128  -4.0829   0.0092   0.7022

     occupation numbers 
     1.0000   1.0000   1.0000   1.0000   1.0000   1.0000   1.0000   1.0000

          k = 0.1655 0.2867-0.0000 (  4032 PWs)   bands (ev):

   -14.8210 -14.7020  -4.9700  -4.9234  -3.6180  -3.5838  -2.9579  -2.1054

     occupation numbers 
     1.0000   1.0000   1.0000   1.0000   1.0000   1.0000   1.0000   1.0000

          k = 0.1655 0.3822-0.0000 (  4020 PWs)   bands (ev):

   -13.7071 -13.5965  -6.7055  -6.6466  -4.6802  -4.6402  -1.6732  -0.8694

     occupation numbers 
     1.0000   1.0000   1.0000   1.0000   1.0000   1.0000   1.0000   1.0000

          k = 0.1655 0.4778 0.0000 (  4002 PWs)   bands (ev):

   -12.3237 -12.2233  -8.6256  -8.5541  -5.2594  -5.2174  -0.2002   0.5303

     occupation numbers 
     1.0000   1.0000   1.0000   1.0000   1.0000   1.0000   1.0000   1.0000

          k = 0.1655 0.5734 0.0000 (  4032 PWs)   bands (ev):

   -11.0821 -10.9876 -10.0695  -9.9904  -5.4462  -5.4034   0.7365   1.3947

     occupation numbers 
     1.0000   1.0000   1.0000   1.0000   1.0000   1.0000   1.0000   1.0000

          k = 0.2483 0.4300-0.0000 (  3996 PWs)   bands (ev):

   -12.4723 -12.3711  -7.7454  -7.6797  -6.1705  -6.1206  -0.2927   0.4525

     occupation numbers 
     1.0000   1.0000   1.0000   1.0000   1.0000   1.0000   1.0000   1.0000

          k = 0.2483 0.5256-0.0000 (  4003 PWs)   bands (ev):

   -11.0422 -10.9505  -9.1736  -9.0980  -6.8819  -6.8277   1.1406   1.8104

     occupation numbers 
     1.0000   1.0000   1.0000   1.0000   1.0000   1.0000   1.0000   1.0000

          k = 0.3310 0.5734-0.0000 (  3942 PWs)   bands (ev):

    -9.8177  -9.8177  -9.7349  -9.7349  -7.7832  -7.7246   2.5278   2.5278

     occupation numbers 
     1.0000   1.0000   1.0000   1.0000   1.0000   1.0000   1.0000   1.0000

     the Fermi energy is     2.6531 ev

!    total energy              =     -48.24958637 Ry
     estimated scf accuracy    <          4.8E-09 Ry
     smearing contrib. (-TS)   =       0.00004531 Ry
     internal energy E=F+TS    =     -48.24963168 Ry

     The total energy is F=E-TS. E is the sum of the following terms:
     one-electron contribution =    -111.34330213 Ry
     hartree contribution      =      61.34809025 Ry
     xc contribution           =     -17.23409395 Ry
     ewald contribution        =      18.97967414 Ry

     convergence has been achieved in   5 iterations


     -----------------------------------------------
     Non-local corr. energy    =       0.19498408 Ry
     -----------------------------------------------


     Forces acting on atoms (cartesian axes, Ry/au):

     atom    1 type  1   force =    -0.00000000   -0.00000000   -0.00070352
     atom    2 type  1   force =     0.00000000   -0.00000000   -0.00070352
     atom    3 type  1   force =     0.00000000    0.00000000    0.00070352
     atom    4 type  1   force =     0.00000000    0.00000000    0.00070352
     The non-local contrib.  to forces
     atom    1 type  1   force =    -0.00000000   -0.00000000   -0.00105408
     atom    2 type  1   force =     0.00000000    0.00000000   -0.00105408
     atom    3 type  1   force =    -0.00000000   -0.00000000    0.00105408
     atom    4 type  1   force =    -0.00000000   -0.00000000    0.00105408
     The ionic contribution  to forces
     atom    1 type  1   force =     0.00000028   -0.00000016   -7.57464763
     atom    2 type  1   force =    -0.00000028    0.00000016   -7.57464763
     atom    3 type  1   force =     0.00000028   -0.00000016    7.57464763
     atom    4 type  1   force =    -0.00000028    0.00000016    7.57464763
     The local contribution  to forces
     atom    1 type  1   force =    -0.00000013    0.00000007    7.57502430
     atom    2 type  1   force =     0.00000014   -0.00000008    7.57502430
     atom    3 type  1   force =    -0.00000013    0.00000007   -7.57502430
     atom    4 type  1   force =     0.00000014   -0.00000008   -7.57502430
     The core correction contribution to forces
     atom    1 type  1   force =    -0.00000000    0.00000000   -0.00000369
     atom    2 type  1   force =     0.00000000   -0.00000000   -0.00000369
     atom    3 type  1   force =    -0.00000000    0.00000000    0.00000369
     atom    4 type  1   force =     0.00000000   -0.00000000    0.00000369
     The Hubbard contrib.    to forces
     atom    1 type  1   force =     0.00000000    0.00000000    0.00000000
     atom    2 type  1   force =     0.00000000    0.00000000    0.00000000
     atom    3 type  1   force =     0.00000000    0.00000000    0.00000000
     atom    4 type  1   force =     0.00000000    0.00000000    0.00000000
     The SCF correction term to forces
     atom    1 type  1   force =    -0.00000000    0.00000000   -0.00002243
     atom    2 type  1   force =     0.00000000   -0.00000000   -0.00002243
     atom    3 type  1   force =    -0.00000000    0.00000000    0.00002243
     atom    4 type  1   force =     0.00000000   -0.00000000    0.00002243

     Total force =     0.001407     Total SCF correction =     0.000045


     Computing stress (Cartesian axis) and pressure



     -----------------------------------------------
     Non-local corr. energy    =       0.19498408 Ry
     -----------------------------------------------

          total   stress  (Ry/bohr**3)                   (kbar)     P=        1.12
   0.00000985   0.00000000  -0.00000000            1.45        0.00       -0.00
   0.00000000   0.00000985   0.00000000            0.00        1.45        0.00
  -0.00000000   0.00000000   0.00000322           -0.00        0.00        0.47

     kinetic stress (kbar)   8514.24      0.00     -0.00
                                0.00   8514.24      0.00
                               -0.00      0.00   9368.46

     local   stress (kbar) -52108.93      0.00      0.00
                                0.00 -52108.93     -0.00
                                0.00     -0.00  54670.05

     nonloc. stress (kbar)   -879.14     -0.00      0.00
                               -0.00   -879.14     -0.00
                                0.00     -0.00   -722.80

     hartree stress (kbar)  23440.49     -0.00     -0.00
                               -0.00  23440.49      0.00
                               -0.00      0.00 -22787.20

     exc-cor stress (kbar)   -678.79     -0.00      0.00
                               -0.00   -678.79      0.00
                                0.00      0.00   -791.66

     corecor stress (kbar)  -1290.30     -0.00     -0.00
                               -0.00  -1290.30     -0.00
                               -0.00     -0.00  -1253.67

     ewald   stress (kbar)  22998.07      0.00      0.00
                                0.00  22998.07     -0.00
                                0.00     -0.00 -38542.08

     hubbard stress (kbar)      0.00      0.00      0.00
                                0.00      0.00      0.00
                                0.00      0.00      0.00

     DFT-D   stress (kbar)      0.00      0.00      0.00
                                0.00      0.00      0.00
                                0.00      0.00      0.00

     XDM     stress (kbar)      0.00      0.00      0.00
                                0.00      0.00      0.00
                                0.00      0.00      0.00

     dft-nl  stress (kbar)      5.81      0.00     -0.00
                                0.00      5.81      0.00
                               -0.00      0.00     59.38

     TS-vdW  stress (kbar)      0.00      0.00      0.00
                                0.00      0.00      0.00
                                0.00      0.00      0.00


     Energy error            =      1.9E-06
     Gradient error          =      7.0E-04
     Cell gradient error     =      9.8E-06


     number of scf cycles    =  53
     number of bfgs steps    =  48

     enthalpy old            =     -48.2495844337 Ry
     enthalpy new            =     -48.2495863743 Ry

     CASE: enthalpy_new < enthalpy_old

     new trust radius        =       0.0014235249 bohr
     new conv_thr            =       0.0000000100 Ry

     new unit-cell volume =    374.37561 a.u.^3 (    55.47674 Ang^3 )
     density =      1.43806 g/cm^3

CELL_PARAMETERS (alat=  4.62030000)
   1.006886257  -0.000000017  -0.000000000
  -0.503443143   0.871989069  -0.000000000
   0.000000000  -0.000000000   4.323202375

ATOMIC_POSITIONS (crystal)
C             0.0000000000       -0.0000000000       -0.0367872120
C             0.3333333330        0.6666666670       -0.0367872120
C            -0.0000000000       -0.0000000000        0.2867872120
C             0.3333333330        0.6666666670        0.2867872120



     Writing output data file ./tmp/graphene.save/
     NEW-OLD atomic charge density approx. for the potential


     -----------------------------------------------
     Non-local corr. energy    =       0.19491542 Ry
     -----------------------------------------------

     extrapolated charge   15.99202, renormalised to   16.00000

     total cpu time spent up to now is       83.8 secs

     Self-consistent Calculation

     iteration #  1     ecut=    60.00 Ry     beta= 0.70
     Davidson diagonalization with overlap
     ethr =  1.00E-06,  avg # of iterations =  2.0

     Threshold (ethr) on eigenvalues was too large:
     Diagonalizing with lowered threshold

     Davidson diagonalization with overlap
     ethr =  9.51E-08,  avg # of iterations =  1.0


     -----------------------------------------------
     Non-local corr. energy    =       0.19504933 Ry
     -----------------------------------------------


     total cpu time spent up to now is       87.3 secs

     total energy              =     -48.24956433 Ry
     estimated scf accuracy    <       0.00001531 Ry

     iteration #  2     ecut=    60.00 Ry     beta= 0.70
     Davidson diagonalization with overlap
     ethr =  9.57E-08,  avg # of iterations =  3.3


     -----------------------------------------------
     Non-local corr. energy    =       0.19502668 Ry
     -----------------------------------------------


     total cpu time spent up to now is       89.7 secs

     total energy              =     -48.24958451 Ry
     estimated scf accuracy    <       0.00006498 Ry

     iteration #  3     ecut=    60.00 Ry     beta= 0.70
     Davidson diagonalization with overlap
     ethr =  9.57E-08,  avg # of iterations =  2.1


     -----------------------------------------------
     Non-local corr. energy    =       0.19499995 Ry
     -----------------------------------------------


     total cpu time spent up to now is       91.6 secs

     total energy              =     -48.24958728 Ry
     estimated scf accuracy    <       0.00000957 Ry

     iteration #  4     ecut=    60.00 Ry     beta= 0.70
     Davidson diagonalization with overlap
     ethr =  5.98E-08,  avg # of iterations =  2.0


     -----------------------------------------------
     Non-local corr. energy    =       0.19497933 Ry
     -----------------------------------------------


     total cpu time spent up to now is       93.4 secs

     total energy              =     -48.24958720 Ry
     estimated scf accuracy    <       0.00000209 Ry

     iteration #  5     ecut=    60.00 Ry     beta= 0.70
     Davidson diagonalization with overlap
     ethr =  1.30E-08,  avg # of iterations =  3.0


     -----------------------------------------------
     Non-local corr. energy    =       0.19498125 Ry
     -----------------------------------------------


     total cpu time spent up to now is       95.5 secs

     total energy              =     -48.24958770 Ry
     estimated scf accuracy    <       0.00000005 Ry

     iteration #  6     ecut=    60.00 Ry     beta= 0.70
     Davidson diagonalization with overlap
     ethr =  3.18E-10,  avg # of iterations =  4.1


     -----------------------------------------------
     Non-local corr. energy    =       0.19497825 Ry
     -----------------------------------------------


     total cpu time spent up to now is       97.8 secs

     total energy              =     -48.24958774 Ry
     estimated scf accuracy    <       0.00000009 Ry

     iteration #  7     ecut=    60.00 Ry     beta= 0.70
     Davidson diagonalization with overlap
     ethr =  3.18E-10,  avg # of iterations =  2.0


     -----------------------------------------------
     Non-local corr. energy    =       0.19497475 Ry
     -----------------------------------------------


     total cpu time spent up to now is       99.9 secs

     total energy              =     -48.24958767 Ry
     estimated scf accuracy    <       0.00000014 Ry

     iteration #  8     ecut=    60.00 Ry     beta= 0.70
     Davidson diagonalization with overlap
     ethr =  3.18E-10,  avg # of iterations =  2.1


     -----------------------------------------------
     Non-local corr. energy    =       0.19497529 Ry
     -----------------------------------------------


     total cpu time spent up to now is      101.9 secs

     End of self-consistent calculation

          k = 0.0000 0.0000 0.0000 (  4005 PWs)   bands (ev):

   -16.7757 -16.6411  -5.2951  -4.3715  -0.2190  -0.2190  -0.2038  -0.2038

     occupation numbers 
     1.0000   1.0000   1.0000   1.0000   1.0000   1.0000   1.0000   1.0000

          k = 0.0000 0.0956 0.0000 (  4020 PWs)   bands (ev):

   -16.6108 -16.4776  -5.0953  -4.1770  -0.8728  -0.8528  -0.5596  -0.5430

     occupation numbers 
     1.0000   1.0000   1.0000   1.0000   1.0000   1.0000   1.0000   1.0000

          k = 0.0000 0.1911 0.0000 (  4038 PWs)   bands (ev):

   -16.1179 -15.9887  -4.5008  -3.5991  -2.5186  -2.4864  -1.3581  -1.3395

     occupation numbers 
     1.0000   1.0000   1.0000   1.0000   1.0000   1.0000   1.0000   1.0000

          k = 0.0000 0.2867 0.0000 (  4016 PWs)   bands (ev):

   -15.3027 -15.1799  -4.6271  -4.5805  -3.5293  -2.6579  -2.2451  -2.2238

     occupation numbers 
     1.0000   1.0000   1.0000   1.0000   1.0000   1.0000   1.0000   1.0000

          k = 0.0000 0.3823 0.0000 (  4040 PWs)   bands (ev):

   -14.1780 -14.0636  -6.8414  -6.7807  -2.9846  -2.9619  -2.2292  -1.4063

     occupation numbers 
     1.0000   1.0000   1.0000   1.0000   1.0000   1.0000   1.0000   1.0000

          k = 0.0000 0.4778 0.0000 (  4028 PWs)   bands (ev):

   -12.7746 -12.6701  -8.9528  -8.8784  -3.4615  -3.4381  -0.7578  -0.0126

     occupation numbers 
     1.0000   1.0000   1.0000   1.0000   1.0000   1.0000   1.0000   1.0000

          k =-0.0000-0.5734-0.0000 (  4024 PWs)   bands (ev):

   -11.5025 -11.4037 -10.4685 -10.3879  -3.6249  -3.6017   0.1329   0.8022

     occupation numbers 
     1.0000   1.0000   1.0000   1.0000   1.0000   1.0000   1.0000   1.0000

          k = 0.0828 0.1434-0.0000 (  4045 PWs)   bands (ev):

   -16.2819 -16.1514  -4.6980  -3.7907  -1.9123  -1.8852  -1.2414  -1.2214

     occupation numbers 
     1.0000   1.0000   1.0000   1.0000   1.0000   1.0000   1.0000   1.0000

          k = 0.0828 0.2389 0.0000 (  4025 PWs)   bands (ev):

   -15.6279 -15.5026  -3.9141  -3.6299  -3.5912  -3.0297  -2.2458  -2.2212

     occupation numbers 
     1.0000   1.0000   1.0000   1.0000   1.0000   1.0000   1.0000   1.0000

          k = 0.0828 0.3345 0.0000 (  4029 PWs)   bands (ev):

   -14.6578 -14.5399  -5.7130  -5.6601  -3.1389  -3.1114  -2.7720  -1.9265

     occupation numbers 
     1.0000   1.0000   1.0000   1.0000   1.0000   1.0000   1.0000   1.0000

          k = 0.0828 0.4301 0.0000 (  4009 PWs)   bands (ev):

   -13.3903 -13.2820  -7.8464  -7.7794  -3.7786  -3.7497  -1.3532  -0.5687

     occupation numbers 
     1.0000   1.0000   1.0000   1.0000   1.0000   1.0000   1.0000   1.0000

          k = 0.0828 0.5256 0.0000 (  4026 PWs)   bands (ev):

   -11.9027 -11.8038  -9.7990  -9.7200  -4.1100  -4.0801   0.0121   0.7055

     occupation numbers 
     1.0000   1.0000   1.0000   1.0000   1.0000   1.0000   1.0000   1.0000

          k = 0.1655 0.2867-0.0000 (  4032 PWs)   bands (ev):

   -14.8189 -14.6998  -4.9668  -4.9202  -3.6152  -3.5810  -2.9555  -2.1027

     occupation numbers 
     1.0000   1.0000   1.0000   1.0000   1.0000   1.0000   1.0000   1.0000

          k = 0.1655 0.3823-0.0000 (  4020 PWs)   bands (ev):

   -13.7049 -13.5943  -6.7025  -6.6436  -4.6775  -4.6375  -1.6705  -0.8664

     occupation numbers 
     1.0000   1.0000   1.0000   1.0000   1.0000   1.0000   1.0000   1.0000

          k = 0.1655 0.4778 0.0000 (  4002 PWs)   bands (ev):

   -12.3214 -12.2209  -8.6229  -8.5514  -5.2567  -5.2147  -0.1973   0.5335

     occupation numbers 
     1.0000   1.0000   1.0000   1.0000   1.0000   1.0000   1.0000   1.0000

          k = 0.1655 0.5734 0.0000 (  4032 PWs)   bands (ev):

   -11.0793 -10.9848 -10.0673  -9.9881  -5.4435  -5.4007   0.7396   1.3981

     occupation numbers 
     1.0000   1.0000   1.0000   1.0000   1.0000   1.0000   1.0000   1.0000

          k = 0.2483 0.4301-0.0000 (  3996 PWs)   bands (ev):

   -12.4699 -12.3687  -7.7425  -7.6767  -6.1681  -6.1182  -0.2898   0.4557

     occupation numbers 
     1.0000   1.0000   1.0000   1.0000   1.0000   1.0000   1.0000   1.0000

          k = 0.2483 0.5256-0.0000 (  4003 PWs)   bands (ev):

   -11.0396 -10.9479  -9.1709  -9.0953  -6.8796  -6.8253   1.1438   1.8138

     occupation numbers 
     1.0000   1.0000   1.0000   1.0000   1.0000   1.0000   1.0000   1.0000

          k = 0.3311 0.5734-0.0000 (  3942 PWs)   bands (ev):

    -9.8149  -9.8149  -9.7320  -9.7320  -7.7813  -7.7227   2.5312   2.5312

     occupation numbers 
     1.0000   1.0000   1.0000   1.0000   1.0000   1.0000   1.0000   1.0000

     the Fermi energy is     2.6565 ev

!    total energy              =     -48.24958770 Ry
     estimated scf accuracy    <          9.4E-10 Ry
     smearing contrib. (-TS)   =       0.00004531 Ry
     internal energy E=F+TS    =     -48.24963300 Ry

     The total energy is F=E-TS. E is the sum of the following terms:
     one-electron contribution =    -111.23501596 Ry
     hartree contribution      =      61.29618730 Ry
     xc contribution           =     -17.23473119 Ry
     ewald contribution        =      18.92392684 Ry

     convergence has been achieved in   8 iterations


     -----------------------------------------------
     Non-local corr. energy    =       0.19497529 Ry
     -----------------------------------------------


     Forces acting on atoms (cartesian axes, Ry/au):

     atom    1 type  1   force =     0.00000000    0.00000000   -0.00069077
     atom    2 type  1   force =    -0.00000000   -0.00000000   -0.00069077
     atom    3 type  1   force =    -0.00000000   -0.00000000    0.00069077
     atom    4 type  1   force =     0.00000000   -0.00000000    0.00069077
     The non-local contrib.  to forces
     atom    1 type  1   force =     0.00000000   -0.00000000   -0.00100703
     atom    2 type  1   force =    -0.00000000    0.00000000   -0.00100703
     atom    3 type  1   force =     0.00000000    0.00000000    0.00100703
     atom    4 type  1   force =    -0.00000000    0.00000000    0.00100703
     The ionic contribution  to forces
     atom    1 type  1   force =     0.00000028   -0.00000016   -7.57176567
     atom    2 type  1   force =    -0.00000028    0.00000016   -7.57176567
     atom    3 type  1   force =     0.00000028   -0.00000016    7.57176567
     atom    4 type  1   force =    -0.00000028    0.00000016    7.57176567
     The local contribution  to forces
     atom    1 type  1   force =    -0.00000013    0.00000007    7.57202937
     atom    2 type  1   force =     0.00000014   -0.00000008    7.57202937
     atom    3 type  1   force =    -0.00000013    0.00000007   -7.57202937
     atom    4 type  1   force =     0.00000014   -0.00000008   -7.57202937
     The core correction contribution to forces
     atom    1 type  1   force =    -0.00000000    0.00000000   -0.00000702
     atom    2 type  1   force =     0.00000000   -0.00000000   -0.00000702
     atom    3 type  1   force =    -0.00000000    0.00000000    0.00000702
     atom    4 type  1   force =     0.00000000   -0.00000000    0.00000702
     The Hubbard contrib.    to forces
     atom    1 type  1   force =     0.00000000    0.00000000    0.00000000
     atom    2 type  1   force =     0.00000000    0.00000000    0.00000000
     atom    3 type  1   force =     0.00000000    0.00000000    0.00000000
[...]
        k(   19) = (   0.3308707   0.5730849   0.0000000), wk =   0.0277778

                       cryst. coord.
        k(    1) = (   0.0000000   0.0000000   0.0000000), wk =   0.0138889
        k(    2) = (  -0.0000000   0.0833333   0.0000000), wk =   0.0833333
        k(    3) = (  -0.0000000   0.1666667   0.0000000), wk =   0.0833333
        k(    4) = (   0.0000000   0.2500000   0.0000000), wk =   0.0833333
        k(    5) = (  -0.0000000   0.3333333   0.0000000), wk =   0.0833333
        k(    6) = (  -0.0000000   0.4166667   0.0000000), wk =   0.0833333
        k(    7) = (  -0.0000000  -0.5000000  -0.0000000), wk =   0.0416667
        k(    8) = (   0.0833333   0.0833333   0.0000000), wk =   0.0833333
        k(    9) = (   0.0833333   0.1666667   0.0000000), wk =   0.1666667
        k(   10) = (   0.0833333   0.2500000   0.0000000), wk =   0.1666667
        k(   11) = (   0.0833333   0.3333333  -0.0000000), wk =   0.1666667
        k(   12) = (   0.0833333   0.4166667   0.0000000), wk =   0.1666667
        k(   13) = (   0.1666667   0.1666667   0.0000000), wk =   0.0833333
        k(   14) = (   0.1666667   0.2500000   0.0000000), wk =   0.1666667
        k(   15) = (   0.1666667   0.3333333   0.0000000), wk =   0.1666667
        k(   16) = (   0.1666667   0.4166667  -0.0000000), wk =   0.0833333
        k(   17) = (   0.2500000   0.2500000  -0.0000000), wk =   0.0833333
        k(   18) = (   0.2500000   0.3333333  -0.0000000), wk =   0.1666667
        k(   19) = (   0.3333333   0.3333333   0.0000000), wk =   0.0277778

     Dense  grid:    17051 G-vectors     FFT dimensions: (  24,  24,  72)

     Dynamical RAM for                 wfc:       0.26 MB

     Dynamical RAM for     wfc (w. buffer):       1.56 MB

     Dynamical RAM for           str. fact:       0.26 MB

     Dynamical RAM for           local pot:       0.25 MB

     Dynamical RAM for          nlocal pot:       1.04 MB

     Dynamical RAM for                qrad:       0.71 MB

     Dynamical RAM for          rho,v,vnew:       1.73 MB

     Dynamical RAM for               rhoin:       0.58 MB

     Dynamical RAM for            rho*nmix:       4.16 MB

     Dynamical RAM for           G-vectors:       1.11 MB

     Dynamical RAM for          h,s,v(r/c):       0.01 MB

     Dynamical RAM for          <psi|beta>:       0.00 MB

     Dynamical RAM for                 psi:       0.52 MB

     Dynamical RAM for                hpsi:       0.52 MB

     Dynamical RAM for      wfcinit/wfcrot:       1.04 MB

     Estimated static dynamical RAM per process >      13.49 MB

     Estimated max dynamical RAM per process >      14.54 MB

     Estimated total dynamical RAM >      58.16 MB

     Atomic positions and unit cell read from directory:
     ./tmp/graphene.save/


     Initial potential from superposition of free atoms

     starting charge   15.99982, renormalised to   16.00000


     -----------------------------------------------
     Non-local corr. energy    =       0.16381490 Ry
     -----------------------------------------------

     Starting wfcs are   16 randomized atomic wfcs

     total cpu time spent up to now is      803.2 secs

     Self-consistent Calculation

     iteration #  1     ecut=    60.00 Ry     beta= 0.70
     Davidson diagonalization with overlap
     ethr =  1.00E-06,  avg # of iterations = 10.3


     -----------------------------------------------
     Non-local corr. energy    =       0.19192086 Ry
     -----------------------------------------------


     total cpu time spent up to now is      806.3 secs

     total energy              =     -48.18117669 Ry
     estimated scf accuracy    <       0.39318967 Ry

     iteration #  2     ecut=    60.00 Ry     beta= 0.70
     Davidson diagonalization with overlap
     ethr =  2.46E-03,  avg # of iterations =  2.0


     -----------------------------------------------
     Non-local corr. energy    =       0.19092780 Ry
     -----------------------------------------------


     total cpu time spent up to now is      807.4 secs

     total energy              =     -48.24428705 Ry
     estimated scf accuracy    <       0.00489683 Ry

     iteration #  3     ecut=    60.00 Ry     beta= 0.70
     Davidson diagonalization with overlap
     ethr =  3.06E-05,  avg # of iterations =  1.6


     -----------------------------------------------
     Non-local corr. energy    =       0.19074032 Ry
     -----------------------------------------------


     total cpu time spent up to now is      808.4 secs

     total energy              =     -48.24477729 Ry
     estimated scf accuracy    <       0.00046214 Ry

     iteration #  4     ecut=    60.00 Ry     beta= 0.70
     Davidson diagonalization with overlap
     ethr =  2.89E-06,  avg # of iterations =  2.5


     -----------------------------------------------
     Non-local corr. energy    =       0.19095249 Ry
     -----------------------------------------------


     total cpu time spent up to now is      809.5 secs

     total energy              =     -48.24487747 Ry
     estimated scf accuracy    <       0.00001027 Ry

     iteration #  5     ecut=    60.00 Ry     beta= 0.70
     Davidson diagonalization with overlap
     ethr =  6.42E-08,  avg # of iterations =  4.8


     -----------------------------------------------
     Non-local corr. energy    =       0.19096184 Ry
     -----------------------------------------------


     total cpu time spent up to now is      811.2 secs

     total energy              =     -48.24489269 Ry
     estimated scf accuracy    <       0.00000031 Ry

     iteration #  6     ecut=    60.00 Ry     beta= 0.70
     Davidson diagonalization with overlap
     ethr =  1.92E-09,  avg # of iterations =  4.5


     -----------------------------------------------
     Non-local corr. energy    =       0.19096146 Ry
     -----------------------------------------------


     total cpu time spent up to now is      812.9 secs

     total energy              =     -48.24489298 Ry
     estimated scf accuracy    <       0.00000005 Ry

     iteration #  7     ecut=    60.00 Ry     beta= 0.70
     Davidson diagonalization with overlap
     ethr =  3.41E-10,  avg # of iterations =  2.5


     -----------------------------------------------
     Non-local corr. energy    =       0.19095989 Ry
     -----------------------------------------------


     total cpu time spent up to now is      814.1 secs

     End of self-consistent calculation

          k = 0.0000 0.0000 0.0000 (  2123 PWs)   bands (ev):

   -13.9606 -13.8510  -2.5466  -1.5100   2.5741   2.5741   2.5878   2.5878

     occupation numbers 
     1.0000   1.0000   1.0000   1.0000   1.0000   1.0000   1.0000   1.0000

          k = 0.0000 0.0955 0.0000 (  2136 PWs)   bands (ev):

   -13.7958 -13.6880  -2.3461  -1.3161   1.9218   1.9372   2.2339   2.2478

     occupation numbers 
     1.0000   1.0000   1.0000   1.0000   1.0000   1.0000   1.0000   1.0000

          k = 0.0000 0.1910 0.0000 (  2128 PWs)   bands (ev):

   -13.3034 -13.1995  -1.7495  -0.7405   0.2814   0.3012   1.4384   1.4531

     occupation numbers 
     1.0000   1.0000   1.0000   1.0000   1.0000   1.0000   1.0000   1.0000

          k = 0.0000 0.2865 0.0000 (  2124 PWs)   bands (ev):

   -12.4891 -12.3911  -1.8245  -1.7938  -0.7734   0.1949   0.5556   0.5679

     occupation numbers 
     1.0000   1.0000   1.0000   1.0000   1.0000   1.0000   1.0000   1.0000

          k = 0.0000 0.3821 0.0000 (  2134 PWs)   bands (ev):

   -11.3659 -11.2760  -4.0380  -3.9920  -0.1834  -0.1690   0.5334   1.4362

     occupation numbers 
     1.0000   1.0000   1.0000   1.0000   1.0000   1.0000   1.0000   1.0000

          k = 0.0000 0.4776 0.0000 (  2124 PWs)   bands (ev):

    -9.9640  -9.8832  -6.1457  -6.0902  -0.6592  -0.6441   2.0193   2.8139

     occupation numbers 
     1.0000   1.0000   1.0000   1.0000   1.0000   1.0000   1.0000   1.0000

          k =-0.0000-0.5731-0.0000 (  2120 PWs)   bands (ev):

    -8.6948  -8.6194  -7.6597  -7.5961  -0.8229  -0.8070   2.9262   3.6132

     occupation numbers 
     1.0000   1.0000   1.0000   1.0000   1.0000   1.0000   1.0000   1.0000

          k = 0.0827 0.1433 0.0000 (  2119 PWs)   bands (ev):

   -13.4670 -13.3620  -1.9474  -0.9309   0.8878   0.9028   1.5563   1.5701

     occupation numbers 
     1.0000   1.0000   1.0000   1.0000   1.0000   1.0000   1.0000   1.0000

          k = 0.0827 0.2388 0.0000 (  2114 PWs)   bands (ev):

   -12.8139 -12.7135  -1.1597  -0.8286  -0.8029  -0.1749   0.5540   0.5705

     occupation numbers 
     1.0000   1.0000   1.0000   1.0000   1.0000   1.0000   1.0000   1.0000

          k = 0.0827 0.3343 0.0000 (  2125 PWs)   bands (ev):

   -11.8450 -11.7515  -2.9102  -2.8724  -0.3382  -0.3195  -0.0122   0.9207

     occupation numbers 
     1.0000   1.0000   1.0000   1.0000   1.0000   1.0000   1.0000   1.0000

          k = 0.0827 0.4298 0.0000 (  2127 PWs)   bands (ev):

   -10.5795 -10.4946  -5.0414  -4.9914  -0.9767  -0.9575   1.4170   2.2655

     occupation numbers 
     1.0000   1.0000   1.0000   1.0000   1.0000   1.0000   1.0000   1.0000

          k = 0.0827 0.5253 0.0000 (  2123 PWs)   bands (ev):

    -9.0931  -9.0181  -6.9906  -6.9308  -1.3070  -1.2878   2.7992   3.5219

     occupation numbers 
     1.0000   1.0000   1.0000   1.0000   1.0000   1.0000   1.0000   1.0000

          k = 0.1654 0.2865 0.0000 (  2128 PWs)   bands (ev):

   -12.0060 -11.9113  -2.1654  -2.1338  -0.8118  -0.7895  -0.1974   0.7452

     occupation numbers 
     1.0000   1.0000   1.0000   1.0000   1.0000   1.0000   1.0000   1.0000

          k = 0.1654 0.3821 0.0000 (  2124 PWs)   bands (ev):

   -10.8933 -10.8066  -3.8989  -3.8571  -1.8735  -1.8462   1.0958   1.9721

     occupation numbers 
     1.0000   1.0000   1.0000   1.0000   1.0000   1.0000   1.0000   1.0000

          k = 0.1654 0.4776 0.0000 (  2128 PWs)   bands (ev):

    -9.5116  -9.4344  -5.8178  -5.7633  -2.4531  -2.4234   2.5820   3.3568

     occupation numbers 
     1.0000   1.0000   1.0000   1.0000   1.0000   1.0000   1.0000   1.0000

          k = 0.1654 0.5731 0.0000 (  2116 PWs)   bands (ev):

    -8.2714  -8.2007  -7.2573  -7.1980  -2.6393  -2.6076   3.5326   4.2079

     occupation numbers 
     1.0000   1.0000   1.0000   1.0000   1.0000   1.0000   1.0000   1.0000

          k = 0.2482 0.4298 0.0000 (  2116 PWs)   bands (ev):

    -9.6597  -9.5823  -4.9385  -4.8902  -3.3622  -3.3254   2.4851   3.2829

     occupation numbers 
     1.0000   1.0000   1.0000   1.0000   1.0000   1.0000   1.0000   1.0000

          k = 0.2482 0.5253 0.0000 (  2115 PWs)   bands (ev):

    -8.2314  -8.1628  -6.3651  -6.3088  -4.0730  -4.0327   3.9334   4.6274

     occupation numbers 
     1.0000   1.0000   1.0000   1.0000   1.0000   1.0000   1.0000   1.0000

          k = 0.3309 0.5731 0.0000 (  2124 PWs)   bands (ev):

    -7.0100  -7.0100  -6.9486  -6.9486  -4.9734  -4.9270   5.3275   5.3275

     occupation numbers 
     1.0000   1.0000   1.0000   1.0000   1.0000   1.0000   1.0000   1.0000

     the Fermi energy is     5.4529 ev

!    total energy              =     -48.24489300 Ry
     estimated scf accuracy    <          4.1E-09 Ry
     smearing contrib. (-TS)   =       0.00004531 Ry
     internal energy E=F+TS    =     -48.24493830 Ry

     The total energy is F=E-TS. E is the sum of the following terms:
     one-electron contribution =     -21.44846539 Ry
     hartree contribution      =      18.04530326 Ry
     xc contribution           =     -17.22993789 Ry
     ewald contribution        =     -27.61183828 Ry

     convergence has been achieved in   7 iterations


     -----------------------------------------------
     Non-local corr. energy    =       0.19095989 Ry
     -----------------------------------------------


     Forces acting on atoms (cartesian axes, Ry/au):

     atom    1 type  1   force =     0.00000000    0.00000000    0.00001798
     atom    2 type  1   force =    -0.00000000   -0.00000000    0.00001798
     atom    3 type  1   force =    -0.00000000   -0.00000000   -0.00001798
     atom    4 type  1   force =    -0.00000000   -0.00000000   -0.00001798
     The non-local contrib.  to forces
     atom    1 type  1   force =    -0.00000000    0.00000000   -0.00000406
     atom    2 type  1   force =     0.00000000    0.00000000   -0.00000406
     atom    3 type  1   force =    -0.00000000    0.00000000    0.00000406
     atom    4 type  1   force =     0.00000000   -0.00000000    0.00000406
     The ionic contribution  to forces
     atom    1 type  1   force =     0.00000027   -0.00000015    0.01560921
     atom    2 type  1   force =    -0.00000027    0.00000015    0.01560921
     atom    3 type  1   force =     0.00000027   -0.00000015   -0.01560921
     atom    4 type  1   force =    -0.00000027    0.00000015   -0.01560921
     The local contribution  to forces
     atom    1 type  1   force =    -0.00000012    0.00000007   -0.01562562
     atom    2 type  1   force =     0.00000013   -0.00000008   -0.01562562
     atom    3 type  1   force =    -0.00000012    0.00000007    0.01562562
     atom    4 type  1   force =     0.00000013   -0.00000008    0.01562562
     The core correction contribution to forces
     atom    1 type  1   force =    -0.00000000    0.00000000    0.00000045
     atom    2 type  1   force =     0.00000000   -0.00000000    0.00000045
     atom    3 type  1   force =    -0.00000000    0.00000000   -0.00000045
     atom    4 type  1   force =     0.00000000   -0.00000000   -0.00000045
     The Hubbard contrib.    to forces
     atom    1 type  1   force =     0.00000000    0.00000000    0.00000000
     atom    2 type  1   force =     0.00000000    0.00000000    0.00000000
     atom    3 type  1   force =     0.00000000    0.00000000    0.00000000
     atom    4 type  1   force =     0.00000000    0.00000000    0.00000000
     The SCF correction term to forces
     atom    1 type  1   force =    -0.00000000    0.00000000    0.00003800
     atom    2 type  1   force =     0.00000000   -0.00000000    0.00003800
     atom    3 type  1   force =    -0.00000000    0.00000000   -0.00003800
     atom    4 type  1   force =     0.00000000   -0.00000000   -0.00003800

     Total force =     0.000036     Total SCF correction =     0.000076
     SCF correction compared to forces is large: reduce conv_thr to get better values


     Computing stress (Cartesian axis) and pressure



     -----------------------------------------------
     Non-local corr. energy    =       0.19095989 Ry
     -----------------------------------------------

          total   stress  (Ry/bohr**3)                   (kbar)     P=      -24.15
  -0.00010677  -0.00000000   0.00000000          -15.71       -0.00        0.00
  -0.00000000  -0.00010677   0.00000000           -0.00      -15.71        0.00
   0.00000000   0.00000000  -0.00027908            0.00        0.00      -41.05

     kinetic stress (kbar)  11763.65      0.00     -0.00
                                0.00  11763.65     -0.00
                               -0.00     -0.00  12947.17

     local   stress (kbar) -23248.31      0.00     -0.00
                                0.00 -23248.31     -0.00
                               -0.00     -0.00  26777.23

     nonloc. stress (kbar)  -1214.98     -0.00     -0.00
                               -0.00  -1214.98     -0.00
                                0.00      0.00  -1016.00

     hartree stress (kbar)   8904.21     -0.00     -0.00
                               -0.00   8904.21      0.00
                               -0.00      0.00  -8000.83

     exc-cor stress (kbar)   -938.43     -0.00      0.00
                               -0.00   -938.43      0.00
                                0.00      0.00  -1095.33

     corecor stress (kbar)  -1785.18     -0.00     -0.00
                               -0.00  -1785.18      0.00
                               -0.00      0.00  -1736.01

     ewald   stress (kbar)   6494.99      0.00     -0.00
                                0.00   6494.99      0.00
                               -0.00      0.00 -27996.96

     hubbard stress (kbar)      0.00      0.00      0.00
                                0.00      0.00      0.00
                                0.00      0.00      0.00

     DFT-D   stress (kbar)      0.00      0.00      0.00
                                0.00      0.00      0.00
                                0.00      0.00      0.00

     XDM     stress (kbar)      0.00      0.00      0.00
                                0.00      0.00      0.00
                                0.00      0.00      0.00

     dft-nl  stress (kbar)      8.34      0.00      0.00
                                0.00      8.34      0.00
                                0.00      0.00     79.68

     TS-vdW  stress (kbar)      0.00      0.00      0.00
                                0.00      0.00      0.00
                                0.00      0.00      0.00



     Writing output data file ./tmp/graphene.save/

     init_run     :     20.87s CPU     21.03s WALL (       2 calls)
     electrons    :    380.28s CPU    562.42s WALL (      32 calls)
     update_pot   :     63.03s CPU     63.90s WALL (      30 calls)
     forces       :     44.85s CPU     48.76s WALL (      32 calls)
     stress       :    107.31s CPU    119.89s WALL (      32 calls)

     Called by init_run:
     wfcinit      :      0.26s CPU      0.33s WALL (       2 calls)
     wfcinit:atom :      0.01s CPU      0.00s WALL (       5 calls)
     wfcinit:wfcr :      0.15s CPU      0.19s WALL (       5 calls)
     potinit      :     18.36s CPU     18.42s WALL (       2 calls)
     hinit0       :      2.22s CPU      2.26s WALL (       2 calls)

     Called by electrons:
     c_bands      :    256.81s CPU    430.40s WALL (     252 calls)
     sum_band     :     24.89s CPU     26.55s WALL (     252 calls)
     v_of_rho     :    113.58s CPU    119.88s WALL (     277 calls)
     v_h          :      0.31s CPU      0.46s WALL (     277 calls)
     v_xc         :    134.78s CPU    142.33s WALL (     341 calls)
     mix_rho      :      2.61s CPU      2.72s WALL (     252 calls)
     vdW_kernel   :     17.61s CPU     17.62s WALL (       1 calls)

     Called by c_bands:
     init_us_2    :      3.98s CPU      4.44s WALL (    2845 calls)
     cegterg      :    178.64s CPU    311.74s WALL (    1260 calls)

     Called by sum_band:
     sum_band:wei :      4.72s CPU      5.63s WALL (     252 calls)
     sum_band:loo :     14.59s CPU     15.33s WALL (     252 calls)
     sum_band:buf :      0.29s CPU      0.31s WALL (    1260 calls)
     sum_band:ini :      1.82s CPU      1.94s WALL (    1260 calls)

     Called by *egterg:
     cdiaghg      :      0.82s CPU      0.61s WALL (    4605 calls)
     cegterg:over :      8.02s CPU     10.18s WALL (    3535 calls)
     cegterg:upda :      3.82s CPU      5.85s WALL (    3535 calls)
     cegterg:last :      4.96s CPU      6.68s WALL (    3155 calls)
     h_psi        :    156.64s CPU    283.51s WALL (    4800 calls)
     g_psi        :      0.96s CPU      0.73s WALL (    3535 calls)

     Called by h_psi:
     h_psi:calbec :     31.14s CPU     82.80s WALL (    4800 calls)
     vloc_psi     :    118.14s CPU    192.79s WALL (    4800 calls)
     add_vuspsi   :      6.83s CPU      7.32s WALL (    4800 calls)

     General routines
     calbec       :     34.11s CPU     89.57s WALL (    5600 calls)
     fft          :     29.79s CPU     30.91s WALL (   22033 calls)
     ffts         :      0.41s CPU      0.43s WALL (     252 calls)
     fftw         :    109.65s CPU    174.37s WALL (   72734 calls)

     Parallel routines

     PWSCF        :  10m17.27s CPU  13m37.00s WALL


   This run was terminated on:  17:59:16  15Feb2024            

=------------------------------------------------------------------------------=
   JOB DONE.
=------------------------------------------------------------------------------=
