 CRYSTAL
 PRIMVEC
    2.468585230    0.000000000    0.000000000
   -1.234292615    2.137857521    0.000000000
    0.000000000    0.000000000   19.748681840
 PRIMCOORD
           4           1
C         0.000000000    0.000000000    0.000000000
C         1.234293849    0.712618461    0.000000000
C         0.000000000    0.000000000    3.486906260
C         1.234293849    0.712618461    3.486906260
BEGIN_BLOCK_DATAGRID_3D
3D_PWSCF
BEGIN_DATAGRID_3D_UNKNOWN
          25          25         193
  0.000000  0.000000  0.000000
    2.468585    0.000000    0.000000
   -1.234293    2.137858    0.000000
    0.000000    0.000000   19.748682
  0.379733E-07  0.227110E-06  0.600489E-06  0.839025E-06  0.853956E-06  0.758682E-06
  0.662076E-06  0.587980E-06  0.517620E-06  0.445789E-06  0.389161E-06  0.359910E-06
  0.352415E-06  0.359910E-06  0.389161E-06  0.445789E-06  0.517620E-06  0.587980E-06
  0.662076E-06  0.758681E-06  0.853954E-06  0.839024E-06  0.600488E-06  0.227110E-06
  0.379733E-07  0.227110E-06  0.227110E-06  0.525761E-06  0.832855E-06  0.941740E-06
  0.890045E-06  0.798620E-06  0.724472E-06  0.659073E-06  0.587980E-06  0.522475E-06
  0.481922E-06  0.467641E-06  0.467641E-06  0.481922E-06  0.522475E-06  0.587980E-06
  0.659073E-06  0.724472E-06  0.798619E-06  0.890044E-06  0.941739E-06  0.832855E-06
  0.525761E-06  0.227110E-06  0.600489E-06  0.480949E-06  0.600488E-06  0.832855E-06
  0.974423E-06  0.974399E-06  0.908441E-06  0.842644E-06  0.785779E-06  0.724472E-06
  0.662076E-06  0.617035E-06  0.598130E-06  0.594918E-06  0.598130E-06  0.617034E-06
  0.662076E-06  0.724472E-06  0.785778E-06  0.842643E-06  0.908441E-06  0.974399E-06
  0.974423E-06  0.832855E-06  0.600489E-06  0.839025E-06  0.736804E-06  0.736804E-06
  0.839024E-06  0.941739E-06  0.974399E-06  0.952200E-06  0.916162E-06  0.881443E-06
  0.842643E-06  0.798619E-06  0.758682E-06  0.732548E-06  0.721733E-06  0.721732E-06
  0.732547E-06  0.758681E-06  0.798618E-06  0.842642E-06  0.881442E-06  0.916162E-06
  0.952200E-06  0.974399E-06  0.941740E-06  0.839025E-06  0.853956E-06  0.810176E-06
  0.789439E-06  0.810175E-06  0.853954E-06  0.890044E-06  0.908441E-06  0.916162E-06
  0.918534E-06  0.916161E-06  0.908440E-06  0.890043E-06  0.853955E-06  0.810178E-06
  0.789440E-06  0.810176E-06  0.853954E-06  0.890042E-06  0.908439E-06  0.916161E-06
  0.918534E-06  0.916162E-06  0.908441E-06  0.890045E-06  0.853956E-06  0.758682E-06
  0.732548E-06  0.721732E-06  0.721732E-06  0.732547E-06  0.758681E-06  0.798619E-06
  0.842643E-06  0.881442E-06  0.916161E-06  0.952198E-06  0.974397E-06  0.941738E-06
  0.839024E-06  0.736805E-06  0.736805E-06  0.839023E-06  0.941737E-06  0.974396E-06
  0.952198E-06  0.916161E-06  0.881443E-06  0.842644E-06  0.798620E-06  0.758682E-06
  0.662076E-06  0.617035E-06  0.598131E-06  0.594918E-06  0.598130E-06  0.617034E-06
  0.662076E-06  0.724472E-06  0.785778E-06  0.842642E-06  0.908439E-06  0.974396E-06
  0.974420E-06  0.832853E-06  0.600488E-06  0.480948E-06  0.600487E-06  0.832853E-06
  0.974420E-06  0.974397E-06  0.908440E-06  0.842643E-06  0.785779E-06  0.724472E-06
  0.662076E-06  0.587980E-06  0.522475E-06  0.481923E-06  0.467641E-06  0.467641E-06
  0.481922E-06  0.522475E-06  0.587980E-06  0.659073E-06  0.724472E-06  0.798618E-06
  0.890042E-06  0.941737E-06  0.832853E-06  0.525759E-06  0.227107E-06  0.227107E-06
  0.525759E-06  0.832853E-06  0.941738E-06  0.890043E-06  0.798619E-06  0.724472E-06
  0.659073E-06  0.587980E-06  0.517620E-06  0.445788E-06  0.389161E-06  0.359910E-06
  0.352415E-06  0.359909E-06  0.389160E-06  0.445789E-06  0.517620E-06  0.587980E-06
  0.662076E-06  0.758681E-06  0.853954E-06  0.839023E-06  0.600487E-06  0.227107E-06
  0.379704E-07  0.227107E-06  0.600488E-06  0.839024E-06  0.853955E-06  0.758682E-06
  0.662076E-06  0.587980E-06  0.517620E-06  0.445789E-06  0.373422E-06  0.311060E-06
  0.271773E-06  0.256301E-06  0.256301E-06  0.271773E-06  0.311060E-06  0.373422E-06
  0.445789E-06  0.522475E-06  0.617034E-06  0.732547E-06  0.810176E-06  0.736805E-06
  0.480948E-06  0.227107E-06  0.227107E-06  0.480948E-06  0.736805E-06  0.810178E-06
  0.732548E-06  0.617035E-06  0.522475E-06  0.445789E-06  0.389161E-06  0.311061E-06
  0.245651E-06  0.200782E-06  0.179283E-06  0.173940E-06  0.179282E-06  0.200782E-06
  0.245651E-06  0.311061E-06  0.389161E-06  0.481922E-06  0.598130E-06  0.721732E-06
  0.789440E-06  0.736805E-06  0.600488E-06  0.525759E-06  0.600487E-06  0.736805E-06
  0.789440E-06  0.721733E-06  0.598130E-06  0.481922E-06  0.389161E-06  0.359910E-06
  0.271774E-06  0.200783E-06  0.150277E-06  0.122536E-06  0.112469E-06  0.112469E-06
  0.122535E-06  0.150276E-06  0.200782E-06  0.271774E-06  0.359910E-06  0.467641E-06
  0.594918E-06  0.721733E-06  0.810178E-06  0.839024E-06  0.832853E-06  0.832853E-06
  0.839023E-06  0.810176E-06  0.721732E-06  0.594918E-06  0.467641E-06  0.359910E-06
  0.352415E-06  0.256302E-06  0.179283E-06  0.122536E-06  0.872831E-07  0.706639E-07
  0.663031E-07  0.706628E-07  0.872817E-07  0.122535E-06  0.179283E-06  0.256302E-06
  0.352415E-06  0.467641E-06  0.598130E-06  0.732548E-06  0.853955E-06  0.941738E-06
  0.974420E-06  0.941737E-06  0.853954E-06  0.732547E-06  0.598130E-06  0.467641E-06
  0.352415E-06  0.359910E-06  0.256302E-06  0.173941E-06  0.112470E-06  0.706639E-07
  0.465620E-07  0.363781E-07  0.363775E-07  0.465608E-07  0.706629E-07  0.112469E-06
  0.173941E-06  0.256302E-06  0.359910E-06  0.481922E-06  0.617035E-06  0.758682E-06
  0.890043E-06  0.974397E-06  0.974396E-06  0.890042E-06  0.758681E-06  0.617034E-06
  0.481922E-06  0.359910E-06  0.389161E-06  0.271774E-06  0.179283E-06  0.112469E-06
  0.663032E-07  0.363780E-07  0.200615E-07  0.150195E-07  0.200609E-07  0.363775E-07
  0.663032E-07  0.112470E-06  0.179283E-06  0.271774E-06  0.389161E-06  0.522475E-06
  0.662076E-06  0.798619E-06  0.908440E-06  0.952198E-06  0.908439E-06  0.798618E-06
  0.662076E-06  0.522475E-06  0.389161E-06  0.445789E-06  0.311061E-06  0.200782E-06
  0.122535E-06  0.706629E-07  0.363775E-07  0.150194E-07  0.488524E-08  0.488514E-08
  0.150194E-07  0.363780E-07  0.706639E-07  0.122536E-06  0.200783E-06  0.311061E-06
  0.445789E-06  0.587980E-06  0.724472E-06  0.842643E-06  0.916161E-06  0.916161E-06
  0.842642E-06  0.724472E-06  0.587980E-06  0.445789E-06  0.517620E-06  0.373422E-06
  0.245651E-06  0.150276E-06  0.872817E-07  0.465608E-07  0.200609E-07  0.488514E-08
  0.167447E-11  0.488524E-08  0.200615E-07  0.465620E-07  0.872831E-07  0.150277E-06
  0.245651E-06  0.373422E-06  0.517620E-06  0.659073E-06  0.785779E-06  0.881443E-06
  0.918534E-06  0.881442E-06  0.785778E-06  0.659073E-06  0.517620E-06  0.587980E-06
  0.445789E-06  0.311060E-06  0.200782E-06  0.122535E-06  0.706628E-07  0.363775E-07
  0.150195E-07  0.488524E-08  0.488514E-08  0.150195E-07  0.363781E-07  0.706639E-07
  0.122536E-06  0.200782E-06  0.311060E-06  0.445788E-06  0.587980E-06  0.724472E-06
  0.842644E-06  0.916162E-06  0.916162E-06  0.842643E-06  0.724472E-06  0.587980E-06
  0.662076E-06  0.522475E-06  0.389160E-06  0.271773E-06  0.179282E-06  0.112469E-06
  0.663031E-07  0.363781E-07  0.200615E-07  0.150194E-07  0.200609E-07  0.363775E-07
  0.663031E-07  0.112469E-06  0.179283E-06  0.271773E-06  0.389161E-06  0.522475E-06
  0.662076E-06  0.798620E-06  0.908441E-06  0.952200E-06  0.908441E-06  0.798619E-06
  0.662076E-06  0.758681E-06  0.617034E-06  0.481922E-06  0.359909E-06  0.256301E-06
  0.173940E-06  0.112469E-06  0.706639E-07  0.465620E-07  0.363780E-07  0.363775E-07
  0.465608E-07  0.706628E-07  0.112469E-06  0.173940E-06  0.256301E-06  0.359910E-06
  0.481923E-06  0.617035E-06  0.758682E-06  0.890045E-06  0.974399E-06  0.974399E-06
  0.890044E-06  0.758681E-06  0.853954E-06  0.732547E-06  0.598130E-06  0.467641E-06
  0.352415E-06  0.256301E-06  0.179283E-06  0.122536E-06  0.872831E-07  0.706639E-07
  0.663032E-07  0.706629E-07  0.872817E-07  0.122535E-06  0.179282E-06  0.256301E-06
  0.352415E-06  0.467641E-06  0.598131E-06  0.732548E-06  0.853956E-06  0.941740E-06
  0.974423E-06  0.941739E-06  0.853954E-06  0.839024E-06  0.810175E-06  0.721732E-06
  0.594918E-06  0.467641E-06  0.359910E-06  0.271773E-06  0.200782E-06  0.150277E-06
  0.122536E-06  0.112470E-06  0.112469E-06  0.122535E-06  0.150276E-06  0.200782E-06
  0.271773E-06  0.359909E-06  0.467641E-06  0.594918E-06  0.721732E-06  0.810176E-06
  0.839025E-06  0.832855E-06  0.832855E-06  0.839024E-06  0.600488E-06  0.736804E-06
  0.789439E-06  0.721732E-06  0.598131E-06  0.481923E-06  0.389161E-06  0.311060E-06
  0.245651E-06  0.200783E-06  0.179283E-06  0.173941E-06  0.179283E-06  0.200782E-06
  0.245651E-06  0.311060E-06  0.389160E-06  0.481922E-06  0.598130E-06  0.721732E-06
  0.789439E-06  0.736804E-06  0.600489E-06  0.525761E-06  0.600488E-06  0.227110E-06
  0.480949E-06  0.736804E-06  0.810176E-06  0.732548E-06  0.617035E-06  0.522475E-06
  0.445788E-06  0.373422E-06  0.311061E-06  0.271774E-06  0.256302E-06  0.256302E-06
  0.271774E-06  0.311061E-06  0.373422E-06  0.445789E-06  0.522475E-06  0.617034E-06
  0.732547E-06  0.810175E-06  0.736804E-06  0.480949E-06  0.227110E-06  0.227110E-06
  0.379733E-07  0.227110E-06  0.600489E-06  0.839025E-06  0.853956E-06  0.758682E-06
  0.662076E-06  0.587980E-06  0.517620E-06  0.445789E-06  0.389161E-06  0.359910E-06
  0.352415E-06  0.359910E-06  0.389161E-06  0.445789E-06  0.517620E-06  0.587980E-06
  0.662076E-06  0.758681E-06  0.853954E-06  0.839024E-06  0.600488E-06  0.227110E-06
  0.379733E-07  0.790088E-03  0.692884E-03  0.473115E-03  0.262657E-03  0.129411E-03
  0.642041E-04  0.357180E-04  0.231534E-04  0.177015E-04  0.160032E-04  0.161379E-04
  0.167171E-04  0.169814E-04  0.167177E-04  0.161388E-04  0.160040E-04  0.177023E-04
  0.231543E-04  0.357190E-04  0.642052E-04  0.129412E-03  0.262657E-03  0.473115E-03
  0.692884E-03  0.790088E-03  0.692884E-03  0.692884E-03  0.536447E-03  0.330643E-03
  0.173526E-03  0.870310E-04  0.476688E-04  0.309884E-04  0.244401E-04  0.231534E-04
  0.247538E-04  0.272574E-04  0.289917E-04  0.289920E-04  0.272582E-04  0.247547E-04
  0.231542E-04  0.244410E-04  0.309894E-04  0.476697E-04  0.870319E-04  0.173527E-03
  0.330643E-03  0.536447E-03  0.692884E-03  0.473115E-03  0.535767E-03  0.473115E-03
  0.330643E-03  0.192318E-03  0.102615E-03  0.574672E-04  0.379310E-04  0.309654E-04
  0.309886E-04  0.357180E-04  0.429940E-04  0.496660E-04  0.523907E-04  0.496667E-04
  0.429949E-04  0.357190E-04  0.309895E-04  0.309663E-04  0.379318E-04  0.574678E-04
  0.102615E-03  0.192318E-03  0.330643E-03  0.473115E-03  0.262657E-03  0.328927E-03
  0.328928E-03  0.262657E-03  0.173527E-03  0.102615E-03  0.613236E-04  0.420740E-04
  0.357541E-04  0.379314E-04  0.476692E-04  0.642041E-04  0.834274E-04  0.969232E-04
  0.969236E-04  0.834283E-04  0.642052E-04  0.476701E-04  0.379322E-04  0.357547E-04
  0.420743E-04  0.613236E-04  0.102615E-03  0.173526E-03  0.262657E-03  0.129411E-03
  0.170816E-03  0.188568E-03  0.170817E-03  0.129412E-03  0.870319E-04  0.574678E-04
  0.420743E-04  0.375176E-04  0.420745E-04  0.574680E-04  0.870315E-04  0.129411E-03
  0.170815E-03  0.188567E-03  0.170816E-03  0.129412E-03  0.870325E-04  0.574686E-04
  0.420748E-04  0.375176E-04  0.420740E-04  0.574672E-04  0.870310E-04  0.129411E-03
  0.642041E-04  0.834279E-04  0.969241E-04  0.969244E-04  0.834288E-04  0.642052E-04
  0.476697E-04  0.379318E-04  0.357547E-04  0.420748E-04  0.613246E-04  0.102616E-03
  0.173527E-03  0.262656E-03  0.328926E-03  0.328927E-03  0.262657E-03  0.173527E-03
  0.102616E-03  0.613246E-04  0.420745E-04  0.357541E-04  0.379310E-04  0.476688E-04
  0.642041E-04  0.357180E-04  0.429942E-04  0.496665E-04  0.523912E-04  0.496671E-04
  0.429952E-04  0.357190E-04  0.309894E-04  0.309663E-04  0.379322E-04  0.574686E-04
  0.102616E-03  0.192319E-03  0.330643E-03  0.473114E-03  0.535766E-03  0.473114E-03
  0.330643E-03  0.192319E-03  0.102616E-03  0.574680E-04  0.379314E-04  0.309654E-04
  0.309884E-04  0.357180E-04  0.231534E-04  0.247540E-04  0.272578E-04  0.289921E-04
  0.289924E-04  0.272586E-04  0.247550E-04  0.231543E-04  0.244410E-04  0.309895E-04
  0.476701E-04  0.870325E-04  0.173527E-03  0.330643E-03  0.536447E-03  0.692883E-03
  0.692883E-03  0.536447E-03  0.330643E-03  0.173527E-03  0.870315E-04  0.476692E-04
  0.309886E-04  0.244401E-04  0.231534E-04  0.177015E-04  0.160034E-04  0.161383E-04
  0.167176E-04  0.169819E-04  0.167182E-04  0.161392E-04  0.160042E-04  0.177023E-04
  0.231542E-04  0.357190E-04  0.642052E-04  0.129412E-03  0.262657E-03  0.473114E-03
  0.692883E-03  0.790088E-03  0.692883E-03  0.473114E-03  0.262656E-03  0.129411E-03
  0.642041E-04  0.357180E-04  0.231534E-04  0.177015E-04  0.160032E-04  0.119036E-04
  0.103515E-04  0.996514E-05  0.992202E-05  0.992235E-05  0.996595E-05  0.103525E-04
  0.119045E-04  0.160040E-04  0.247547E-04  0.429949E-04  0.834283E-04  0.170816E-03
  0.328927E-03  0.535766E-03  0.692883E-03  0.692883E-03  0.535766E-03  0.328926E-03
  0.170815E-03  0.834274E-04  0.429940E-04  0.247538E-04  0.160032E-04  0.161379E-04
  0.103512E-04  0.752845E-05  0.631873E-05  0.584373E-05  0.571287E-05  0.584439E-05
  0.631972E-05  0.752945E-05  0.103522E-04  0.161388E-04  0.272582E-04  0.496667E-04
  0.969236E-04  0.188567E-03  0.328926E-03  0.473114E-03  0.536447E-03  0.473114E-03
  0.328927E-03  0.188567E-03  0.969232E-04  0.496660E-04  0.272574E-04  0.161379E-04
  0.167171E-04  0.996462E-05  0.631844E-05  0.449950E-05  0.363766E-05  0.327305E-05
  0.327343E-05  0.363861E-05  0.450060E-05  0.631943E-05  0.996543E-05  0.167177E-04
  0.289920E-04  0.523907E-04  0.969232E-04  0.170815E-03  0.262656E-03  0.330643E-03
  0.330643E-03  0.262657E-03  0.170816E-03  0.969236E-04  0.523907E-04  0.289917E-04
  0.167171E-04  0.169814E-04  0.992135E-05  0.584319E-05  0.363741E-05  0.250266E-05
  0.194082E-05  0.176361E-05  0.194154E-05  0.250370E-05  0.363836E-05  0.584385E-05
  0.992168E-05  0.169814E-04  0.289917E-04  0.496660E-04  0.834274E-04  0.129411E-03
  0.173527E-03  0.192319E-03  0.173527E-03  0.129412E-03  0.834283E-04  0.496667E-04
  0.289920E-04  0.169814E-04  0.167177E-04  0.992168E-05  0.571223E-05  0.327264E-05
  0.194066E-05  0.123656E-05  0.919123E-06  0.919449E-06  0.123731E-05  0.194138E-05
  0.327303E-05  0.571223E-05  0.992135E-05  0.167171E-04  0.272574E-04  0.429940E-04
  0.642041E-04  0.870315E-04  0.102616E-03  0.102616E-03  0.870325E-04  0.642052E-04
  0.429949E-04  0.272582E-04  0.167177E-04  0.161388E-04  0.996543E-05  0.584385E-05
  0.327303E-05  0.176339E-05  0.919037E-06  0.489185E-06  0.356420E-06  0.489517E-06
  0.919363E-06  0.176339E-05  0.327264E-05  0.584319E-05  0.996462E-05  0.161379E-04
  0.247538E-04  0.357180E-04  0.476692E-04  0.574680E-04  0.613246E-04  0.574686E-04
  0.476701E-04  0.357190E-04  0.247547E-04  0.161388E-04  0.160040E-04  0.103522E-04
  0.631943E-05  0.363836E-05  0.194138E-05  0.919363E-06  0.356385E-06  0.112023E-06
  0.112076E-06  0.356385E-06  0.919037E-06  0.194066E-05  0.363741E-05  0.631844E-05
  0.103512E-04  0.160032E-04  0.231534E-04  0.309886E-04  0.379314E-04  0.420745E-04
  0.420748E-04  0.379322E-04  0.309895E-04  0.231542E-04  0.160040E-04  0.177023E-04
  0.119045E-04  0.752945E-05  0.450060E-05  0.250370E-05  0.123731E-05  0.489517E-06
  0.112076E-06  0.110402E-11  0.112023E-06  0.489185E-06  0.123656E-05  0.250266E-05
  0.449950E-05  0.752845E-05  0.119036E-04  0.177015E-04  0.244401E-04  0.309654E-04
  0.357541E-04  0.375176E-04  0.357547E-04  0.309663E-04  0.244410E-04  0.177023E-04
  0.231543E-04  0.160042E-04  0.103525E-04  0.631972E-05  0.363861E-05  0.194154E-05
  0.919449E-06  0.356420E-06  0.112023E-06  0.112076E-06  0.356420E-06  0.919123E-06
  0.194082E-05  0.363766E-05  0.631873E-05  0.103515E-04  0.160034E-04  0.231534E-04
  0.309884E-04  0.379310E-04  0.420740E-04  0.420743E-04  0.379318E-04  0.309894E-04
  0.231543E-04  0.357190E-04  0.247550E-04  0.161392E-04  0.996595E-05  0.584439E-05
  0.327343E-05  0.176361E-05  0.919123E-06  0.489185E-06  0.356385E-06  0.489517E-06
  0.919449E-06  0.176361E-05  0.327305E-05  0.584373E-05  0.996514E-05  0.161383E-04
  0.247540E-04  0.357180E-04  0.476688E-04  0.574672E-04  0.613236E-04  0.574678E-04
  0.476697E-04  0.357190E-04  0.642052E-04  0.429952E-04  0.272586E-04  0.167182E-04
  0.992235E-05  0.571287E-05  0.327305E-05  0.194082E-05  0.123656E-05  0.919037E-06
  0.919363E-06  0.123731E-05  0.194154E-05  0.327343E-05  0.571287E-05  0.992202E-05
  0.167176E-04  0.272578E-04  0.429942E-04  0.642041E-04  0.870310E-04  0.102615E-03
  0.102615E-03  0.870319E-04  0.642052E-04  0.129412E-03  0.834288E-04  0.496671E-04
  0.289924E-04  0.169819E-04  0.992202E-05  0.584373E-05  0.363766E-05  0.250266E-05
  0.194066E-05  0.176339E-05  0.194138E-05  0.250370E-05  0.363861E-05  0.584439E-05
  0.992235E-05  0.169819E-04  0.289921E-04  0.496665E-04  0.834279E-04  0.129411E-03
  0.173526E-03  0.192318E-03  0.173527E-03  0.129412E-03  0.262657E-03  0.170817E-03
  0.969244E-04  0.523912E-04  0.289921E-04  0.167176E-04  0.996514E-05  0.631873E-05
  0.449950E-05  0.363741E-05  0.327264E-05  0.327303E-05  0.363836E-05  0.450060E-05
  0.631972E-05  0.996595E-05  0.167182E-04  0.289924E-04  0.523912E-04  0.969241E-04
  0.170816E-03  0.262657E-03  0.330643E-03  0.330643E-03  0.262657E-03  0.473115E-03
  0.328928E-03  0.188568E-03  0.969241E-04  0.496665E-04  0.272578E-04  0.161383E-04
  0.103515E-04  0.752845E-05  0.631844E-05  0.584319E-05  0.571223E-05  0.584385E-05
  0.631943E-05  0.752945E-05  0.103525E-04  0.161392E-04  0.272586E-04  0.496671E-04
  0.969244E-04  0.188568E-03  0.328927E-03  0.473115E-03  0.536447E-03  0.473115E-03
  0.692884E-03  0.535767E-03  0.328927E-03  0.170816E-03  0.834279E-04  0.429942E-04
  0.247540E-04  0.160034E-04  0.119036E-04  0.103512E-04  0.996462E-05  0.992135E-05
  0.992168E-05  0.996543E-05  0.103522E-04  0.119045E-04  0.160042E-04  0.247550E-04
  0.429952E-04  0.834288E-04  0.170817E-03  0.328928E-03  0.535767E-03  0.692884E-03
  0.692884E-03  0.790088E-03  0.692884E-03  0.473115E-03  0.262657E-03  0.129411E-03
  0.642041E-04  0.357180E-04  0.231534E-04  0.177015E-04  0.160032E-04  0.161379E-04
  0.167171E-04  0.169814E-04  0.167177E-04  0.161388E-04  0.160040E-04  0.177023E-04
  0.231543E-04  0.357190E-04  0.642052E-04  0.129412E-03  0.262657E-03  0.473115E-03
  0.692884E-03  0.790088E-03  0.217679E-02  0.192613E-02  0.135361E-02  0.792549E-03
  0.422477E-03  0.229601E-03  0.138170E-03  0.943282E-04  0.737773E-04  0.663529E-04
  0.657082E-04  0.670992E-04  0.678283E-04  0.671008E-04  0.657106E-04  0.663554E-04
  0.737797E-04  0.943308E-04  0.138173E-03  0.229604E-03  0.422480E-03  0.792551E-03
  0.135361E-02  0.192613E-02  0.217679E-02  0.192613E-02  0.192613E-02  0.152028E-02
  0.977442E-03  0.549600E-03  0.301576E-03  0.180292E-03  0.124450E-03  0.100500E-03
  0.943280E-04  0.982627E-04  0.105672E-03  0.110983E-03  0.110984E-03  0.105675E-03
  0.982653E-04  0.943306E-04  0.100503E-03  0.124452E-03  0.180295E-03  0.301579E-03
  0.549602E-03  0.977443E-03  0.152028E-02  0.192613E-02  0.135361E-02  0.151718E-02
  0.135361E-02  0.977443E-03  0.602966E-03  0.349611E-03  0.214077E-03  0.150890E-03
  0.126230E-03  0.124450E-03  0.138170E-03  0.160068E-03  0.180168E-03  0.188353E-03
  0.180170E-03  0.160071E-03  0.138173E-03  0.124453E-03  0.126233E-03  0.150892E-03
  0.214079E-03  0.349612E-03  0.602966E-03  0.977442E-03  0.135361E-02  0.792549E-03
  0.969789E-03  0.969790E-03  0.792551E-03  0.549602E-03  0.349612E-03  0.227230E-03
  0.166616E-03  0.145157E-03  0.150891E-03  0.180293E-03  0.229601E-03  0.285752E-03
  0.324589E-03  0.324590E-03  0.285754E-03  0.229604E-03  0.180296E-03  0.150893E-03
  0.145158E-03  0.166617E-03  0.227230E-03  0.349611E-03  0.549600E-03  0.792549E-03
  0.422477E-03  0.537637E-03  0.586399E-03  0.537639E-03  0.422480E-03  0.301579E-03
  0.214079E-03  0.166617E-03  0.152154E-03  0.166618E-03  0.214079E-03  0.301578E-03
  0.422476E-03  0.537635E-03  0.586395E-03  0.537637E-03  0.422479E-03  0.301580E-03
  0.214081E-03  0.166618E-03  0.152154E-03  0.166616E-03  0.214077E-03  0.301576E-03
  0.422477E-03  0.229601E-03  0.285753E-03  0.324591E-03  0.324592E-03  0.285756E-03
  0.229604E-03  0.180295E-03  0.150892E-03  0.145158E-03  0.166618E-03  0.227233E-03
  0.349613E-03  0.549601E-03  0.792548E-03  0.969786E-03  0.969787E-03  0.792549E-03
  0.549603E-03  0.349614E-03  0.227233E-03  0.166618E-03  0.145157E-03  0.150890E-03
  0.180292E-03  0.229601E-03  0.138170E-03  0.160069E-03  0.180170E-03  0.188355E-03
  0.180171E-03  0.160072E-03  0.138173E-03  0.124452E-03  0.126233E-03  0.150893E-03
  0.214081E-03  0.349614E-03  0.602968E-03  0.977443E-03  0.135361E-02  0.151717E-02
  0.135361E-02  0.977443E-03  0.602968E-03  0.349613E-03  0.214079E-03  0.150891E-03
  0.126230E-03  0.124450E-03  0.138170E-03  0.943282E-04  0.982634E-04  0.105673E-03
  0.110984E-03  0.110985E-03  0.105676E-03  0.982661E-04  0.943308E-04  0.100503E-03
  0.124453E-03  0.180296E-03  0.301580E-03  0.549603E-03  0.977443E-03  0.152028E-02
  0.192613E-02  0.192613E-02  0.152028E-02  0.977443E-03  0.549601E-03  0.301578E-03
  0.180293E-03  0.124450E-03  0.100500E-03  0.943282E-04  0.737773E-04  0.663534E-04
  0.657093E-04  0.671006E-04  0.678298E-04  0.671022E-04  0.657117E-04  0.663559E-04
  0.737797E-04  0.943306E-04  0.138173E-03  0.229604E-03  0.422479E-03  0.792549E-03
  0.135361E-02  0.192613E-02  0.217679E-02  0.192613E-02  0.135361E-02  0.792548E-03
  0.422476E-03  0.229601E-03  0.138170E-03  0.943280E-04  0.737773E-04  0.663529E-04
  0.504197E-04  0.437213E-04  0.415577E-04  0.410371E-04  0.410381E-04  0.415599E-04
  0.437239E-04  0.504222E-04  0.663554E-04  0.982653E-04  0.160071E-03  0.285754E-03
  0.537637E-03  0.969787E-03  0.151717E-02  0.192613E-02  0.192613E-02  0.151717E-02
  0.969786E-03  0.537635E-03  0.285752E-03  0.160068E-03  0.982627E-04  0.663529E-04
  0.657082E-04  0.437206E-04  0.324108E-04  0.271885E-04  0.249730E-04  0.243419E-04
  0.249748E-04  0.271912E-04  0.324137E-04  0.437232E-04  0.657106E-04  0.105675E-03
  0.180170E-03  0.324590E-03  0.586395E-03  0.969786E-03  0.135361E-02  0.152028E-02
  0.135361E-02  0.969787E-03  0.586395E-03  0.324589E-03  0.180168E-03  0.105672E-03
  0.657082E-04  0.670992E-04  0.415563E-04  0.271877E-04  0.196851E-04  0.159642E-04
  0.143583E-04  0.143593E-04  0.159667E-04  0.196881E-04  0.271904E-04  0.415585E-04
  0.671008E-04  0.110984E-03  0.188353E-03  0.324589E-03  0.537635E-03  0.792548E-03
  0.977443E-03  0.977443E-03  0.792549E-03  0.537637E-03  0.324590E-03  0.188353E-03
  0.110983E-03  0.670992E-04  0.678283E-04  0.410353E-04  0.249716E-04  0.159635E-04
  0.111452E-04  0.870372E-05  0.793120E-05  0.870559E-05  0.111480E-04  0.159660E-04
  0.249734E-04  0.410362E-04  0.678283E-04  0.110983E-03  0.180168E-03  0.285752E-03
  0.422476E-03  0.549601E-03  0.602968E-03  0.549603E-03  0.422479E-03  0.285754E-03
  0.180170E-03  0.110984E-03  0.678283E-04  0.671008E-04  0.410362E-04  0.243402E-04
  0.143572E-04  0.870327E-05  0.561907E-05  0.421109E-05  0.421193E-05  0.562101E-05
  0.870515E-05  0.143582E-04  0.243402E-04  0.410353E-04  0.670992E-04  0.105672E-03
  0.160068E-03  0.229601E-03  0.301578E-03  0.349613E-03  0.349614E-03  0.301580E-03
  0.229604E-03  0.160071E-03  0.105675E-03  0.671008E-04  0.657106E-04  0.415585E-04
  0.249734E-04  0.143582E-04  0.793060E-05  0.421086E-05  0.226812E-05  0.166132E-05
  0.226897E-05  0.421170E-05  0.793060E-05  0.143572E-04  0.249716E-04  0.415563E-04
  0.657082E-04  0.982627E-04  0.138170E-03  0.180293E-03  0.214079E-03  0.227233E-03
  0.214081E-03  0.180296E-03  0.138173E-03  0.982653E-04  0.657106E-04  0.663554E-04
  0.437232E-04  0.271904E-04  0.159660E-04  0.870515E-05  0.421170E-05  0.166122E-05
  0.527475E-06  0.527611E-06  0.166122E-05  0.421086E-05  0.870327E-05  0.159635E-04
  0.271877E-04  0.437206E-04  0.663529E-04  0.943280E-04  0.124450E-03  0.150891E-03
  0.166618E-03  0.166618E-03  0.150893E-03  0.124453E-03  0.943306E-04  0.663554E-04
  0.737797E-04  0.504222E-04  0.324137E-04  0.196881E-04  0.111480E-04  0.562101E-05
  0.226897E-05  0.527611E-06  0.654765E-12  0.527475E-06  0.226812E-05  0.561907E-05
  0.111452E-04  0.196851E-04  0.324108E-04  0.504197E-04  0.737773E-04  0.100500E-03
  0.126230E-03  0.145157E-03  0.152154E-03  0.145158E-03  0.126233E-03  0.100503E-03
  0.737797E-04  0.943308E-04  0.663559E-04  0.437239E-04  0.271912E-04  0.159667E-04
  0.870559E-05  0.421193E-05  0.166132E-05  0.527475E-06  0.527611E-06  0.166132E-05
  0.421109E-05  0.870372E-05  0.159642E-04  0.271885E-04  0.437213E-04  0.663534E-04
  0.943282E-04  0.124450E-03  0.150890E-03  0.166616E-03  0.166617E-03  0.150892E-03
  0.124452E-03  0.943308E-04  0.138173E-03  0.982661E-04  0.657117E-04  0.415599E-04
  0.249748E-04  0.143593E-04  0.793120E-05  0.421109E-05  0.226812E-05  0.166122E-05
  0.226897E-05  0.421193E-05  0.793120E-05  0.143583E-04  0.249730E-04  0.415577E-04
  0.657093E-04  0.982634E-04  0.138170E-03  0.180292E-03  0.214077E-03  0.227230E-03
  0.214079E-03  0.180295E-03  0.138173E-03  0.229604E-03  0.160072E-03  0.105676E-03
  0.671022E-04  0.410381E-04  0.243419E-04  0.143583E-04  0.870372E-05  0.561907E-05
  0.421086E-05  0.421170E-05  0.562101E-05  0.870559E-05  0.143593E-04  0.243419E-04
  0.410371E-04  0.671006E-04  0.105673E-03  0.160069E-03  0.229601E-03  0.301576E-03
  0.349611E-03  0.349612E-03  0.301579E-03  0.229604E-03  0.422480E-03  0.285756E-03
  0.180171E-03  0.110985E-03  0.678298E-04  0.410371E-04  0.249730E-04  0.159642E-04
  0.111452E-04  0.870327E-05  0.793060E-05  0.870515E-05  0.111480E-04  0.159667E-04
  0.249748E-04  0.410381E-04  0.678298E-04  0.110984E-03  0.180170E-03  0.285753E-03
  0.422477E-03  0.549600E-03  0.602966E-03  0.549602E-03  0.422480E-03  0.792551E-03
  0.537639E-03  0.324592E-03  0.188355E-03  0.110984E-03  0.671006E-04  0.415577E-04
  0.271885E-04  0.196851E-04  0.159635E-04  0.143572E-04  0.143582E-04  0.159660E-04
  0.196881E-04  0.271912E-04  0.415599E-04  0.671022E-04  0.110985E-03  0.188355E-03
  0.324591E-03  0.537637E-03  0.792549E-03  0.977442E-03  0.977443E-03  0.792551E-03
  0.135361E-02  0.969790E-03  0.586399E-03  0.324591E-03  0.180170E-03  0.105673E-03
  0.657093E-04  0.437213E-04  0.324108E-04  0.271877E-04  0.249716E-04  0.243402E-04
  0.249734E-04  0.271904E-04  0.324137E-04  0.437239E-04  0.657117E-04  0.105676E-03
  0.180171E-03  0.324592E-03  0.586399E-03  0.969789E-03  0.135361E-02  0.152028E-02
  0.135361E-02  0.192613E-02  0.151718E-02  0.969789E-03  0.537637E-03  0.285753E-03
  0.160069E-03  0.982634E-04  0.663534E-04  0.504197E-04  0.437206E-04  0.415563E-04
  0.410353E-04  0.410362E-04  0.415585E-04  0.437232E-04  0.504222E-04  0.663559E-04
  0.982661E-04  0.160072E-03  0.285756E-03  0.537639E-03  0.969790E-03  0.151718E-02
  0.192613E-02  0.192613E-02  0.217679E-02  0.192613E-02  0.135361E-02  0.792549E-03
  0.422477E-03  0.229601E-03  0.138170E-03  0.943282E-04  0.737773E-04  0.663529E-04
  0.657082E-04  0.670992E-04  0.678283E-04  0.671008E-04  0.657106E-04  0.663554E-04
  0.737797E-04  0.943308E-04  0.138173E-03  0.229604E-03  0.422480E-03  0.792551E-03
  0.135361E-02  0.192613E-02  0.217679E-02  0.272771E-02  0.244507E-02  0.178986E-02
  0.112572E-02  0.660927E-03  0.395986E-03  0.255528E-03  0.180983E-03  0.143702E-03
  0.129345E-03  0.127216E-03  0.129044E-03  0.130119E-03  0.129046E-03  0.127219E-03
  0.129348E-03  0.143705E-03  0.180986E-03  0.255532E-03  0.395990E-03  0.660930E-03
  0.112572E-02  0.178987E-02  0.244507E-02  0.272771E-02  0.244507E-02  0.244507E-02
  0.198317E-02  0.135032E-02  0.828102E-03  0.502240E-03  0.326052E-03  0.235668E-03
  0.193375E-03  0.180982E-03  0.186091E-03  0.197313E-03  0.205461E-03  0.205462E-03
  0.197315E-03  0.186094E-03  0.180986E-03  0.193378E-03  0.235671E-03  0.326055E-03
  0.502243E-03  0.828104E-03  0.135032E-02  0.198317E-02  0.244507E-02  0.178986E-02
  0.197789E-02  0.178987E-02  0.135032E-02  0.896771E-03  0.570877E-03  0.380955E-03
  0.283064E-03  0.240934E-03  0.235668E-03  0.255528E-03  0.287752E-03  0.316882E-03
  0.328608E-03  0.316884E-03  0.287756E-03  0.255531E-03  0.235672E-03  0.240937E-03
  0.283067E-03  0.380957E-03  0.570878E-03  0.896771E-03  0.135032E-02  0.178986E-02
  0.112572E-02  0.133699E-02  0.133699E-02  0.112572E-02  0.828104E-03  0.570878E-03
  0.401994E-03  0.311036E-03  0.275868E-03  0.283065E-03  0.326053E-03  0.395986E-03
  0.472754E-03  0.524532E-03  0.524534E-03  0.472757E-03  0.395990E-03  0.326056E-03
  0.283068E-03  0.275870E-03  0.311037E-03  0.401994E-03  0.570877E-03  0.828102E-03
  0.112572E-02  0.660927E-03  0.806514E-03  0.867029E-03  0.806516E-03  0.660930E-03
  0.502243E-03  0.380957E-03  0.311037E-03  0.288787E-03  0.311037E-03  0.380957E-03
  0.502241E-03  0.660926E-03  0.806511E-03  0.867025E-03  0.806513E-03  0.660929E-03
  0.502244E-03  0.380959E-03  0.311038E-03  0.288787E-03  0.311036E-03  0.380955E-03
  0.502240E-03  0.660927E-03  0.395986E-03  0.472756E-03  0.524535E-03  0.524536E-03
  0.472759E-03  0.395990E-03  0.326055E-03  0.283067E-03  0.275870E-03  0.311038E-03
  0.401996E-03  0.570879E-03  0.828103E-03  0.112572E-02  0.133699E-02  0.133699E-02
  0.112572E-02  0.828105E-03  0.570881E-03  0.401996E-03  0.311037E-03  0.275868E-03
  0.283064E-03  0.326052E-03  0.395986E-03  0.255528E-03  0.287754E-03  0.316884E-03
  0.328610E-03  0.316886E-03  0.287757E-03  0.255532E-03  0.235671E-03  0.240937E-03
  0.283068E-03  0.380959E-03  0.570881E-03  0.896773E-03  0.135032E-02  0.178986E-02
  0.197789E-02  0.178986E-02  0.135032E-02  0.896773E-03  0.570879E-03  0.380957E-03
  0.283065E-03  0.240934E-03  0.235668E-03  0.255528E-03  0.180983E-03  0.186091E-03
  0.197314E-03  0.205463E-03  0.205464E-03  0.197317E-03  0.186095E-03  0.180986E-03
  0.193378E-03  0.235672E-03  0.326056E-03  0.502244E-03  0.828105E-03  0.135032E-02
  0.198317E-02  0.244507E-02  0.244507E-02  0.198317E-02  0.135032E-02  0.828103E-03