
     Program PWSCF v.7.2 starts on 13Apr2024 at 14:12:50 

     This program is part of the open-source Quantum ESPRESSO suite
     for quantum simulation of materials; please cite
         "P. Giannozzi et al., J. Phys.:Condens. Matter 21 395502 (2009);
         "P. Giannozzi et al., J. Phys.:Condens. Matter 29 465901 (2017);
         "P. Giannozzi et al., J. Chem. Phys. 152 154105 (2020);
          URL http://www.quantum-espresso.org", 
     in publications or presentations arising from this work. More details at
     http://www.quantum-espresso.org/quote

     Parallel version (MPI & OpenMP), running on       8 processor cores
     Number of MPI processes:                 8
     Threads/MPI process:                     1

     MPI processes distributed on     1 nodes
     0 MiB available memory on the printing compute node when the environment starts

     Waiting for input...
     Reading input from standard input

     Current dimensions of program PWSCF are:
     Max number of different atomic species (ntypx) = 10
     Max number of k-points (npk) =  40000
     Max angular momentum in pseudopotentials (lmaxx) =  4

     IMPORTANT: XC functional enforced from input :
     Exchange-correlation= VDW-DF2-B86R
                           (   1   4  26   0   2   0   0)
     Any further DFT definition will be discarded
     Please, verify this is what you really want


     R & G space division:  proc/nbgrp/npool/nimage =       8
     Subspace diagonalization in iterative solution of the eigenvalue problem:
     a serial algorithm will be used


     Parallelization info
     --------------------
     sticks:   dense  smooth     PW     G-vecs:    dense   smooth      PW
     Min          45      45     13                 5519     5519     941
     Max          46      46     14                 5546     5546     968
     Sum         361     361    109                44285    44285    7663

     Using Slab Decomposition



     bravais-lattice index     =            4
     lattice parameter (alat)  =       4.6645  a.u.
     unit-cell volume          =     703.1169 (a.u.)^3
     number of atoms/cell      =            4
     number of atomic types    =            1
     number of electrons       =        16.00
     number of Kohn-Sham states=           12
     kinetic-energy cutoff     =      60.0000  Ry
     charge density cutoff     =     240.0000  Ry
     scf convergence threshold =      1.0E-06
     mixing beta               =       0.7000
     number of iterations used =            8  plain     mixing
     Exchange-correlation= VDW-DF2-B86R
                           (   1   4  26   0   2   0   0)

     celldm(1)=   4.664470  celldm(2)=   0.000000  celldm(3)=   8.000000
     celldm(4)=   0.000000  celldm(5)=   0.000000  celldm(6)=   0.000000

     crystal axes: (cart. coord. in units of alat)
               a(1) = (   1.000000   0.000000   0.000000 )  
               a(2) = (  -0.500000   0.866025   0.000000 )  
               a(3) = (   0.000000   0.000000   8.000000 )  

     reciprocal axes: (cart. coord. in units 2 pi/alat)
               b(1) = (  1.000000  0.577350 -0.000000 )  
               b(2) = (  0.000000  1.154701  0.000000 )  
               b(3) = (  0.000000 -0.000000  0.125000 )  


     PseudoPot. # 1 for C  read from file:
     ../../../../Pseudo/PBE/C.upf
     MD5 check sum: 34a24e64c0a39f27c6c36b90a16ac686
     Pseudo is Norm-conserving + core correction, Zval =  4.0
     Generated using ONCVPSP code by D. R. Hamann
     Using radial grid of 1248 points,  4 beta functions with: 
                l(1) =   0
                l(2) =   0
                l(3) =   1
                l(4) =   1

     atomic species   valence    mass     pseudopotential
        C              4.00    12.01100     C ( 1.00)

      6 Sym. Ops. (no inversion) found


                                    s                        frac. trans.

      isym =  1     identity                                     

 cryst.   s( 1) = (     1          0          0      )
                  (     0          1          0      )
                  (     0          0          1      )

 cart.    s( 1) = (  1.0000000  0.0000000  0.0000000 )
                  (  0.0000000  1.0000000  0.0000000 )
                  (  0.0000000  0.0000000  1.0000000 )


      isym =  2     120 deg rotation - cryst. axis [0,0,1]       

 cryst.   s( 2) = (     0          1          0      )
                  (    -1         -1          0      )
                  (     0          0          1      )

 cart.    s( 2) = ( -0.5000000 -0.8660254  0.0000000 )
                  (  0.8660254 -0.5000000  0.0000000 )
                  (  0.0000000  0.0000000  1.0000000 )


      isym =  3     120 deg rotation - cryst. axis [0,0,-1]      

 cryst.   s( 3) = (    -1         -1          0      )
                  (     1          0          0      )
                  (     0          0          1      )

 cart.    s( 3) = ( -0.5000000  0.8660254  0.0000000 )
                  ( -0.8660254 -0.5000000  0.0000000 )
                  (  0.0000000  0.0000000  1.0000000 )


      isym =  4     inv. 180 deg rotation - cart. axis [1,0,0]   

 cryst.   s( 4) = (    -1          0          0      )
                  (     1          1          0      )
                  (     0          0          1      )

 cart.    s( 4) = ( -1.0000000  0.0000000  0.0000000 )
                  (  0.0000000  1.0000000  0.0000000 )
                  (  0.0000000  0.0000000  1.0000000 )


      isym =  5     inv. 180 deg rotation - cryst. axis [0,1,0]  

 cryst.   s( 5) = (     1          1          0      )
                  (     0         -1          0      )
                  (     0          0          1      )

 cart.    s( 5) = (  0.5000000  0.8660254  0.0000000 )
                  (  0.8660254 -0.5000000  0.0000000 )
                  (  0.0000000  0.0000000  1.0000000 )


      isym =  6     inv. 180 deg rotation - cryst. axis [1,1,0]  

 cryst.   s( 6) = (     0         -1          0      )
                  (    -1          0          0      )
                  (     0          0          1      )

 cart.    s( 6) = (  0.5000000 -0.8660254  0.0000000 )
                  ( -0.8660254 -0.5000000  0.0000000 )
                  (  0.0000000  0.0000000  1.0000000 )


     point group C_3v (3m)  
     there are  3 classes
     the character table:

       E     2C3   3s_v 
A_1    1.00  1.00  1.00
A_2    1.00  1.00 -1.00
E      2.00 -1.00  0.00

     the symmetry operations in each class and the name of the first element:

     E        1
          identity                                               
     2C3      2    3
          120 deg rotation - cryst. axis [0,0,1]                 
     3s_v     4    5    6
          inv. 180 deg rotation - cart. axis [1,0,0]             

   Cartesian axes

     site n.     atom                  positions (alat units)
         1           C   tau(   1) = (   0.0000000   0.0000000   0.0000000  )
         2           C   tau(   2) = (   0.0000000   0.0000000   1.3401360  )
         3           C   tau(   3) = (   0.5000005   0.2886748   0.0000000  )
         4           C   tau(   4) = (  -0.0000005   0.5773506   1.3401360  )

   Crystallographic axes

     site n.     atom                  positions (cryst. coord.)
         1           C   tau(   1) = (  0.0000000  0.0000000  0.0000000  )
         2           C   tau(   2) = (  0.0000000  0.0000000  0.1675170  )
         3           C   tau(   3) = (  0.6666670  0.3333330  0.0000000  )
         4           C   tau(   4) = (  0.3333330  0.6666670  0.1675170  )

     number of k points=    19  Marzari-Vanderbilt smearing, width (Ry)=  0.0050
                       cart. coord. in units 2pi/alat
        k(    1) = (   0.0000000   0.0000000   0.0000000), wk =   0.0138889
        k(    2) = (   0.0000000   0.0962250   0.0000000), wk =   0.0833333
        k(    3) = (   0.0000000   0.1924501   0.0000000), wk =   0.0833333
        k(    4) = (   0.0000000   0.2886751   0.0000000), wk =   0.0833333
        k(    5) = (   0.0000000   0.3849002   0.0000000), wk =   0.0833333
        k(    6) = (   0.0000000   0.4811252   0.0000000), wk =   0.0833333
        k(    7) = (   0.0000000  -0.5773503   0.0000000), wk =   0.0416667
        k(    8) = (   0.0833333   0.1443376   0.0000000), wk =   0.0833333
        k(    9) = (   0.0833333   0.2405626   0.0000000), wk =   0.1666667
        k(   10) = (   0.0833333   0.3367877   0.0000000), wk =   0.1666667
        k(   11) = (   0.0833333   0.4330127   0.0000000), wk =   0.1666667
        k(   12) = (   0.0833333   0.5292377   0.0000000), wk =   0.1666667
        k(   13) = (   0.1666667   0.2886751   0.0000000), wk =   0.0833333
        k(   14) = (   0.1666667   0.3849002   0.0000000), wk =   0.1666667
        k(   15) = (   0.1666667   0.4811252   0.0000000), wk =   0.1666667
        k(   16) = (   0.1666667   0.5773503   0.0000000), wk =   0.0833333
        k(   17) = (   0.2500000   0.4330127   0.0000000), wk =   0.0833333
        k(   18) = (   0.2500000   0.5292377   0.0000000), wk =   0.1666667
        k(   19) = (   0.3333333   0.5773503   0.0000000), wk =   0.0277778

                       cryst. coord.
        k(    1) = (   0.0000000   0.0000000   0.0000000), wk =   0.0138889
        k(    2) = (   0.0000000   0.0833333   0.0000000), wk =   0.0833333
        k(    3) = (   0.0000000   0.1666667   0.0000000), wk =   0.0833333
        k(    4) = (   0.0000000   0.2500000   0.0000000), wk =   0.0833333
        k(    5) = (   0.0000000   0.3333333   0.0000000), wk =   0.0833333
        k(    6) = (   0.0000000   0.4166667   0.0000000), wk =   0.0833333
        k(    7) = (   0.0000000  -0.5000000   0.0000000), wk =   0.0416667
        k(    8) = (   0.0833333   0.0833333   0.0000000), wk =   0.0833333
        k(    9) = (   0.0833333   0.1666667   0.0000000), wk =   0.1666667
        k(   10) = (   0.0833333   0.2500000   0.0000000), wk =   0.1666667
        k(   11) = (   0.0833333   0.3333333   0.0000000), wk =   0.1666667
        k(   12) = (   0.0833333   0.4166667   0.0000000), wk =   0.1666667
        k(   13) = (   0.1666667   0.1666667   0.0000000), wk =   0.0833333
        k(   14) = (   0.1666667   0.2500000   0.0000000), wk =   0.1666667
        k(   15) = (   0.1666667   0.3333333   0.0000000), wk =   0.1666667
        k(   16) = (   0.1666667   0.4166667   0.0000000), wk =   0.0833333
        k(   17) = (   0.2500000   0.2500000   0.0000000), wk =   0.0833333
        k(   18) = (   0.2500000   0.3333333   0.0000000), wk =   0.1666667
        k(   19) = (   0.3333333   0.3333333   0.0000000), wk =   0.0277778

     Dense  grid:    44285 G-vectors     FFT dimensions: (  24,  24, 192)

     Dynamical RAM for                 wfc:       0.13 MB

     Dynamical RAM for     wfc (w. buffer):       2.52 MB

     Dynamical RAM for           str. fact:       0.08 MB

     Dynamical RAM for           local pot:       0.00 MB

     Dynamical RAM for          nlocal pot:       0.34 MB

     Dynamical RAM for                qrad:       0.36 MB

     Dynamical RAM for          rho,v,vnew:       0.57 MB

     Dynamical RAM for               rhoin:       0.19 MB

     Dynamical RAM for            rho*nmix:       1.35 MB

     Dynamical RAM for           G-vectors:       0.36 MB

     Dynamical RAM for          h,s,v(r/c):       0.03 MB

     Dynamical RAM for          <psi|beta>:       0.01 MB

     Dynamical RAM for                 psi:       0.25 MB

     Dynamical RAM for                hpsi:       0.25 MB

     Dynamical RAM for      wfcinit/wfcrot:       0.34 MB

     Estimated static dynamical RAM per process >       5.11 MB

     Estimated max dynamical RAM per process >       7.00 MB

     Estimated total dynamical RAM >      56.02 MB

     Initial potential from superposition of free atoms

     starting charge      15.9998, renormalised to      16.0000

     negative rho (up, down):  2.374E-05 0.000E+00


     %%%%%%%%%%%%%%%%%%%%%%%%%%%%%%%%%%%%%%%%%%%%%%%%%%%%%%%%%%%%%%%%%%%%%%%%
     %                                                                      %
     % You are using vdW-DF, which was implemented by the Thonhauser group. %
     % Please cite the following two papers that made this development      %
     % possible and the two reviews that describe the various versions:     %
     %                                                                      %
     %   T. Thonhauser et al., PRL 115, 136402 (2015).                      %
     %   T. Thonhauser et al., PRB 76, 125112 (2007).                       %
     %   K. Berland et al., Rep. Prog. Phys. 78, 066501 (2015).             %
     %   D.C. Langreth et al., J. Phys.: Condens. Matter 21, 084203 (2009). %
     %                                                                      %
     % If you are calculating stress with vdW-DF, please also cite:         %
     %                                                                      %
     %   R. Sabatini et al., J. Phys.: Condens. Matter 24, 424209 (2012).   %
     %                                                                      %
     %%%%%%%%%%%%%%%%%%%%%%%%%%%%%%%%%%%%%%%%%%%%%%%%%%%%%%%%%%%%%%%%%%%%%%%%

     %%%%%%%%%%%%%%%%%%%%%%%%%%%%%%%%%%%%%%%%%%%%%%%%%%%%%%%%%%%%%%%%%%%%%%%%
     %                                                                      %
     %  vdW-DF NEWS:                                                        %
     %                                                                      %
     %  * vdW-DF3 is now available. DOI: 10.1021/acs.jctc.0c00471           %
     %    use with input_dft = 'vdW-DF3-opt1' or 'vdW-DF3-opt2'             %
     %                                                                      %
     %  * Unscreened and range-separated hybrid vdW-DF-cx functionals       %
     %    DOI: 10.1063/1.4986522 and 10.1088/1361-648X/ac2ad2               %
     %    use with input_dft = 'vdW-DF-cx0'    and 'vdW-DF-ahcx'            %
     %  * Unscreened and range-separated hybrid vdW-DF2-b86r functionals    %
     %    DOI: 10.1063/1.4986522 and DOI: 10.1103/PhysRevX.12.041003        %
     %    use with input_dft = 'vdW-DF2-br0' and 'vdW-DF2-ahbr'             %
     %                                                                      %
     %%%%%%%%%%%%%%%%%%%%%%%%%%%%%%%%%%%%%%%%%%%%%%%%%%%%%%%%%%%%%%%%%%%%%%%%


     Carrying out vdW-DF run using the following parameters:
     Nqs    =  20  Npoints =  1024  r_max =  100.000
     q_mesh =  0.00001000  0.04494208  0.09755937  0.15916263
               0.23128650  0.31572767  0.41458969  0.53033537
               0.66584808  0.82450364  1.01025438  1.22772762
               1.48234092  1.78043706  2.12944203  2.53805004
               3.01644009  3.57652955  4.23227104  5.00000000


     -----------------------------------------------
     Non-local corr. energy    =       0.17027161 Ry
     -----------------------------------------------

     Starting wfcs are   16 randomized atomic wfcs

     total cpu time spent up to now is        8.7 secs

     Self-consistent Calculation

     iteration #  1     ecut=    60.00 Ry     beta= 0.70
     Davidson diagonalization with overlap

---- Real-time Memory Report at c_bands before calling an iterative solver
             0 MiB given to the printing process from OS
             0 MiB allocation reported by mallinfo(arena+hblkhd)
             0 MiB available memory on the node where the printing process lives
------------------
     ethr =  1.00E-02,  avg # of iterations =  3.5


     -----------------------------------------------
     Non-local corr. energy    =       0.19364201 Ry
     -----------------------------------------------


     total cpu time spent up to now is        9.2 secs

     total energy              =     -48.19949405 Ry
     estimated scf accuracy    <       0.34347097 Ry

     iteration #  2     ecut=    60.00 Ry     beta= 0.70
     Davidson diagonalization with overlap

---- Real-time Memory Report at c_bands before calling an iterative solver
             0 MiB given to the printing process from OS
             0 MiB allocation reported by mallinfo(arena+hblkhd)
             0 MiB available memory on the node where the printing process lives
------------------
     ethr =  2.15E-03,  avg # of iterations =  4.2


     -----------------------------------------------
     Non-local corr. energy    =       0.19438038 Ry
     -----------------------------------------------


     total cpu time spent up to now is        9.7 secs

     total energy              =     -48.24123493 Ry
     estimated scf accuracy    <       0.00540662 Ry

     iteration #  3     ecut=    60.00 Ry     beta= 0.70
     Davidson diagonalization with overlap

---- Real-time Memory Report at c_bands before calling an iterative solver
             0 MiB given to the printing process from OS
             0 MiB allocation reported by mallinfo(arena+hblkhd)
             0 MiB available memory on the node where the printing process lives
------------------
     c_bands:  1 eigenvalues not converged
     ethr =  3.38E-05,  avg # of iterations = 10.9


     -----------------------------------------------
     Non-local corr. energy    =       0.19400770 Ry
     -----------------------------------------------


     total cpu time spent up to now is       10.5 secs

     total energy              =     -48.24259655 Ry
     estimated scf accuracy    <       0.00133095 Ry

     iteration #  4     ecut=    60.00 Ry     beta= 0.70
     Davidson diagonalization with overlap

---- Real-time Memory Report at c_bands before calling an iterative solver
             0 MiB given to the printing process from OS
             0 MiB allocation reported by mallinfo(arena+hblkhd)
             0 MiB available memory on the node where the printing process lives
------------------
     ethr =  8.32E-06,  avg # of iterations =  6.4


     -----------------------------------------------
     Non-local corr. energy    =       0.19394344 Ry
     -----------------------------------------------


     total cpu time spent up to now is       11.2 secs

     total energy              =     -48.24267594 Ry
     estimated scf accuracy    <       0.00133523 Ry

     iteration #  5     ecut=    60.00 Ry     beta= 0.70
     Davidson diagonalization with overlap

---- Real-time Memory Report at c_bands before calling an iterative solver
             0 MiB given to the printing process from OS
             0 MiB allocation reported by mallinfo(arena+hblkhd)
             0 MiB available memory on the node where the printing process lives
------------------
     ethr =  8.32E-06,  avg # of iterations =  5.0


     -----------------------------------------------
     Non-local corr. energy    =       0.19396230 Ry
     -----------------------------------------------


     total cpu time spent up to now is       11.6 secs

     WARNING: integrated charge=    16.00001102, expected=    16.00000000

     total energy              =     -48.24296708 Ry
     estimated scf accuracy    <       0.00235384 Ry

     iteration #  6     ecut=    60.00 Ry     beta= 0.70
     Davidson diagonalization with overlap

---- Real-time Memory Report at c_bands before calling an iterative solver
             0 MiB given to the printing process from OS
             0 MiB allocation reported by mallinfo(arena+hblkhd)
             0 MiB available memory on the node where the printing process lives
------------------
     ethr =  8.32E-06,  avg # of iterations =  3.2


     -----------------------------------------------
     Non-local corr. energy    =       0.19401400 Ry
     -----------------------------------------------


     total cpu time spent up to now is       12.0 secs

     WARNING: integrated charge=    16.00000324, expected=    16.00000000

     total energy              =     -48.24307164 Ry
     estimated scf accuracy    <       0.00016755 Ry

     iteration #  7     ecut=    60.00 Ry     beta= 0.70
     Davidson diagonalization with overlap

---- Real-time Memory Report at c_bands before calling an iterative solver
             0 MiB given to the printing process from OS
             0 MiB allocation reported by mallinfo(arena+hblkhd)
             0 MiB available memory on the node where the printing process lives
------------------
     ethr =  1.05E-06,  avg # of iterations =  3.1


     -----------------------------------------------
     Non-local corr. energy    =       0.19409009 Ry
     -----------------------------------------------


     total cpu time spent up to now is       12.4 secs

     total energy              =     -48.24308226 Ry
     estimated scf accuracy    <       0.00000187 Ry

     iteration #  8     ecut=    60.00 Ry     beta= 0.70
     Davidson diagonalization with overlap

---- Real-time Memory Report at c_bands before calling an iterative solver
             0 MiB given to the printing process from OS
             0 MiB allocation reported by mallinfo(arena+hblkhd)
             0 MiB available memory on the node where the printing process lives
------------------
     ethr =  1.17E-08,  avg # of iterations =  3.2


     -----------------------------------------------
     Non-local corr. energy    =       0.19408144 Ry
     -----------------------------------------------


     total cpu time spent up to now is       12.8 secs

     total energy              =     -48.24308223 Ry
     estimated scf accuracy    <       0.00000665 Ry

     iteration #  9     ecut=    60.00 Ry     beta= 0.70
     Davidson diagonalization with overlap

---- Real-time Memory Report at c_bands before calling an iterative solver
             0 MiB given to the printing process from OS
             0 MiB allocation reported by mallinfo(arena+hblkhd)
             0 MiB available memory on the node where the printing process lives
------------------
     ethr =  1.17E-08,  avg # of iterations =  1.8


     -----------------------------------------------
     Non-local corr. energy    =       0.19408071 Ry
     -----------------------------------------------


     total cpu time spent up to now is       13.2 secs

     total energy              =     -48.24308308 Ry
     estimated scf accuracy    <       0.00000148 Ry

     iteration # 10     ecut=    60.00 Ry     beta= 0.70
     Davidson diagonalization with overlap

---- Real-time Memory Report at c_bands before calling an iterative solver
             0 MiB given to the printing process from OS
             0 MiB allocation reported by mallinfo(arena+hblkhd)
             0 MiB available memory on the node where the printing process lives
------------------
     ethr =  9.28E-09,  avg # of iterations =  1.3


     -----------------------------------------------
     Non-local corr. energy    =       0.19408375 Ry
     -----------------------------------------------


     total cpu time spent up to now is       13.5 secs

     End of self-consistent calculation

          k = 0.0000 0.0000 0.0000 (  5505 PWs)   bands (ev):

   -20.1542 -19.9812  -8.7243  -7.6488  -3.6374  -3.6374  -3.6266  -3.6265
     2.5623   2.9842   4.0522   5.1902

     occupation numbers 
     1.0000   1.0000   1.0000   1.0000   1.0000   1.0000   1.0000   1.0000
     0.0000   0.0000   0.0000   0.0000

          k = 0.0000 0.0962 0.0000 (  5518 PWs)   bands (ev):

   -19.9898 -19.8185  -8.5247  -7.4561  -4.2921  -4.2729  -3.9783  -3.9621
     2.7824   3.2061   4.2785   5.4146

     occupation numbers 
     1.0000   1.0000   1.0000   1.0000   1.0000   1.0000   1.0000   1.0000
     0.0000   0.0000   0.0000   0.0000

          k = 0.0000 0.1925 0.0000 (  5532 PWs)   bands (ev):

   -19.4986 -19.3325  -7.9321  -6.8847  -5.9360  -5.8975  -4.7725  -4.7497
     3.4425   3.8702   4.9574   6.0871

     occupation numbers 
     1.0000   1.0000   1.0000   1.0000   1.0000   1.0000   1.0000   1.0000
     0.0000   0.0000   0.0000   0.0000

          k = 0.0000 0.2887 0.0000 (  5500 PWs)   bands (ev):

   -18.6859 -18.5284  -8.0394  -7.9810  -6.9621  -5.9551  -5.6529  -5.6261
     4.5393   4.9611   6.0864   6.4859

     occupation numbers 
     1.0000   1.0000   1.0000   1.0000   1.0000   1.0000   1.0000   1.0000
     0.0000   0.0000   0.0000   0.0000

          k = 0.0000 0.3849 0.0000 (  5544 PWs)   bands (ev):

   -17.5654 -17.4193 -10.2471 -10.1701  -6.3884  -6.3587  -5.6598  -4.7280
     4.0751   4.5874   6.0654   6.5357

     occupation numbers 
     1.0000   1.0000   1.0000   1.0000   1.0000   1.0000   1.0000   1.0000
     0.0000   0.0000   0.0000   0.0000

          k = 0.0000 0.4811 0.0000 (  5530 PWs)   bands (ev):

   -16.1665 -16.0366 -12.3496 -12.2558  -6.8623  -6.8316  -4.1593  -3.3999
     1.9276   2.4870   6.8445   7.0607

     occupation numbers 
     1.0000   1.0000   1.0000   1.0000   1.0000   1.0000   1.0000   1.0000
     0.0000   0.0000   0.0000   0.0000

          k = 0.0000-0.5774 0.0000 (  5540 PWs)   bands (ev):

   -14.8828 -14.8174 -13.8216 -13.7721  -7.0251  -6.9942  -3.1576  -2.7595
     0.9438   1.3252   6.7577   6.9856

     occupation numbers 
     1.0000   1.0000   1.0000   1.0000   1.0000   1.0000   1.0000   1.0000
     0.0000   0.0000   0.0000   0.0000

          k = 0.0833 0.1443 0.0000 (  5513 PWs)   bands (ev):

   -19.6620 -19.4941  -8.1285  -7.0736  -5.3252  -5.3056  -4.6508  -4.6369
     3.2227   3.6493   4.7312   5.8636

     occupation numbers 
     1.0000   1.0000   1.0000   1.0000   1.0000   1.0000   1.0000   1.0000
     0.0000   0.0000   0.0000   0.0000

          k = 0.0833 0.2406 0.0000 (  5507 PWs)   bands (ev):

   -19.0101 -18.8491  -7.3467  -7.0416  -7.0017  -6.3217  -5.6521  -5.6265
     4.1022   4.5318   5.6362   6.7568

     occupation numbers 
     1.0000   1.0000   1.0000   1.0000   1.0000   1.0000   1.0000   1.0000
     0.0000   0.0000   0.0000   0.0000

          k = 0.0833 0.3368 0.0000 (  5525 PWs)   bands (ev):

   -18.0434 -17.8925  -9.1214  -9.0575  -6.5428  -6.5088  -6.2053  -5.2358
     5.1273   5.4122   5.5510   5.8925

     occupation numbers 
     1.0000   1.0000   1.0000   1.0000   1.0000   1.0000   1.0000   1.0000
     0.0000   0.0000   0.0000   0.0000

          k = 0.0833 0.4330 0.0000 (  5525 PWs)   bands (ev):

   -16.7807 -16.6431 -11.2487 -11.1645  -7.1797  -7.1420  -4.7762  -3.9136
     2.8894   3.4058   7.1425   7.5581

     occupation numbers 
     1.0000   1.0000   1.0000   1.0000   1.0000   1.0000   1.0000   1.0000
     0.0000   0.0000   0.0000   0.0000

          k = 0.0833 0.5292 0.0000 (  5533 PWs)   bands (ev):

   -15.2964 -15.1823 -13.1869 -13.0938  -7.5095  -7.4701  -3.3398  -2.7692
     1.1766   1.6206   7.4853   7.7229

     occupation numbers 
     1.0000   1.0000   1.0000   1.0000   1.0000   1.0000   1.0000   1.0000
     0.0000   0.0000   0.0000   0.0000

          k = 0.1667 0.2887 0.0000 (  5510 PWs)   bands (ev):

   -18.2039 -18.0515  -8.3688  -8.3370  -7.0055  -6.9820  -6.3896  -5.4079
     5.1980   5.6256   5.6579   5.9324

     occupation numbers 
     1.0000   1.0000   1.0000   1.0000   1.0000   1.0000   1.0000   1.0000
     0.0000   0.0000   0.0000   0.0000

          k = 0.1667 0.3849 0.0000 (  5515 PWs)   bands (ev):

   -17.0938 -16.9529 -10.1055 -10.0451  -8.0697  -8.0280  -5.1012  -4.1950
     3.6726   4.0290   6.7214   7.1408

     occupation numbers 
     1.0000   1.0000   1.0000   1.0000   1.0000   1.0000   1.0000   1.0000
     0.0000   0.0000   0.0000   0.0000

          k = 0.1667 0.4811 0.0000 (  5530 PWs)   bands (ev):

   -15.7154 -15.5899 -12.0211 -11.9361  -8.6523  -8.5999  -3.6028  -2.8557
     1.7346   2.1593   8.6409   8.9823

     occupation numbers 
     1.0000   1.0000   1.0000   1.0000   1.0000   1.0000   1.0000   1.0000
     0.0000   0.0000   0.0000   0.0000

          k = 0.1667 0.5774 0.0000 (  5518 PWs)   bands (ev):

   -14.4609 -14.3985 -13.4226 -13.3795  -8.8388  -8.7838  -2.5583  -2.1666
     0.8138   0.9980   9.2255   9.5368

     occupation numbers 
     1.0000   1.0000   1.0000   1.0000   1.0000   1.0000   1.0000   1.0000
     0.0000   0.0000   0.0000   0.0000

          k = 0.2500 0.4330 0.0000 (  5486 PWs)   bands (ev):

   -15.8633 -15.7355 -11.1350 -11.0908  -9.5382  -9.5055  -3.7101  -2.9084
     2.0684   2.4085   8.4303   8.7340

     occupation numbers 
     1.0000   1.0000   1.0000   1.0000   1.0000   1.0000   1.0000   1.0000
     0.0000   0.0000   0.0000   0.0000

          k = 0.2500 0.5292 0.0000 (  5487 PWs)   bands (ev):

   -14.4361 -14.3317 -12.5612 -12.4913 -10.2569 -10.2016  -2.2262  -1.6518
     0.5795   0.8876   9.9557  10.2564

     occupation numbers 
     1.0000   1.0000   1.0000   1.0000   1.0000   1.0000   1.0000   1.0000
     0.0000   0.0000   0.0000   0.0000

          k = 0.3333 0.5774 0.0000 (  5484 PWs)   bands (ev):

   -13.2299 -13.1726 -13.1711 -13.1197 -11.1141 -11.1127  -0.9458  -0.5815
    -0.5800  -0.1897   9.8674   9.8681

     occupation numbers 
     1.0000   1.0000   1.0000   1.0000   1.0000   1.0000   1.0000   0.5083
     0.4917   0.0000   0.0000   0.0000

     the Fermi energy is    -0.5713 ev

!    total energy              =     -48.24308290 Ry
     estimated scf accuracy    <       0.00000024 Ry
     smearing contrib. (-TS)   =      -0.00004557 Ry
     internal energy E=F+TS    =     -48.24303733 Ry

     The total energy is F=E-TS. E is the sum of the following terms:
     one-electron contribution =    -529.06296474 Ry
     hartree contribution      =     268.20215897 Ry
     xc contribution           =     -17.20841960 Ry
     ewald contribution        =     229.82618804 Ry

     convergence has been achieved in  10 iterations


     -----------------------------------------------
     Non-local corr. energy    =       0.19408375 Ry
     -----------------------------------------------


     Forces acting on atoms (cartesian axes, Ry/au):

     atom    1 type  1   force =     0.00000000    0.00000000    0.00040415
     atom    2 type  1   force =     0.00000000    0.00000000   -0.00041002
     atom    3 type  1   force =     0.00000000    0.00000000   -0.00085726
     atom    4 type  1   force =     0.00000000   -0.00000000    0.00086313
     The non-local contrib.  to forces
     atom    1 type  1   force =     0.00000000    0.00000000    0.00055984
     atom    2 type  1   force =     0.00000000    0.00000000   -0.00054496
     atom    3 type  1   force =     0.00000000    0.00000000   -0.00114784
     atom    4 type  1   force =     0.00000000    0.00000000    0.00118107
     The ionic contribution  to forces
     atom    1 type  1   force =     0.00000851   -0.00000491  -14.19328446
     atom    2 type  1   force =    -0.00000851    0.00000491   14.19328446
     atom    3 type  1   force =    -0.00000852    0.00000492  -14.18753220
     atom    4 type  1   force =     0.00000852   -0.00000492   14.18753220
     The local contribution  to forces
     atom    1 type  1   force =    -0.00000000    0.00000000   14.19377068
     atom    2 type  1   force =     0.00000000   -0.00000000  -14.19270660
     atom    3 type  1   force =    -0.00000677    0.00000391   14.18838750
     atom    4 type  1   force =     0.00000677   -0.00000391  -14.18733156
     The core correction contribution to forces
     atom    1 type  1   force =    -0.00000000    0.00000000   -0.00009988
     atom    2 type  1   force =     0.00000000   -0.00000000    0.00010035
     atom    3 type  1   force =     0.00000056   -0.00000032   -0.00002747
     atom    4 type  1   force =    -0.00000056    0.00000032    0.00002713
     The Hubbard contrib.    to forces
     atom    1 type  1   force =     0.00000000    0.00000000    0.00000000
     atom    2 type  1   force =     0.00000000    0.00000000    0.00000000
     atom    3 type  1   force =     0.00000000    0.00000000    0.00000000
     atom    4 type  1   force =     0.00000000    0.00000000    0.00000000
     The SCF correction term to forces
     atom    1 type  1   force =    -0.00000000    0.00000000   -0.00000000
     atom    2 type  1   force =    -0.00000000    0.00000000   -0.00053846
     atom    3 type  1   force =    -0.00000000    0.00000000   -0.00000000
     atom    4 type  1   force =    -0.00000000    0.00000000   -0.00054088

     Total force =     0.000956     Total SCF correction =     0.000763
     SCF correction compared to forces is large: reduce conv_thr to get better values


     Computing stress (Cartesian axis) and pressure



     -----------------------------------------------
     Non-local corr. energy    =       0.19408375 Ry
     -----------------------------------------------

          total   stress  (Ry/bohr**3)                   (kbar)     P=      -15.00
  -0.00009987   0.00000000   0.00000000          -14.69        0.00        0.00
   0.00000000  -0.00009987  -0.00000000            0.00      -14.69       -0.00
   0.00000000  -0.00000000  -0.00010609            0.00       -0.00      -15.61

     kinetic stress (kbar)   4517.23     -0.00      0.00
                               -0.00   4517.23      0.00
                                0.00      0.00   4973.02

     local   stress (kbar)-115136.20      0.00     -0.00
                                0.00-115136.20      0.00
                               -0.00      0.00 116483.24

     nonloc. stress (kbar)   -463.55      0.00      0.00
                                0.00   -463.55      0.00
                                0.00      0.00   -387.57

     hartree stress (kbar)  55765.70      0.00      0.00
                                0.00  55765.70     -0.00
                                0.00     -0.00 -55418.53

     exc-cor stress (kbar)   -360.58     -0.00     -0.00
                               -0.00   -360.58      0.00
                               -0.00      0.00   -420.13

     corecor stress (kbar)   -686.84      0.00      0.00
                                0.00   -686.84     -0.00
                                0.00     -0.00   -668.00

     ewald   stress (kbar)  56346.45     -0.01      0.00
                               -0.01  56346.44     -0.00
                                0.00     -0.00 -64608.99

     hubbard stress (kbar)      0.00      0.00      0.00
                                0.00      0.00      0.00
                                0.00      0.00      0.00

     DFT-D   stress (kbar)      0.00      0.00      0.00
                                0.00      0.00      0.00
                                0.00      0.00      0.00

     XDM     stress (kbar)      0.00      0.00      0.00
                                0.00      0.00      0.00
                                0.00      0.00      0.00

     dft-nl  stress (kbar)      3.11      0.00      0.00
                                0.00      3.11     -0.00
                                0.00     -0.00     31.36

     TS-vdW  stress (kbar)      0.00      0.00      0.00
                                0.00      0.00      0.00
                                0.00      0.00      0.00

     MDB     stress (kbar)      0.00      0.00      0.00
                                0.00      0.00      0.00
                                0.00      0.00      0.00

     3D-RISM stress (kbar)      0.00      0.00      0.00
                                0.00      0.00      0.00
                                0.00      0.00      0.00


     Writing all to output data dir ./tmp/C2L_AB_PBE_vdW.save/

     init_run     :      8.53s CPU      8.59s WALL (       1 calls)
     electrons    :      4.63s CPU      4.84s WALL (       1 calls)
     forces       :      0.11s CPU      0.12s WALL (       1 calls)
     stress       :      0.44s CPU      0.47s WALL (       1 calls)

     Called by init_run:
     wfcinit      :      0.14s CPU      0.14s WALL (       1 calls)
     wfcinit:atom :      0.00s CPU      0.00s WALL (      19 calls)
     wfcinit:wfcr :      0.13s CPU      0.13s WALL (      19 calls)
     potinit      :      8.07s CPU      8.10s WALL (       1 calls)
     hinit0       :      0.30s CPU      0.32s WALL (       1 calls)

     Called by electrons:
     c_bands      :      3.79s CPU      3.91s WALL (      10 calls)
     sum_band     :      0.40s CPU      0.41s WALL (      10 calls)
     v_of_rho     :      8.47s CPU      8.54s WALL (      11 calls)
     v_h          :      0.00s CPU      0.00s WALL (      11 calls)
     v_xc         :      8.55s CPU      8.63s WALL (      13 calls)
     mix_rho      :      0.02s CPU      0.05s WALL (      10 calls)
     vdW_kernel   :      8.01s CPU      8.03s WALL (       1 calls)

     Called by c_bands:
     init_us_2    :      0.06s CPU      0.06s WALL (     437 calls)
     init_us_2:cp :      0.06s CPU      0.06s WALL (     437 calls)
     cegterg      :      3.67s CPU      3.78s WALL (     190 calls)

     Called by sum_band:
     sum_band:wei :      0.00s CPU      0.00s WALL (      10 calls)
     sum_band:loo :      0.39s CPU      0.40s WALL (      10 calls)
     sum_band:buf :      0.01s CPU      0.01s WALL (     190 calls)
     sum_band:ini :      0.02s CPU      0.02s WALL (     190 calls)

     Called by *egterg:
     cdiaghg      :      0.19s CPU      0.19s WALL (     998 calls)
     cegterg:over :      0.22s CPU      0.23s WALL (     808 calls)
     cegterg:upda :      0.20s CPU      0.23s WALL (     808 calls)
     cegterg:last :      0.23s CPU      0.20s WALL (     448 calls)
     h_psi        :      2.79s CPU      2.85s WALL (    1017 calls)
     g_psi        :      0.02s CPU      0.03s WALL (     808 calls)

     Called by h_psi:
     h_psi:calbec :      0.20s CPU      0.21s WALL (    1017 calls)
     vloc_psi     :      2.31s CPU      2.38s WALL (    1017 calls)
     add_vuspsi   :      0.25s CPU      0.23s WALL (    1017 calls)

     General routines
     calbec       :      0.23s CPU      0.24s WALL (    1112 calls)
     fft          :      0.46s CPU      0.49s WALL (     828 calls)
     ffts         :      0.00s CPU      0.00s WALL (      10 calls)
     fftw         :      2.38s CPU      2.45s WALL (   15558 calls)

     Parallel routines

     PWSCF        :     13.78s CPU     14.15s WALL


   This run was terminated on:  14:13: 4  13Apr2024            

=------------------------------------------------------------------------------=
   JOB DONE.
=------------------------------------------------------------------------------=
