
     Program PWSCF v.7.2 starts on 26Mar2024 at 19:42:17 

     This program is part of the open-source Quantum ESPRESSO suite
     for quantum simulation of materials; please cite
         "P. Giannozzi et al., J. Phys.:Condens. Matter 21 395502 (2009);
         "P. Giannozzi et al., J. Phys.:Condens. Matter 29 465901 (2017);
         "P. Giannozzi et al., J. Chem. Phys. 152 154105 (2020);
          URL http://www.quantum-espresso.org", 
     in publications or presentations arising from this work. More details at
     http://www.quantum-espresso.org/quote

     Parallel version (MPI & OpenMP), running on       1 processor cores
     Number of MPI processes:                 1
     Threads/MPI process:                     1

     MPI processes distributed on     1 nodes
     0 MiB available memory on the printing compute node when the environment starts

     Waiting for input...
     Reading input from standard input

     Current dimensions of program PWSCF are:
     Max number of different atomic species (ntypx) = 10
     Max number of k-points (npk) =  40000
     Max angular momentum in pseudopotentials (lmaxx) =  4

     Subspace diagonalization in iterative solution of the eigenvalue problem:
     a serial algorithm will be used


     G-vector sticks info
     --------------------
     sticks:   dense  smooth     PW     G-vecs:    dense   smooth      PW
     Sum         475     475    151                50025    50025    8409

     Using Slab Decomposition



     bravais-lattice index     =            4
     lattice parameter (alat)  =       4.6350  a.u.
     unit-cell volume          =     517.4056 (a.u.)^3
     number of atoms/cell      =            2
     number of atomic types    =            1
     number of electrons       =         8.00
     number of Kohn-Sham states=            8
     kinetic-energy cutoff     =      80.0000  Ry
     charge density cutoff     =     320.0000  Ry
     scf convergence threshold =      1.0E-06
     mixing beta               =       0.7000
     number of iterations used =            8  plain     mixing
     energy convergence thresh.=      1.0E-04
     force convergence thresh. =      1.0E-03
     press convergence thresh. =      5.0E-01
     Exchange-correlation= PBE
                           (   1   4   3   4   0   0   0)
     nstep                     =           50


     celldm(1)=   4.635000  celldm(2)=   0.000000  celldm(3)=   6.000000
     celldm(4)=   0.000000  celldm(5)=   0.000000  celldm(6)=   0.000000

     crystal axes: (cart. coord. in units of alat)
               a(1) = (   1.000000   0.000000   0.000000 )  
               a(2) = (  -0.500000   0.866025   0.000000 )  
               a(3) = (   0.000000   0.000000   6.000000 )  

     reciprocal axes: (cart. coord. in units 2 pi/alat)
               b(1) = (  1.000000  0.577350 -0.000000 )  
               b(2) = (  0.000000  1.154701  0.000000 )  
               b(3) = (  0.000000 -0.000000  0.166667 )  


     PseudoPot. # 1 for C  read from file:
     ../../../Pseudo/PBE/C.upf
     MD5 check sum: 34a24e64c0a39f27c6c36b90a16ac686
     Pseudo is Norm-conserving + core correction, Zval =  4.0
     Generated using ONCVPSP code by D. R. Hamann
     Using radial grid of 1248 points,  4 beta functions with: 
                l(1) =   0
                l(2) =   0
                l(3) =   1
                l(4) =   1

     atomic species   valence    mass     pseudopotential
        C              4.00    12.01100     C ( 1.00)

     24 Sym. Ops., with inversion, found (12 have fractional translation)


                                    s                        frac. trans.

      isym =  1     identity                                     

 cryst.   s( 1) = (     1          0          0      )
                  (     0          1          0      )
                  (     0          0          1      )

 cart.    s( 1) = (  1.0000000  0.0000000  0.0000000 )
                  (  0.0000000  1.0000000  0.0000000 )
                  (  0.0000000  0.0000000  1.0000000 )


      isym =  2     180 deg rotation - cart. axis [0,0,1]        

 cryst.   s( 2) = (    -1          0          0      )    f =( -0.3333333 )
                  (     0         -1          0      )       (  0.3333333 )
                  (     0          0          1      )       (  0.0000000 )

 cart.    s( 2) = ( -1.0000000  0.0000000  0.0000000 )    f =( -0.5000000 )
                  (  0.0000000 -1.0000000  0.0000000 )       (  0.2886751 )
                  (  0.0000000  0.0000000  1.0000000 )       (  0.0000000 )


      isym =  3     180 deg rotation - cart. axis [0,1,0]        

 cryst.   s( 3) = (    -1          0          0      )
                  (     1          1          0      )
                  (     0          0         -1      )

 cart.    s( 3) = ( -1.0000000  0.0000000  0.0000000 )
                  (  0.0000000  1.0000000  0.0000000 )
                  (  0.0000000  0.0000000 -1.0000000 )


      isym =  4     180 deg rotation - cart. axis [1,0,0]        

 cryst.   s( 4) = (     1          0          0      )    f =( -0.3333333 )
                  (    -1         -1          0      )       (  0.3333333 )
                  (     0          0         -1      )       (  0.0000000 )

 cart.    s( 4) = (  1.0000000  0.0000000  0.0000000 )    f =( -0.5000000 )
                  (  0.0000000 -1.0000000  0.0000000 )       (  0.2886751 )
                  (  0.0000000  0.0000000 -1.0000000 )       (  0.0000000 )


      isym =  5      60 deg rotation - cryst. axis [0,0,1]       

 cryst.   s( 5) = (     1          1          0      )    f =( -0.3333333 )
                  (    -1          0          0      )       (  0.3333333 )
                  (     0          0          1      )       (  0.0000000 )

 cart.    s( 5) = (  0.5000000 -0.8660254  0.0000000 )    f =( -0.5000000 )
                  (  0.8660254  0.5000000  0.0000000 )       (  0.2886751 )
                  (  0.0000000  0.0000000  1.0000000 )       (  0.0000000 )


      isym =  6      60 deg rotation - cryst. axis [0,0,-1]      

 cryst.   s( 6) = (     0         -1          0      )    f =( -0.3333333 )
                  (     1          1          0      )       (  0.3333333 )
                  (     0          0          1      )       (  0.0000000 )

 cart.    s( 6) = (  0.5000000  0.8660254  0.0000000 )    f =( -0.5000000 )
                  ( -0.8660254  0.5000000  0.0000000 )       (  0.2886751 )
                  (  0.0000000  0.0000000  1.0000000 )       (  0.0000000 )


      isym =  7     120 deg rotation - cryst. axis [0,0,1]       

 cryst.   s( 7) = (     0          1          0      )
                  (    -1         -1          0      )
                  (     0          0          1      )

 cart.    s( 7) = ( -0.5000000 -0.8660254  0.0000000 )
                  (  0.8660254 -0.5000000  0.0000000 )
                  (  0.0000000  0.0000000  1.0000000 )


      isym =  8     120 deg rotation - cryst. axis [0,0,-1]      

 cryst.   s( 8) = (    -1         -1          0      )
                  (     1          0          0      )
                  (     0          0          1      )

 cart.    s( 8) = ( -0.5000000  0.8660254  0.0000000 )
                  ( -0.8660254 -0.5000000  0.0000000 )
                  (  0.0000000  0.0000000  1.0000000 )


      isym =  9     180 deg rotation - cryst. axis [1,-1,0]      

 cryst.   s( 9) = (     0         -1          0      )
                  (    -1          0          0      )
                  (     0          0         -1      )

 cart.    s( 9) = (  0.5000000 -0.8660254  0.0000000 )
                  ( -0.8660254 -0.5000000  0.0000000 )
                  (  0.0000000  0.0000000 -1.0000000 )


      isym = 10     180 deg rotation - cryst. axis [2,1,0]       

 cryst.   s(10) = (     1          1          0      )
                  (     0         -1          0      )
                  (     0          0         -1      )

 cart.    s(10) = (  0.5000000  0.8660254  0.0000000 )
                  (  0.8660254 -0.5000000  0.0000000 )
                  (  0.0000000  0.0000000 -1.0000000 )


      isym = 11     180 deg rotation - cryst. axis [0,1,0]       

 cryst.   s(11) = (    -1         -1          0      )    f =( -0.3333333 )
                  (     0          1          0      )       (  0.3333333 )
                  (     0          0         -1      )       (  0.0000000 )

 cart.    s(11) = ( -0.5000000 -0.8660254  0.0000000 )    f =( -0.5000000 )
                  ( -0.8660254  0.5000000  0.0000000 )       (  0.2886751 )
                  (  0.0000000  0.0000000 -1.0000000 )       (  0.0000000 )


      isym = 12     180 deg rotation - cryst. axis [1,1,0]       

 cryst.   s(12) = (     0          1          0      )    f =( -0.3333333 )
                  (     1          0          0      )       (  0.3333333 )
                  (     0          0         -1      )       (  0.0000000 )

 cart.    s(12) = ( -0.5000000  0.8660254  0.0000000 )    f =( -0.5000000 )
                  (  0.8660254  0.5000000  0.0000000 )       (  0.2886751 )
                  (  0.0000000  0.0000000 -1.0000000 )       (  0.0000000 )


      isym = 13     inversion                                    

 cryst.   s(13) = (    -1          0          0      )    f =( -0.3333333 )
                  (     0         -1          0      )       (  0.3333333 )
                  (     0          0         -1      )       (  0.0000000 )

 cart.    s(13) = ( -1.0000000  0.0000000  0.0000000 )    f =( -0.5000000 )
                  (  0.0000000 -1.0000000  0.0000000 )       (  0.2886751 )
                  (  0.0000000  0.0000000 -1.0000000 )       (  0.0000000 )


      isym = 14     inv. 180 deg rotation - cart. axis [0,0,1]   

 cryst.   s(14) = (     1          0          0      )
                  (     0          1          0      )
                  (     0          0         -1      )

 cart.    s(14) = (  1.0000000  0.0000000  0.0000000 )
                  (  0.0000000  1.0000000  0.0000000 )
                  (  0.0000000  0.0000000 -1.0000000 )


      isym = 15     inv. 180 deg rotation - cart. axis [0,1,0]   

 cryst.   s(15) = (     1          0          0      )    f =( -0.3333333 )
                  (    -1         -1          0      )       (  0.3333333 )
                  (     0          0          1      )       (  0.0000000 )

 cart.    s(15) = (  1.0000000  0.0000000  0.0000000 )    f =( -0.5000000 )
                  (  0.0000000 -1.0000000  0.0000000 )       (  0.2886751 )
                  (  0.0000000  0.0000000  1.0000000 )       (  0.0000000 )


      isym = 16     inv. 180 deg rotation - cart. axis [1,0,0]   

 cryst.   s(16) = (    -1          0          0      )
                  (     1          1          0      )
                  (     0          0          1      )

 cart.    s(16) = ( -1.0000000  0.0000000  0.0000000 )
                  (  0.0000000  1.0000000  0.0000000 )
                  (  0.0000000  0.0000000  1.0000000 )


      isym = 17     inv.  60 deg rotation - cryst. axis [0,0,1]  

 cryst.   s(17) = (    -1         -1          0      )
                  (     1          0          0      )
                  (     0          0         -1      )

 cart.    s(17) = ( -0.5000000  0.8660254  0.0000000 )
                  ( -0.8660254 -0.5000000  0.0000000 )
                  (  0.0000000  0.0000000 -1.0000000 )


      isym = 18     inv.  60 deg rotation - cryst. axis [0,0,-1] 

 cryst.   s(18) = (     0          1          0      )
                  (    -1         -1          0      )
                  (     0          0         -1      )

 cart.    s(18) = ( -0.5000000 -0.8660254  0.0000000 )
                  (  0.8660254 -0.5000000  0.0000000 )
                  (  0.0000000  0.0000000 -1.0000000 )


      isym = 19     inv. 120 deg rotation - cryst. axis [0,0,1]  

 cryst.   s(19) = (     0         -1          0      )    f =( -0.3333333 )
                  (     1          1          0      )       (  0.3333333 )
                  (     0          0         -1      )       (  0.0000000 )

 cart.    s(19) = (  0.5000000  0.8660254  0.0000000 )    f =( -0.5000000 )
                  ( -0.8660254  0.5000000  0.0000000 )       (  0.2886751 )
                  (  0.0000000  0.0000000 -1.0000000 )       (  0.0000000 )


      isym = 20     inv. 120 deg rotation - cryst. axis [0,0,-1] 

 cryst.   s(20) = (     1          1          0      )    f =( -0.3333333 )
                  (    -1          0          0      )       (  0.3333333 )
                  (     0          0         -1      )       (  0.0000000 )

 cart.    s(20) = (  0.5000000 -0.8660254  0.0000000 )    f =( -0.5000000 )
                  (  0.8660254  0.5000000  0.0000000 )       (  0.2886751 )
                  (  0.0000000  0.0000000 -1.0000000 )       (  0.0000000 )


      isym = 21     inv. 180 deg rotation - cryst. axis [1,-1,0] 

 cryst.   s(21) = (     0          1          0      )    f =( -0.3333333 )
                  (     1          0          0      )       (  0.3333333 )
                  (     0          0          1      )       (  0.0000000 )

 cart.    s(21) = ( -0.5000000  0.8660254  0.0000000 )    f =( -0.5000000 )
                  (  0.8660254  0.5000000  0.0000000 )       (  0.2886751 )
                  (  0.0000000  0.0000000  1.0000000 )       (  0.0000000 )


      isym = 22     inv. 180 deg rotation - cryst. axis [2,1,0]  

 cryst.   s(22) = (    -1         -1          0      )    f =( -0.3333333 )
                  (     0          1          0      )       (  0.3333333 )
                  (     0          0          1      )       (  0.0000000 )

 cart.    s(22) = ( -0.5000000 -0.8660254  0.0000000 )    f =( -0.5000000 )
                  ( -0.8660254  0.5000000  0.0000000 )       (  0.2886751 )
                  (  0.0000000  0.0000000  1.0000000 )       (  0.0000000 )


      isym = 23     inv. 180 deg rotation - cryst. axis [0,1,0]  

 cryst.   s(23) = (     1          1          0      )
                  (     0         -1          0      )
                  (     0          0          1      )

 cart.    s(23) = (  0.5000000  0.8660254  0.0000000 )
                  (  0.8660254 -0.5000000  0.0000000 )
                  (  0.0000000  0.0000000  1.0000000 )


      isym = 24     inv. 180 deg rotation - cryst. axis [1,1,0]  

 cryst.   s(24) = (     0         -1          0      )
                  (    -1          0          0      )
                  (     0          0          1      )

 cart.    s(24) = (  0.5000000 -0.8660254  0.0000000 )
                  ( -0.8660254 -0.5000000  0.0000000 )
                  (  0.0000000  0.0000000  1.0000000 )


     point group D_6h(6/mmm)
     there are 12 classes
     the character table:

       E     2C6   2C3   C2    3C2'  3C2'' i     2S3   2S6   s_h   3s_d  3s_v 
A_1g   1.00  1.00  1.00  1.00  1.00  1.00  1.00  1.00  1.00  1.00  1.00  1.00
A_2g   1.00  1.00  1.00  1.00 -1.00 -1.00  1.00  1.00  1.00  1.00 -1.00 -1.00
B_1g   1.00 -1.00  1.00 -1.00  1.00 -1.00  1.00 -1.00  1.00 -1.00  1.00 -1.00
B_2g   1.00 -1.00  1.00 -1.00 -1.00  1.00  1.00 -1.00  1.00 -1.00 -1.00  1.00
E_1g   2.00  1.00 -1.00 -2.00  0.00  0.00  2.00  1.00 -1.00 -2.00  0.00  0.00
E_2g   2.00 -1.00 -1.00  2.00  0.00  0.00  2.00 -1.00 -1.00  2.00  0.00  0.00
A_1u   1.00  1.00  1.00  1.00  1.00  1.00 -1.00 -1.00 -1.00 -1.00 -1.00 -1.00
A_2u   1.00  1.00  1.00  1.00 -1.00 -1.00 -1.00 -1.00 -1.00 -1.00  1.00  1.00
B_1u   1.00 -1.00  1.00 -1.00  1.00 -1.00 -1.00  1.00 -1.00  1.00 -1.00  1.00
B_2u   1.00 -1.00  1.00 -1.00 -1.00  1.00 -1.00  1.00 -1.00  1.00  1.00 -1.00
E_1u   2.00  1.00 -1.00 -2.00  0.00  0.00 -2.00 -1.00  1.00  2.00  0.00  0.00
E_2u   2.00 -1.00 -1.00  2.00  0.00  0.00 -2.00  1.00  1.00 -2.00  0.00  0.00

     the symmetry operations in each class and the name of the first element:

     E        1
          identity                                               
     2C6      5    6
           60 deg rotation - cryst. axis [0,0,1]                 
     2C3      7    8
          120 deg rotation - cryst. axis [0,0,1]                 
     C2       2
          180 deg rotation - cart. axis [0,0,1]                  
     3C2'     4   12   11
          180 deg rotation - cart. axis [1,0,0]                  
     3C2''    3    9   10
          180 deg rotation - cart. axis [0,1,0]                  
     i       13
          inversion                                              
     2S3     17   18
          inv.  60 deg rotation - cryst. axis [0,0,1]            
     2S6     19   20
          inv. 120 deg rotation - cryst. axis [0,0,1]            
     s_h     14
          inv. 180 deg rotation - cart. axis [0,0,1]             
     3s_d    16   24   23
          inv. 180 deg rotation - cart. axis [1,0,0]             
     3s_v    15   21   22
          inv. 180 deg rotation - cart. axis [0,1,0]             

   Cartesian axes

     site n.     atom                  positions (alat units)
         1           C   tau(   1) = (   0.0000000   0.0000000   0.0000000  )
         2           C   tau(   2) = (  -0.0000000   0.5773503   0.0000000  )

   Crystallographic axes

     site n.     atom                  positions (cryst. coord.)
         1           C   tau(   1) = (  0.0000000  0.0000000  0.0000000  )
         2           C   tau(   2) = (  0.3333333  0.6666667  0.0000000  )

     number of k points=    19  Marzari-Vanderbilt smearing, width (Ry)=  0.0100
                       cart. coord. in units 2pi/alat
        k(    1) = (   0.0000000   0.0000000   0.0000000), wk =   0.0138889
        k(    2) = (   0.0000000   0.0962250   0.0000000), wk =   0.0833333
        k(    3) = (   0.0000000   0.1924501   0.0000000), wk =   0.0833333
        k(    4) = (   0.0000000   0.2886751   0.0000000), wk =   0.0833333
        k(    5) = (   0.0000000   0.3849002   0.0000000), wk =   0.0833333
        k(    6) = (   0.0000000   0.4811252   0.0000000), wk =   0.0833333
        k(    7) = (   0.0000000  -0.5773503   0.0000000), wk =   0.0416667
        k(    8) = (   0.0833333   0.1443376   0.0000000), wk =   0.0833333
        k(    9) = (   0.0833333   0.2405626   0.0000000), wk =   0.1666667
        k(   10) = (   0.0833333   0.3367877   0.0000000), wk =   0.1666667
        k(   11) = (   0.0833333   0.4330127   0.0000000), wk =   0.1666667
        k(   12) = (   0.0833333   0.5292377   0.0000000), wk =   0.1666667
        k(   13) = (   0.1666667   0.2886751   0.0000000), wk =   0.0833333
        k(   14) = (   0.1666667   0.3849002   0.0000000), wk =   0.1666667
        k(   15) = (   0.1666667   0.4811252   0.0000000), wk =   0.1666667
        k(   16) = (   0.1666667   0.5773503   0.0000000), wk =   0.0833333
        k(   17) = (   0.2500000   0.4330127   0.0000000), wk =   0.0833333
        k(   18) = (   0.2500000   0.5292377   0.0000000), wk =   0.1666667
        k(   19) = (   0.3333333   0.5773503   0.0000000), wk =   0.0277778

                       cryst. coord.
        k(    1) = (   0.0000000   0.0000000   0.0000000), wk =   0.0138889
        k(    2) = (   0.0000000   0.0833333   0.0000000), wk =   0.0833333
        k(    3) = (   0.0000000   0.1666667   0.0000000), wk =   0.0833333
        k(    4) = (   0.0000000   0.2500000   0.0000000), wk =   0.0833333
        k(    5) = (   0.0000000   0.3333333   0.0000000), wk =   0.0833333
        k(    6) = (   0.0000000   0.4166667   0.0000000), wk =   0.0833333
        k(    7) = (   0.0000000  -0.5000000   0.0000000), wk =   0.0416667
        k(    8) = (   0.0833333   0.0833333   0.0000000), wk =   0.0833333
        k(    9) = (   0.0833333   0.1666667   0.0000000), wk =   0.1666667
        k(   10) = (   0.0833333   0.2500000   0.0000000), wk =   0.1666667
        k(   11) = (   0.0833333   0.3333333   0.0000000), wk =   0.1666667
        k(   12) = (   0.0833333   0.4166667   0.0000000), wk =   0.1666667
        k(   13) = (   0.1666667   0.1666667   0.0000000), wk =   0.0833333
        k(   14) = (   0.1666667   0.2500000   0.0000000), wk =   0.1666667
        k(   15) = (   0.1666667   0.3333333   0.0000000), wk =   0.1666667
        k(   16) = (   0.1666667   0.4166667   0.0000000), wk =   0.0833333
        k(   17) = (   0.2500000   0.2500000   0.0000000), wk =   0.0833333
        k(   18) = (   0.2500000   0.3333333   0.0000000), wk =   0.1666667
        k(   19) = (   0.3333333   0.3333333   0.0000000), wk =   0.0277778

     Dense  grid:    50025 G-vectors     FFT dimensions: (  27,  27, 160)

     Dynamical RAM for                 wfc:       0.76 MB

     Dynamical RAM for     wfc (w. buffer):      15.26 MB

     Dynamical RAM for           str. fact:       0.76 MB

     Dynamical RAM for           local pot:       0.00 MB

     Dynamical RAM for          nlocal pot:       1.53 MB

     Dynamical RAM for                qrad:       0.82 MB

     Dynamical RAM for          rho,v,vnew:       4.96 MB

     Dynamical RAM for               rhoin:       1.65 MB

     Dynamical RAM for            rho*nmix:      12.21 MB

     Dynamical RAM for           G-vectors:       3.24 MB

     Dynamical RAM for          h,s,v(r/c):       0.01 MB

     Dynamical RAM for          <psi|beta>:       0.00 MB

     Dynamical RAM for                 psi:       1.53 MB

     Dynamical RAM for                hpsi:       1.53 MB

     Dynamical RAM for      wfcinit/wfcrot:       1.53 MB

     Estimated static dynamical RAM per process >      34.21 MB

     Estimated max dynamical RAM per process >      49.49 MB

     Initial potential from superposition of free atoms

     starting charge       7.9999, renormalised to       8.0000

     negative rho (up, down):  1.712E-05 0.000E+00
     Starting wfcs are    8 randomized atomic wfcs

     total cpu time spent up to now is        2.2 secs

     Self-consistent Calculation

     iteration #  1     ecut=    80.00 Ry     beta= 0.70
     Davidson diagonalization with overlap

---- Real-time Memory Report at c_bands before calling an iterative solver
             0 MiB given to the printing process from OS
             0 MiB allocation reported by mallinfo(arena+hblkhd)
             0 MiB available memory on the node where the printing process lives
------------------
     ethr =  1.00E-02,  avg # of iterations =  6.4

     negative rho (up, down):  1.941E-07 0.000E+00

     total cpu time spent up to now is        3.7 secs

     total energy              =     -24.06590932 Ry
     estimated scf accuracy    <       0.20184135 Ry

     iteration #  2     ecut=    80.00 Ry     beta= 0.70
     Davidson diagonalization with overlap

---- Real-time Memory Report at c_bands before calling an iterative solver
             0 MiB given to the printing process from OS
             0 MiB allocation reported by mallinfo(arena+hblkhd)
             0 MiB available memory on the node where the printing process lives
------------------
     ethr =  2.52E-03,  avg # of iterations =  3.8

     negative rho (up, down):  1.142E-08 0.000E+00

     total cpu time spent up to now is        4.7 secs

     total energy              =     -24.09449644 Ry
     estimated scf accuracy    <       0.00202178 Ry

     iteration #  3     ecut=    80.00 Ry     beta= 0.70
     Davidson diagonalization with overlap

---- Real-time Memory Report at c_bands before calling an iterative solver
             0 MiB given to the printing process from OS
             0 MiB allocation reported by mallinfo(arena+hblkhd)
             0 MiB available memory on the node where the printing process lives
------------------
     ethr =  2.53E-05,  avg # of iterations =  9.7

     total cpu time spent up to now is        6.5 secs

     total energy              =     -24.09491297 Ry
     estimated scf accuracy    <       0.00015160 Ry

     iteration #  4     ecut=    80.00 Ry     beta= 0.70
     Davidson diagonalization with overlap

---- Real-time Memory Report at c_bands before calling an iterative solver
             0 MiB given to the printing process from OS
             0 MiB allocation reported by mallinfo(arena+hblkhd)
             0 MiB available memory on the node where the printing process lives
------------------
     ethr =  1.89E-06,  avg # of iterations =  5.0

     total cpu time spent up to now is        7.6 secs

     total energy              =     -24.09492600 Ry
     estimated scf accuracy    <       0.00000229 Ry

     iteration #  5     ecut=    80.00 Ry     beta= 0.70
     Davidson diagonalization with overlap

---- Real-time Memory Report at c_bands before calling an iterative solver
             0 MiB given to the printing process from OS
             0 MiB allocation reported by mallinfo(arena+hblkhd)
             0 MiB available memory on the node where the printing process lives
------------------
     ethr =  2.86E-08,  avg # of iterations =  3.2

     total cpu time spent up to now is        8.6 secs

     End of self-consistent calculation

          k = 0.0000 0.0000 0.0000 (  6307 PWs)   bands (ev):

   -21.2738  -9.3419  -4.6556  -4.6556   1.6005   2.5156   3.0886   5.0197

     occupation numbers 
     1.0000   1.0000   1.0000   1.0000   0.0000   0.0000   0.0000   0.0000

          k = 0.0000 0.0962 0.0000 (  6319 PWs)   bands (ev):

   -21.1085  -9.1430  -5.3115  -5.0011   1.8257   2.7428   3.3179   5.2451

     occupation numbers 
     1.0000   1.0000   1.0000   1.0000   0.0000   0.0000   0.0000   0.0000

          k = 0.0000 0.1925 0.0000 (  6291 PWs)   bands (ev):

   -20.6142  -8.5518  -6.9638  -5.8096   2.5014   3.4225   4.0054   5.9183

     occupation numbers 
     1.0000   1.0000   1.0000   1.0000   0.0000   0.0000   0.0000   0.0000

          k = 0.0000 0.2887 0.0000 (  6279 PWs)   bands (ev):

   -19.7965  -9.0828  -7.5875  -6.7069   3.6256   4.5359   5.1503   5.7657

     occupation numbers 
     1.0000   1.0000   1.0000   1.0000   0.0000   0.0000   0.0000   0.0000

          k = 0.0000 0.3849 0.0000 (  6254 PWs)   bands (ev):

   -18.6673 -11.3088  -7.4546  -6.3010   3.3779   5.1883   6.1582   6.3257

     occupation numbers 
     1.0000   1.0000   1.0000   1.0000   0.0000   0.0000   0.0000   0.0000

          k = 0.0000 0.4811 0.0000 (  6236 PWs)   bands (ev):

   -17.2559 -13.4326  -7.9367  -4.8573   1.2105   6.0788   7.2202   8.1624

     occupation numbers 
     1.0000   1.0000   1.0000   1.0000   0.0000   0.0000   0.0000   0.0000

          k = 0.0000-0.5774 0.0000 (  6230 PWs)   bands (ev):

   -15.9605 -14.9735  -8.1022  -3.9995   0.0954   6.0033   9.5516   9.6951

     occupation numbers 
     1.0000   1.0000   1.0000   1.0000   0.0000   0.0000   0.0000   0.0000

          k = 0.0833 0.1443 0.0000 (  6309 PWs)   bands (ev):

   -20.7787  -8.7479  -6.3534  -5.6917   2.2764   3.1964   3.7763   5.6950

     occupation numbers 
     1.0000   1.0000   1.0000   1.0000   0.0000   0.0000   0.0000   0.0000

          k = 0.0833 0.2406 0.0000 (  6260 PWs)   bands (ev):

   -20.1227  -8.0789  -7.9689  -6.7075   3.1772   4.0995   4.6936   6.5351

     occupation numbers 
     1.0000   1.0000   1.0000   1.0000   0.0000   0.0000   0.0000   0.0000

          k = 0.0833 0.3368 0.0000 (  6252 PWs)   bands (ev):

   -19.1492 -10.1732  -7.6089  -6.8369   4.4047   4.5241   5.4789   6.0666

     occupation numbers 
     1.0000   1.0000   1.0000   1.0000   0.0000   0.0000   0.0000   0.0000

          k = 0.0833 0.4330 0.0000 (  6232 PWs)   bands (ev):

   -17.8761 -12.3189  -8.2545  -5.4372   2.1732   6.2966   6.9315   7.2529

     occupation numbers 
     1.0000   1.0000   1.0000   1.0000   0.0000   0.0000   0.0000   0.0000

          k = 0.0833 0.5292 0.0000 (  6221 PWs)   bands (ev):

   -16.3754 -14.2870  -8.5885  -4.1081   0.3770   6.7447   8.5312   9.4246

     occupation numbers 
     1.0000   1.0000   1.0000   1.0000   0.0000   0.0000   0.0000   0.0000

          k = 0.1667 0.2887 0.0000 (  6261 PWs)   bands (ev):

   -19.3109  -9.4176  -8.0920  -7.0183   4.3016   4.8723   5.2211   5.8402

     occupation numbers 
     1.0000   1.0000   1.0000   1.0000   0.0000   0.0000   0.0000   0.0000

          k = 0.1667 0.3849 0.0000 (  6247 PWs)   bands (ev):

   -18.1924 -11.1629  -9.1618  -5.7471   2.8956   5.8669   6.7676   7.4423

     occupation numbers 
     1.0000   1.0000   1.0000   1.0000   0.0000   0.0000   0.0000   0.0000

          k = 0.1667 0.4811 0.0000 (  6231 PWs)   bands (ev):

   -16.8011 -13.0975  -9.7433  -4.2991   0.9539   7.8493   8.6570   8.6651

     occupation numbers 
     1.0000   1.0000   1.0000   1.0000   0.0000   0.0000   0.0000   0.0000

          k = 0.1667 0.5774 0.0000 (  6230 PWs)   bands (ev):

   -15.5378 -14.5644  -9.9300  -3.3926  -0.1313   8.5631  10.1238  10.3112

     occupation numbers 
     1.0000   1.0000   1.0000   1.0000   0.0000   0.0000   0.0000   0.0000

          k = 0.2500 0.4330 0.0000 (  6237 PWs)   bands (ev):

   -16.9514 -12.1991 -10.6708  -4.3846   1.2580   7.6348   8.3619   9.2688

     occupation numbers 
     1.0000   1.0000   1.0000   1.0000   0.0000   0.0000   0.0000   0.0000

          k = 0.2500 0.5292 0.0000 (  6245 PWs)   bands (ev):

   -15.5097 -13.6415 -11.3845  -2.9779  -0.2851   9.3378   9.7581  10.8259

     occupation numbers 
     1.0000   1.0000   1.0000   1.0000   0.0000   0.0000   0.0000   0.0000

          k = 0.3333 0.5774 0.0000 (  6234 PWs)   bands (ev):

   -14.2748 -14.2748 -12.3103  -1.6017  -1.6017   9.0808  11.4073  11.4075

     occupation numbers 
     1.0000   1.0000   1.0000   0.5000   0.5000   0.0000   0.0000   0.0000

     the Fermi energy is    -1.5827 ev

!    total energy              =     -24.09492738 Ry
     estimated scf accuracy    <       0.00000004 Ry
     smearing contrib. (-TS)   =      -0.00009116 Ry
     internal energy E=F+TS    =     -24.09483621 Ry

     The total energy is F=E-TS. E is the sum of the following terms:
     one-electron contribution =    -154.91954605 Ry
     hartree contribution      =      78.98533640 Ry
     xc contribution           =      -8.60336265 Ry
     ewald contribution        =      60.44273608 Ry

     convergence has been achieved in   5 iterations

     Forces acting on atoms (cartesian axes, Ry/au):

     atom    1 type  1   force =     0.00000000    0.00000000    0.00000000
     atom    2 type  1   force =    -0.00000000   -0.00000000    0.00000000
     The non-local contrib.  to forces
     atom    1 type  1   force =     0.00000000    0.00000000   -0.00000000
     atom    2 type  1   force =    -0.00000000   -0.00000000    0.00000000
     The ionic contribution  to forces
     atom    1 type  1   force =    -0.00000001    0.00000000   -0.00000000
     atom    2 type  1   force =     0.00000001   -0.00000000   -0.00000000
     The local contribution  to forces
     atom    1 type  1   force =     0.00000000   -0.00000000   -0.00000000
     atom    2 type  1   force =     0.00000001   -0.00000000   -0.00000000
     The core correction contribution to forces
     atom    1 type  1   force =     0.00000000   -0.00000000    0.00000000
     atom    2 type  1   force =    -0.00000000    0.00000000    0.00000000
     The Hubbard contrib.    to forces
     atom    1 type  1   force =     0.00000000    0.00000000    0.00000000
     atom    2 type  1   force =     0.00000000    0.00000000    0.00000000
     The SCF correction term to forces
     atom    1 type  1   force =    -0.00000000    0.00000000    0.00000000
     atom    2 type  1   force =     0.00000000   -0.00000000    0.00000000

     Total force =     0.000000     Total SCF correction =     0.000000


     Computing stress (Cartesian axis) and pressure

          total   stress  (Ry/bohr**3)                   (kbar)     P=       10.22
   0.00010649   0.00000000   0.00000000           15.67        0.00        0.00
   0.00000000   0.00010649   0.00000000            0.00       15.67        0.00
   0.00000000   0.00000000  -0.00000450            0.00        0.00       -0.66

     kinetic stress (kbar)   3094.87     -0.00      0.00
                               -0.00   3094.87      0.00
                                0.00      0.00   3407.83

     local   stress (kbar) -47107.87      0.00      0.00
                                0.00 -47107.87     -0.00
                                0.00     -0.00  48057.39

     nonloc. stress (kbar)   -318.66     -0.00      0.00
                               -0.00   -318.66     -0.00
                                0.00     -0.00   -266.95

     hartree stress (kbar)  22222.99     -0.00     -0.00
                               -0.00  22222.99      0.00
                               -0.00      0.00 -21989.42

     exc-cor stress (kbar)   -245.25     -0.00      0.00
                               -0.00   -245.25      0.00
                                0.00      0.00   -274.53

     corecor stress (kbar)   -463.92      0.00     -0.00
                                0.00   -463.92     -0.00
                               -0.00     -0.00   -452.61

     ewald   stress (kbar)  22833.51     -0.00     -0.00
                               -0.00  22833.51     -0.00
                               -0.00     -0.00 -28482.36

     hubbard stress (kbar)      0.00      0.00      0.00
                                0.00      0.00      0.00
                                0.00      0.00      0.00

     DFT-D   stress (kbar)      0.00      0.00      0.00
                                0.00      0.00      0.00
                                0.00      0.00      0.00

     XDM     stress (kbar)      0.00      0.00      0.00
                                0.00      0.00      0.00
                                0.00      0.00      0.00

     dft-nl  stress (kbar)      0.00      0.00      0.00
                                0.00      0.00      0.00
                                0.00      0.00      0.00

     TS-vdW  stress (kbar)      0.00      0.00      0.00
                                0.00      0.00      0.00
                                0.00      0.00      0.00

     MDB     stress (kbar)      0.00      0.00      0.00
                                0.00      0.00      0.00
                                0.00      0.00      0.00

     3D-RISM stress (kbar)      0.00      0.00      0.00
                                0.00      0.00      0.00
                                0.00      0.00      0.00


     BFGS Geometry Optimization
     Energy error            =      0.0E+00 Ry
     Gradient error          =      1.4E-25 Ry/Bohr
     Cell gradient error     =      1.6E+01 kbar

     number of scf cycles    =   1
     number of bfgs steps    =   0

     enthalpy           new  =     -24.0949273765 Ry

     new trust radius        =       0.0121116523 bohr
     new conv_thr            =       0.0000010000 Ry

     new unit-cell volume =    520.16422 a.u.^3 (    77.08038 Ang^3 )
     density =      0.51750 g/cm^3

CELL_PARAMETERS (alat=  4.63500000)
   1.002662305   0.000000000   0.000000000
  -0.501331153   0.868331028   0.000000000
   0.000000000   0.000000000   6.000000000

ATOMIC_POSITIONS (crystal)
C             0.0000000000        0.0000000000        0.0000000000
C             0.3333333330        0.6666666670        0.0000000000



     Writing config-only to output data dir ./tmp/graphene_PBE.save/
     NEW-OLD atomic charge density approx. for the potential

     negative rho (up, down):  3.121E-07 0.000E+00
     extrapolated charge    8.04243, renormalised to    8.00000

     total cpu time spent up to now is       13.7 secs

     Self-consistent Calculation

     iteration #  1     ecut=    80.00 Ry     beta= 0.70
     Davidson diagonalization with overlap

---- Real-time Memory Report at c_bands before calling an iterative solver
             0 MiB given to the printing process from OS
             0 MiB allocation reported by mallinfo(arena+hblkhd)
             0 MiB available memory on the node where the printing process lives
------------------
     c_bands:  1 eigenvalues not converged
     c_bands:  1 eigenvalues not converged
     ethr =  1.00E-06,  avg # of iterations = 10.8

     negative rho (up, down):  5.129E-08 0.000E+00

     total cpu time spent up to now is       15.7 secs

     total energy              =     -24.09429489 Ry
     estimated scf accuracy    <       0.00044479 Ry

     iteration #  2     ecut=    80.00 Ry     beta= 0.70
     Davidson diagonalization with overlap

---- Real-time Memory Report at c_bands before calling an iterative solver
             0 MiB given to the printing process from OS
             0 MiB allocation reported by mallinfo(arena+hblkhd)
             0 MiB available memory on the node where the printing process lives
------------------
     c_bands:  1 eigenvalues not converged
     ethr =  5.56E-06,  avg # of iterations =  8.9

     negative rho (up, down):  2.422E-08 0.000E+00

     total cpu time spent up to now is       17.5 secs

     total energy              =     -24.09517351 Ry
     estimated scf accuracy    <       0.00042797 Ry

     iteration #  3     ecut=    80.00 Ry     beta= 0.70
     Davidson diagonalization with overlap

---- Real-time Memory Report at c_bands before calling an iterative solver
             0 MiB given to the printing process from OS
             0 MiB allocation reported by mallinfo(arena+hblkhd)
             0 MiB available memory on the node where the printing process lives
------------------
     ethr =  5.35E-06,  avg # of iterations =  1.1

     total cpu time spent up to now is       18.3 secs

     total energy              =     -24.09514788 Ry
     estimated scf accuracy    <       0.00009718 Ry

     iteration #  4     ecut=    80.00 Ry     beta= 0.70
     Davidson diagonalization with overlap

---- Real-time Memory Report at c_bands before calling an iterative solver
             0 MiB given to the printing process from OS
             0 MiB allocation reported by mallinfo(arena+hblkhd)
             0 MiB available memory on the node where the printing process lives
------------------
     ethr =  1.21E-06,  avg # of iterations =  2.2

     total cpu time spent up to now is       19.1 secs

     total energy              =     -24.09515624 Ry
     estimated scf accuracy    <       0.00001578 Ry

     iteration #  5     ecut=    80.00 Ry     beta= 0.70
     Davidson diagonalization with overlap

---- Real-time Memory Report at c_bands before calling an iterative solver
             0 MiB given to the printing process from OS
             0 MiB allocation reported by mallinfo(arena+hblkhd)
             0 MiB available memory on the node where the printing process lives
------------------
     ethr =  1.97E-07,  avg # of iterations =  1.0

     total cpu time spent up to now is       19.9 secs

     total energy              =     -24.09514532 Ry
     estimated scf accuracy    <       0.00001903 Ry

     iteration #  6     ecut=    80.00 Ry     beta= 0.70
     Davidson diagonalization with overlap

---- Real-time Memory Report at c_bands before calling an iterative solver
             0 MiB given to the printing process from OS
             0 MiB allocation reported by mallinfo(arena+hblkhd)
             0 MiB available memory on the node where the printing process lives
------------------
     ethr =  1.97E-07,  avg # of iterations =  2.0

     total cpu time spent up to now is       20.8 secs

     End of self-consistent calculation

          k = 0.0000 0.0000 0.0000 (  6307 PWs)   bands (ev):

   -21.2509  -9.3270  -4.7020  -4.7020   1.5916   2.5058   3.0845   5.0129

     occupation numbers 
     1.0000   1.0000   1.0000   1.0000   0.0000   0.0000   0.0000   0.0000

          k = 0.0000 0.0960 0.0000 (  6319 PWs)   bands (ev):

   -21.0863  -9.1295  -5.3558  -5.0446   1.8156   2.7317   3.3125   5.2370

     occupation numbers 
     1.0000   1.0000   1.0000   1.0000   0.0000   0.0000   0.0000   0.0000

          k = 0.0000 0.1919 0.0000 (  6291 PWs)   bands (ev):

   -20.5944  -8.5421  -7.0019  -5.8466   2.4878   3.4076   3.9966   5.9062

     occupation numbers 
     1.0000   1.0000   1.0000   1.0000   0.0000   0.0000   0.0000   0.0000

          k = 0.0000 0.2879 0.0000 (  6279 PWs)   bands (ev):

   -19.7807  -9.1120  -7.5844  -6.7372   3.6060   4.5138   5.1356   5.6732

     occupation numbers 
     1.0000   1.0000   1.0000   1.0000   0.0000   0.0000   0.0000   0.0000

          k = 0.0000 0.3839 0.0000 (  6254 PWs)   bands (ev):

   -18.6571 -11.3277  -7.4795  -6.3068   3.3055   5.1596   6.1272   6.2113

     occupation numbers 
     1.0000   1.0000   1.0000   1.0000   0.0000   0.0000   0.0000   0.0000

          k = 0.0000 0.4798 0.0000 (  6236 PWs)   bands (ev):

   -17.2538 -13.4403  -7.9582  -4.8740   1.1567   5.9592   7.1798   8.1201

     occupation numbers 
     1.0000   1.0000   1.0000   1.0000   0.0000   0.0000   0.0000   0.0000

          k = 0.0000-0.5758 0.0000 (  6230 PWs)   bands (ev):

   -15.9747 -14.9638  -8.1226  -4.0238   0.0518   5.8818   9.4982   9.6428

     occupation numbers 
     1.0000   1.0000   1.0000   1.0000   0.0000   0.0000   0.0000   0.0000

          k = 0.0831 0.1440 0.0000 (  6309 PWs)   bands (ev):

   -20.7581  -8.7369  -6.3946  -5.7294   2.2640   3.1828   3.7687   5.6844

     occupation numbers 
     1.0000   1.0000   1.0000   1.0000   0.0000   0.0000   0.0000   0.0000

          k = 0.0831 0.2399 0.0000 (  6260 PWs)   bands (ev):

   -20.1053  -8.1135  -7.9631  -6.7379   3.1600   4.0807   4.6810   6.4717

     occupation numbers 
     1.0000   1.0000   1.0000   1.0000   0.0000   0.0000   0.0000   0.0000

          k = 0.0831 0.3359 0.0000 (  6252 PWs)   bands (ev):

   -19.1365 -10.1983  -7.6335  -6.8390   4.3231   4.4996   5.4508   6.0465

     occupation numbers 
     1.0000   1.0000   1.0000   1.0000   0.0000   0.0000   0.0000   0.0000

          k = 0.0831 0.4319 0.0000 (  6232 PWs)   bands (ev):

   -17.8702 -12.3332  -8.2751  -5.4494   2.1099   6.2599   6.8123   7.2157

     occupation numbers 
     1.0000   1.0000   1.0000   1.0000   0.0000   0.0000   0.0000   0.0000

          k = 0.0831 0.5278 0.0000 (  6221 PWs)   bands (ev):

   -16.3804 -14.2884  -8.6071  -4.1310   0.3295   6.6211   8.4842   9.3738

     occupation numbers 
     1.0000   1.0000   1.0000   1.0000   0.0000   0.0000   0.0000   0.0000

          k = 0.1662 0.2879 0.0000 (  6261 PWs)   bands (ev):

   -19.2974  -9.4495  -8.1118  -7.0190   4.2784   4.7835   5.1961   5.8217

     occupation numbers 
     1.0000   1.0000   1.0000   1.0000   0.0000   0.0000   0.0000   0.0000

          k = 0.1662 0.3839 0.0000 (  6247 PWs)   bands (ev):

   -18.1846 -11.1864  -9.1760  -5.7568   2.8234   5.8351   6.7333   7.4152

     occupation numbers 
     1.0000   1.0000   1.0000   1.0000   0.0000   0.0000   0.0000   0.0000

          k = 0.1662 0.4798 0.0000 (  6231 PWs)   bands (ev):

   -16.8014 -13.1093  -9.7557  -4.3197   0.8981   7.8053   8.5369   8.6104

     occupation numbers 
     1.0000   1.0000   1.0000   1.0000   0.0000   0.0000   0.0000   0.0000

          k = 0.1662 0.5758 0.0000 (  6230 PWs)   bands (ev):

   -15.5530 -14.5599  -9.9418  -3.4209  -0.1773   8.4324  10.0654  10.2547

     occupation numbers 
     1.0000   1.0000   1.0000   1.0000   0.0000   0.0000   0.0000   0.0000

          k = 0.2493 0.4319 0.0000 (  6237 PWs)   bands (ev):

   -16.9504 -12.2230 -10.6721  -4.4042   1.1975   7.5931   8.3171   9.2314

     occupation numbers 
     1.0000   1.0000   1.0000   1.0000   0.0000   0.0000   0.0000   0.0000

          k = 0.2493 0.5278 0.0000 (  6245 PWs)   bands (ev):

   -15.5188 -13.6546 -11.3833  -3.0084  -0.3338   9.2855   9.7021  10.6931

     occupation numbers 
     1.0000   1.0000   1.0000   1.0000   0.0000   0.0000   0.0000   0.0000

          k = 0.3324 0.5758 0.0000 (  6234 PWs)   bands (ev):

   -14.2932 -14.2932 -12.2933  -1.6420  -1.6420   9.0326  11.3159  11.3159

     occupation numbers 
     1.0000   1.0000   1.0000   0.5000   0.5000   0.0000   0.0000   0.0000

     the Fermi energy is    -1.6230 ev

!    total energy              =     -24.09514714 Ry
     estimated scf accuracy    <       0.00000055 Ry
     smearing contrib. (-TS)   =      -0.00009116 Ry
     internal energy E=F+TS    =     -24.09505598 Ry

     The total energy is F=E-TS. E is the sum of the following terms:
     one-electron contribution =    -154.07931813 Ry
     hartree contribution      =      78.55890273 Ry
     xc contribution           =      -8.59159261 Ry
     ewald contribution        =      60.01695203 Ry

     convergence has been achieved in   6 iterations

     Forces acting on atoms (cartesian axes, Ry/au):

     atom    1 type  1   force =     0.00000000    0.00000000    0.00000000
     atom    2 type  1   force =     0.00000000    0.00000000    0.00000000
     The non-local contrib.  to forces
     atom    1 type  1   force =     0.00000000    0.00000000    0.00000000
     atom    2 type  1   force =    -0.00000000   -0.00000000    0.00000000
     The ionic contribution  to forces
     atom    1 type  1   force =    -0.00000001    0.00000000   -0.00000000
     atom    2 type  1   force =     0.00000001   -0.00000000   -0.00000000
     The local contribution  to forces
     atom    1 type  1   force =     0.00000000   -0.00000000   -0.00000000
     atom    2 type  1   force =     0.00000001   -0.00000000   -0.00000000
     The core correction contribution to forces
     atom    1 type  1   force =     0.00000000   -0.00000000   -0.00000000
     atom    2 type  1   force =    -0.00000000    0.00000000   -0.00000000
     The Hubbard contrib.    to forces
     atom    1 type  1   force =     0.00000000    0.00000000    0.00000000
     atom    2 type  1   force =     0.00000000    0.00000000    0.00000000
     The SCF correction term to forces
     atom    1 type  1   force =     0.00000000   -0.00000000   -0.00000000
     atom    2 type  1   force =    -0.00000000    0.00000000    0.00000000

     Total force =     0.000000     Total SCF correction =     0.000000


     Computing stress (Cartesian axis) and pressure

          total   stress  (Ry/bohr**3)                   (kbar)     P=        5.28
   0.00005331  -0.00000000   0.00000000            7.84       -0.00        0.00
  -0.00000000   0.00005331   0.00000000           -0.00        7.84        0.00
   0.00000000   0.00000000   0.00000115            0.00        0.00        0.17

     kinetic stress (kbar)   3068.75      0.00      0.00
                                0.00   3068.75      0.00
                                0.00      0.00   3384.73

     local   stress (kbar) -46602.62      0.00     -0.00
                                0.00 -46602.62     -0.00
                               -0.00     -0.00  47532.62

     nonloc. stress (kbar)   -314.42      0.00      0.00
                                0.00   -314.42      0.00
                                0.00      0.00   -264.24

     hartree stress (kbar)  21983.28     -0.00      0.00
                               -0.00  21983.28     -0.00
                                0.00     -0.00 -21749.70

     exc-cor stress (kbar)   -243.08     -0.00     -0.00
                               -0.00   -243.08      0.00
                               -0.00      0.00   -272.13

     corecor stress (kbar)   -461.14      0.00      0.00
                                0.00   -461.14      0.00
                                0.00      0.00   -450.06

     ewald   stress (kbar)  22577.08     -0.00     -0.00
                               -0.00  22577.08     -0.00
                               -0.00     -0.00 -28181.05

     hubbard stress (kbar)      0.00      0.00      0.00
                                0.00      0.00      0.00
                                0.00      0.00      0.00

     DFT-D   stress (kbar)      0.00      0.00      0.00
                                0.00      0.00      0.00
                                0.00      0.00      0.00

     XDM     stress (kbar)      0.00      0.00      0.00
                                0.00      0.00      0.00
                                0.00      0.00      0.00

     dft-nl  stress (kbar)      0.00      0.00      0.00
                                0.00      0.00      0.00
                                0.00      0.00      0.00

     TS-vdW  stress (kbar)      0.00      0.00      0.00
                                0.00      0.00      0.00
                                0.00      0.00      0.00

     MDB     stress (kbar)      0.00      0.00      0.00
                                0.00      0.00      0.00
                                0.00      0.00      0.00

     3D-RISM stress (kbar)      0.00      0.00      0.00
                                0.00      0.00      0.00
                                0.00      0.00      0.00

     Energy error            =      2.2E-04 Ry
     Gradient error          =      0.0E+00 Ry/Bohr
     Cell gradient error     =      7.8E+00 kbar

     number of scf cycles    =   2
     number of bfgs steps    =   1

     enthalpy           old  =     -24.0949273765 Ry
     enthalpy           new  =     -24.0951471438 Ry

     CASE: enthalpy          _new < enthalpy          _old

     new trust radius        =       0.0122073549 bohr
     new conv_thr            =       0.0000000100 Ry

     new unit-cell volume =    522.95209 a.u.^3 (    77.49350 Ang^3 )
     density =      0.51475 g/cm^3

CELL_PARAMETERS (alat=  4.63500000)
   1.005345647  -0.000000000   0.000000000
  -0.502672824   0.870654870   0.000000000
   0.000000000   0.000000000   6.000000000

ATOMIC_POSITIONS (crystal)
C             0.0000000000        0.0000000000        0.0000000000
C             0.3333333330        0.6666666670        0.0000000000



     Writing config-only to output data dir ./tmp/graphene_PBE.save/
     NEW-OLD atomic charge density approx. for the potential

     negative rho (up, down):  3.023E-07 0.000E+00
     extrapolated charge    8.04265, renormalised to    8.00000

     total cpu time spent up to now is       26.1 secs

     Self-consistent Calculation

     iteration #  1     ecut=    80.00 Ry     beta= 0.70
     Davidson diagonalization with overlap

---- Real-time Memory Report at c_bands before calling an iterative solver
             0 MiB given to the printing process from OS
             0 MiB allocation reported by mallinfo(arena+hblkhd)
             0 MiB available memory on the node where the printing process lives
------------------
     c_bands:  1 eigenvalues not converged
     c_bands:  1 eigenvalues not converged
     c_bands:  1 eigenvalues not converged
     ethr =  1.00E-06,  avg # of iterations = 11.4

     negative rho (up, down):  4.829E-08 0.000E+00

     total cpu time spent up to now is       28.4 secs

     total energy              =     -24.09435020 Ry
     estimated scf accuracy    <       0.00047092 Ry

     iteration #  2     ecut=    80.00 Ry     beta= 0.70
     Davidson diagonalization with overlap

---- Real-time Memory Report at c_bands before calling an iterative solver
             0 MiB given to the printing process from OS
             0 MiB allocation reported by mallinfo(arena+hblkhd)
             0 MiB available memory on the node where the printing process lives
------------------
     c_bands:  1 eigenvalues not converged
     ethr =  5.89E-06,  avg # of iterations =  8.7

     negative rho (up, down):  2.107E-08 0.000E+00

     total cpu time spent up to now is       30.1 secs

     total energy              =     -24.09524764 Ry
     estimated scf accuracy    <       0.00043326 Ry

     iteration #  3     ecut=    80.00 Ry     beta= 0.70
     Davidson diagonalization with overlap

---- Real-time Memory Report at c_bands before calling an iterative solver
             0 MiB given to the printing process from OS
             0 MiB allocation reported by mallinfo(arena+hblkhd)
             0 MiB available memory on the node where the printing process lives
------------------
     ethr =  5.42E-06,  avg # of iterations =  1.1

     total cpu time spent up to now is       30.9 secs

     total energy              =     -24.09522546 Ry
     estimated scf accuracy    <       0.00009577 Ry

     iteration #  4     ecut=    80.00 Ry     beta= 0.70
     Davidson diagonalization with overlap

---- Real-time Memory Report at c_bands before calling an iterative solver
             0 MiB given to the printing process from OS
             0 MiB allocation reported by mallinfo(arena+hblkhd)
             0 MiB available memory on the node where the printing process lives
------------------
     ethr =  1.20E-06,  avg # of iterations =  1.8

     total cpu time spent up to now is       31.8 secs

     total energy              =     -24.09523258 Ry
     estimated scf accuracy    <       0.00001816 Ry

     iteration #  5     ecut=    80.00 Ry     beta= 0.70
     Davidson diagonalization with overlap

---- Real-time Memory Report at c_bands before calling an iterative solver
             0 MiB given to the printing process from OS
             0 MiB allocation reported by mallinfo(arena+hblkhd)
             0 MiB available memory on the node where the printing process lives
------------------
     ethr =  2.27E-07,  avg # of iterations =  1.0

     total cpu time spent up to now is       32.6 secs

     total energy              =     -24.09522021 Ry
     estimated scf accuracy    <       0.00002061 Ry

     iteration #  6     ecut=    80.00 Ry     beta= 0.70
     Davidson diagonalization with overlap

---- Real-time Memory Report at c_bands before calling an iterative solver
             0 MiB given to the printing process from OS
             0 MiB allocation reported by mallinfo(arena+hblkhd)
             0 MiB available memory on the node where the printing process lives
------------------
     ethr =  2.27E-07,  avg # of iterations =  2.0

     total cpu time spent up to now is       33.5 secs

     total energy              =     -24.09522293 Ry
     estimated scf accuracy    <       0.00000023 Ry

     iteration #  7     ecut=    80.00 Ry     beta= 0.70
     Davidson diagonalization with overlap

---- Real-time Memory Report at c_bands before calling an iterative solver
             0 MiB given to the printing process from OS
             0 MiB allocation reported by mallinfo(arena+hblkhd)
             0 MiB available memory on the node where the printing process lives
------------------
     ethr =  2.82E-09,  avg # of iterations =  2.4

     total cpu time spent up to now is       34.5 secs

     total energy              =     -24.09522305 Ry
     estimated scf accuracy    <       0.00000002 Ry

     iteration #  8     ecut=    80.00 Ry     beta= 0.70
     Davidson diagonalization with overlap

---- Real-time Memory Report at c_bands before calling an iterative solver
             0 MiB given to the printing process from OS
             0 MiB allocation reported by mallinfo(arena+hblkhd)
             0 MiB available memory on the node where the printing process lives
------------------
     ethr =  2.25E-10,  avg # of iterations =  2.1

     total cpu time spent up to now is       35.5 secs

     total energy              =     -24.09522303 Ry
     estimated scf accuracy    <       0.00000003 Ry

     iteration #  9     ecut=    80.00 Ry     beta= 0.70
     Davidson diagonalization with overlap

---- Real-time Memory Report at c_bands before calling an iterative solver
             0 MiB given to the printing process from OS
             0 MiB allocation reported by mallinfo(arena+hblkhd)
             0 MiB available memory on the node where the printing process lives
------------------
     ethr =  2.25E-10,  avg # of iterations =  2.0

     total cpu time spent up to now is       36.5 secs

     End of self-consistent calculation

          k = 0.0000 0.0000 0.0000 (  6307 PWs)   bands (ev):

   -21.2092  -9.2974  -4.7270  -4.7270   1.5864   2.4991   3.0747   5.0048

     occupation numbers 
     1.0000   1.0000   1.0000   1.0000   0.0000   0.0000   0.0000   0.0000

          k = 0.0000 0.0957 0.0000 (  6319 PWs)   bands (ev):

   -21.0454  -9.1012  -5.3788  -5.0667   1.8093   2.7237   3.3015   5.2277

     occupation numbers 
     1.0000   1.0000   1.0000   1.0000   0.0000   0.0000   0.0000   0.0000

          k = 0.0000 0.1914 0.0000 (  6291 PWs)   bands (ev):

   -20.5557  -8.5176  -7.0192  -5.8624   2.4780   3.3959   3.9819   5.8930

     occupation numbers 
     1.0000   1.0000   1.0000   1.0000   0.0000   0.0000   0.0000   0.0000

          k = 0.0000 0.2871 0.0000 (  6279 PWs)   bands (ev):

   -19.7459  -9.1208  -7.5662  -6.7463   3.5903   4.4950   5.1146   5.5971

     occupation numbers 
     1.0000   1.0000   1.0000   1.0000   0.0000   0.0000   0.0000   0.0000

          k = 0.0000 0.3829 0.0000 (  6254 PWs)   bands (ev):

   -18.6279 -11.3266  -7.4834  -6.2975   3.2493   5.1352   6.0998   6.1131

     occupation numbers 
     1.0000   1.0000   1.0000   1.0000   0.0000   0.0000   0.0000   0.0000

          k = 0.0000 0.4786 0.0000 (  6236 PWs)   bands (ev):

   -17.2326 -13.4283  -7.9589  -4.8753   1.1185   5.8574   7.1439   8.0815

     occupation numbers 
     1.0000   1.0000   1.0000   1.0000   0.0000   0.0000   0.0000   0.0000

          k =-0.0000-0.5743 0.0000 (  6230 PWs)   bands (ev):

   -15.9693 -14.9349  -8.1221  -4.0322   0.0234   5.7783   9.4499   9.5949

     occupation numbers 
     1.0000   1.0000   1.0000   1.0000   0.0000   0.0000   0.0000   0.0000

          k = 0.0829 0.1436 0.0000 (  6309 PWs)   bands (ev):

   -20.7187  -8.7111  -6.4148  -5.7460   2.2553   3.1723   3.7552   5.6725

     occupation numbers 
     1.0000   1.0000   1.0000   1.0000   0.0000   0.0000   0.0000   0.0000

          k = 0.0829 0.2393 0.0000 (  6260 PWs)   bands (ev):

   -20.0690  -8.1275  -7.9425  -6.7472   3.1466   4.0652   4.6626   6.3992

     occupation numbers 
     1.0000   1.0000   1.0000   1.0000   0.0000   0.0000   0.0000   0.0000

          k = 0.0829 0.3350 0.0000 (  6252 PWs)   bands (ev):

   -19.1049 -10.2031  -7.6372  -6.8259   4.2579   4.4791   5.4265   6.0206

     occupation numbers 
     1.0000   1.0000   1.0000   1.0000   0.0000   0.0000   0.0000   0.0000

          k = 0.0829 0.4307 0.0000 (  6232 PWs)   bands (ev):

   -17.8451 -12.3277  -8.2750  -5.4461   2.0626   6.2276   6.7109   7.1822

     occupation numbers 
     1.0000   1.0000   1.0000   1.0000   0.0000   0.0000   0.0000   0.0000

          k = 0.0829 0.5264 0.0000 (  6221 PWs)   bands (ev):

   -16.3660 -14.2701  -8.6050  -4.1381   0.2975   6.5155   8.4419   9.3270

     occupation numbers 
     1.0000   1.0000   1.0000   1.0000   0.0000   0.0000   0.0000   0.0000

          k = 0.1658 0.2871 0.0000 (  6261 PWs)   bands (ev):

   -19.2649  -9.4609  -8.1109  -7.0047   4.2590   4.7119   5.1743   5.7970

     occupation numbers 
     1.0000   1.0000   1.0000   1.0000   0.0000   0.0000   0.0000   0.0000

          k = 0.1658 0.3829 0.0000 (  6247 PWs)   bands (ev):

   -18.1577 -11.1898  -9.1697  -5.7512   2.7679   5.8075   6.7027   7.3818

     occupation numbers 
     1.0000   1.0000   1.0000   1.0000   0.0000   0.0000   0.0000   0.0000

          k = 0.1658 0.4786 0.0000 (  6231 PWs)   bands (ev):

   -16.7824 -13.1013  -9.7476  -4.3246   0.8584   7.7660   8.4265   8.5680

     occupation numbers 
     1.0000   1.0000   1.0000   1.0000   0.0000   0.0000   0.0000   0.0000

          k = 0.1658 0.5743 0.0000 (  6230 PWs)   bands (ev):

   -15.5486 -14.5361  -9.9332  -3.4332  -0.2076   8.3199  10.0127  10.2026

     occupation numbers 
     1.0000   1.0000   1.0000   1.0000   0.0000   0.0000   0.0000   0.0000

          k = 0.2487 0.4307 0.0000 (  6237 PWs)   bands (ev):

   -16.9301 -12.2268 -10.6533  -4.4082   1.1535   7.5560   8.2766   9.1881

     occupation numbers 
     1.0000   1.0000   1.0000   1.0000   0.0000   0.0000   0.0000   0.0000

          k = 0.2487 0.5264 0.0000 (  6245 PWs)   bands (ev):

   -15.5084 -13.6481 -11.3619  -3.0229  -0.3663   9.2409   9.6512  10.5770

     occupation numbers 
     1.0000   1.0000   1.0000   1.0000   0.0000   0.0000   0.0000   0.0000

          k = 0.3316 0.5743 0.0000 (  6234 PWs)   bands (ev):

   -14.2917 -14.2917 -12.2568  -1.6661  -1.6661   8.9928  11.2344  11.2344

     occupation numbers 
     1.0000   1.0000   1.0000   0.5000   0.5000   0.0000   0.0000   0.0000

     the Fermi energy is    -1.6472 ev

!    total energy              =     -24.09522304 Ry
     estimated scf accuracy    <          1.8E-10 Ry
     smearing contrib. (-TS)   =      -0.00009116 Ry
     internal energy E=F+TS    =     -24.09513188 Ry

     The total energy is F=E-TS. E is the sum of the following terms:
     one-electron contribution =    -153.23444823 Ry
     hartree contribution      =      78.12676188 Ry
     xc contribution           =      -8.57894894 Ry
     ewald contribution        =      59.59150341 Ry

     convergence has been achieved in   9 iterations

     Forces acting on atoms (cartesian axes, Ry/au):

     atom    1 type  1   force =    -0.00000000   -0.00000000    0.00000000
     atom    2 type  1   force =     0.00000000    0.00000000    0.00000000
     The non-local contrib.  to forces
     atom    1 type  1   force =    -0.00000000   -0.00000000    0.00000000
     atom    2 type  1   force =     0.00000000    0.00000000    0.00000000
     The ionic contribution  to forces
     atom    1 type  1   force =    -0.00000001    0.00000000   -0.00000000
     atom    2 type  1   force =     0.00000001   -0.00000000   -0.00000000
     The local contribution  to forces
     atom    1 type  1   force =     0.00000000   -0.00000000    0.00000000
     atom    2 type  1   force =     0.00000001   -0.00000000    0.00000000
     The core correction contribution to forces
     atom    1 type  1   force =     0.00000000   -0.00000000   -0.00000000
     atom    2 type  1   force =    -0.00000000    0.00000000   -0.00000000
     The Hubbard contrib.    to forces
     atom    1 type  1   force =     0.00000000    0.00000000    0.00000000
     atom    2 type  1   force =     0.00000000    0.00000000    0.00000000
     The SCF correction term to forces
     atom    1 type  1   force =    -0.00000000    0.00000000    0.00000000
     atom    2 type  1   force =     0.00000000   -0.00000000   -0.00000000

     Total force =     0.000000     Total SCF correction =     0.000000


     Computing stress (Cartesian axis) and pressure

          total   stress  (Ry/bohr**3)                   (kbar)     P=       -0.07
   0.00000119  -0.00000000   0.00000000            0.17       -0.00        0.00
  -0.00000000   0.00000119   0.00000000           -0.00        0.17        0.00
   0.00000000   0.00000000  -0.00000383            0.00        0.00       -0.56

     kinetic stress (kbar)   3041.99      0.00      0.00
                                0.00   3041.99      0.00
                                0.00      0.00   3360.17

     local   stress (kbar) -46098.38      0.00     -0.00
                                0.00 -46098.38      0.00
                               -0.00      0.00  47008.83

     nonloc. stress (kbar)   -309.80      0.00     -0.00
                                0.00   -309.80     -0.00
                               -0.00     -0.00   -261.05

     hartree stress (kbar)  21743.42     -0.00     -0.00
                               -0.00  21743.42     -0.00
                               -0.00     -0.00 -21509.98

     exc-cor stress (kbar)   -240.87     -0.00     -0.00
                               -0.00   -240.87     -0.00
                               -0.00     -0.00   -269.68

     corecor stress (kbar)   -458.34      0.00      0.00
                                0.00   -458.34      0.00
                                0.00      0.00   -447.48

     ewald   stress (kbar)  22322.16     -0.00     -0.00
                               -0.00  22322.16     -0.00
                               -0.00     -0.00 -27881.39

     hubbard stress (kbar)      0.00      0.00      0.00
                                0.00      0.00      0.00
                                0.00      0.00      0.00

     DFT-D   stress (kbar)      0.00      0.00      0.00
                                0.00      0.00      0.00
                                0.00      0.00      0.00

     XDM     stress (kbar)      0.00      0.00      0.00
                                0.00      0.00      0.00
                                0.00      0.00      0.00

     dft-nl  stress (kbar)      0.00      0.00      0.00
                                0.00      0.00      0.00
                                0.00      0.00      0.00

     TS-vdW  stress (kbar)      0.00      0.00      0.00
                                0.00      0.00      0.00
                                0.00      0.00      0.00

     MDB     stress (kbar)      0.00      0.00      0.00
                                0.00      0.00      0.00
                                0.00      0.00      0.00

     3D-RISM stress (kbar)      0.00      0.00      0.00
                                0.00      0.00      0.00
                                0.00      0.00      0.00

     Energy error            =      7.6E-05 Ry
     Gradient error          =      1.4E-25 Ry/Bohr
     Cell gradient error     =      1.7E-01 kbar

     bfgs converged in   3 scf cycles and   2 bfgs steps
     (criteria: energy <  1.0E-04 Ry, force <  1.0E-03 Ry/Bohr, cell <  5.0E-01 kbar)

     End of BFGS Geometry Optimization

     Final enthalpy           =     -24.0952230397 Ry

     File ./tmp/graphene_PBE.bfgs deleted, as requested
Begin final coordinates
     new unit-cell volume =    522.95209 a.u.^3 (    77.49350 Ang^3 )
     density =      0.51475 g/cm^3

CELL_PARAMETERS (alat=  4.63500000)
   1.005345647  -0.000000000   0.000000000
  -0.502672824   0.870654870   0.000000000
   0.000000000   0.000000000   6.000000000

ATOMIC_POSITIONS (crystal)
C             0.0000000000        0.0000000000        0.0000000000
C             0.3333333330        0.6666666670        0.0000000000
End final coordinates



     Writing config-only to output data dir ./tmp/graphene_PBE.save/

     Final scf calculation at the relaxed structure.
     The G-vectors are recalculated for the final unit cell
     Results may differ from those at the preceding step.

     G-vector sticks info
     --------------------
     sticks:   dense  smooth     PW     G-vecs:    dense   smooth      PW
     Sum         475     475    151                50541    50541    8457

     Using Slab Decomposition



     bravais-lattice index     =            4
     lattice parameter (alat)  =       4.6350  a.u.
     unit-cell volume          =     522.9521 (a.u.)^3
     number of atoms/cell      =            2
     number of atomic types    =            1
     number of electrons       =         8.00
     number of Kohn-Sham states=            8
     kinetic-energy cutoff     =      80.0000  Ry
     charge density cutoff     =     320.0000  Ry
     scf convergence threshold =      1.0E-08
     mixing beta               =       0.7000
     number of iterations used =            8  plain     mixing
     press convergence thresh. =      5.0E-01
     Exchange-correlation= PBE
                           (   1   4   3   4   0   0   0)

     celldm(1)=   4.635000  celldm(2)=   0.000000  celldm(3)=   6.000000
     celldm(4)=   0.000000  celldm(5)=   0.000000  celldm(6)=   0.000000

     crystal axes: (cart. coord. in units of alat)
               a(1) = (   1.005346  -0.000000   0.000000 )  
               a(2) = (  -0.502673   0.870655   0.000000 )  
               a(3) = (   0.000000   0.000000   6.000000 )  

     reciprocal axes: (cart. coord. in units 2 pi/alat)
               b(1) = (  0.994683  0.574280 -0.000000 )  
               b(2) = (  0.000000  1.148561 -0.000000 )  
               b(3) = ( -0.000000 -0.000000  0.166667 )  


     PseudoPot. # 1 for C  read from file:
     ../../../Pseudo/PBE/C.upf
     MD5 check sum: 34a24e64c0a39f27c6c36b90a16ac686
     Pseudo is Norm-conserving + core correction, Zval =  4.0
     Generated using ONCVPSP code by D. R. Hamann
     Using radial grid of 1248 points,  4 beta functions with: 
                l(1) =   0
                l(2) =   0
                l(3) =   1
                l(4) =   1

     atomic species   valence    mass     pseudopotential
        C              4.00    12.01100     C ( 1.00)

     24 Sym. Ops., with inversion, found (12 have fractional translation)


                                    s                        frac. trans.

      isym =  1     identity                                     

 cryst.   s( 1) = (     1          0          0      )
                  (     0          1          0      )
                  (     0          0          1      )

 cart.    s( 1) = (  1.0000000  0.0000000  0.0000000 )
                  (  0.0000000  1.0000000  0.0000000 )
                  (  0.0000000  0.0000000  1.0000000 )


      isym =  2     180 deg rotation - cart. axis [0,0,1]        

 cryst.   s( 2) = (    -1          0          0      )    f =( -0.3333333 )
                  (     0         -1          0      )       (  0.3333333 )
                  (     0          0          1      )       (  0.0000000 )

 cart.    s( 2) = ( -1.0000000  0.0000000  0.0000000 )    f =( -0.5026728 )
                  (  0.0000000 -1.0000000  0.0000000 )       (  0.2902183 )
                  (  0.0000000  0.0000000  1.0000000 )       (  0.0000000 )


      isym =  3     180 deg rotation - cart. axis [0,1,0]        

 cryst.   s( 3) = (    -1          0          0      )
                  (     1          1          0      )
                  (     0          0         -1      )

 cart.    s( 3) = ( -1.0000000  0.0000000  0.0000000 )
                  (  0.0000000  1.0000000  0.0000000 )
                  (  0.0000000  0.0000000 -1.0000000 )


      isym =  4     180 deg rotation - cart. axis [1,0,0]        

 cryst.   s( 4) = (     1          0          0      )    f =( -0.3333333 )
                  (    -1         -1          0      )       (  0.3333333 )
                  (     0          0         -1      )       (  0.0000000 )

 cart.    s( 4) = (  1.0000000  0.0000000  0.0000000 )    f =( -0.5026728 )
                  (  0.0000000 -1.0000000  0.0000000 )       (  0.2902183 )
                  (  0.0000000  0.0000000 -1.0000000 )       (  0.0000000 )


      isym =  5      60 deg rotation - cryst. axis [0,0,1]       

 cryst.   s( 5) = (     1          1          0      )    f =( -0.3333333 )
                  (    -1          0          0      )       (  0.3333333 )
                  (     0          0          1      )       (  0.0000000 )

 cart.    s( 5) = (  0.5000000 -0.8660254  0.0000000 )    f =( -0.5026728 )
                  (  0.8660254  0.5000000  0.0000000 )       (  0.2902183 )
                  (  0.0000000  0.0000000  1.0000000 )       (  0.0000000 )


      isym =  6      60 deg rotation - cryst. axis [0,0,-1]      

 cryst.   s( 6) = (     0         -1          0      )    f =( -0.3333333 )
                  (     1          1          0      )       (  0.3333333 )
                  (     0          0          1      )       (  0.0000000 )

 cart.    s( 6) = (  0.5000000  0.8660254  0.0000000 )    f =( -0.5026728 )
                  ( -0.8660254  0.5000000  0.0000000 )       (  0.2902183 )
                  (  0.0000000  0.0000000  1.0000000 )       (  0.0000000 )


      isym =  7     120 deg rotation - cryst. axis [0,0,1]       

 cryst.   s( 7) = (     0          1          0      )
                  (    -1         -1          0      )
                  (     0          0          1      )

 cart.    s( 7) = ( -0.5000000 -0.8660254  0.0000000 )
                  (  0.8660254 -0.5000000  0.0000000 )
                  (  0.0000000  0.0000000  1.0000000 )


      isym =  8     120 deg rotation - cryst. axis [0,0,-1]      

 cryst.   s( 8) = (    -1         -1          0      )
                  (     1          0          0      )
                  (     0          0          1      )

 cart.    s( 8) = ( -0.5000000  0.8660254  0.0000000 )
                  ( -0.8660254 -0.5000000  0.0000000 )
                  (  0.0000000  0.0000000  1.0000000 )


      isym =  9     180 deg rotation - cryst. axis [1,-1,0]      

 cryst.   s( 9) = (     0         -1          0      )
                  (    -1          0          0      )
                  (     0          0         -1      )

 cart.    s( 9) = (  0.5000000 -0.8660254  0.0000000 )
                  ( -0.8660254 -0.5000000  0.0000000 )
                  (  0.0000000  0.0000000 -1.0000000 )


      isym = 10     180 deg rotation - cryst. axis [2,1,0]       

 cryst.   s(10) = (     1          1          0      )
                  (     0         -1          0      )
                  (     0          0         -1      )

 cart.    s(10) = (  0.5000000  0.8660254  0.0000000 )
                  (  0.8660254 -0.5000000  0.0000000 )
                  (  0.0000000  0.0000000 -1.0000000 )


      isym = 11     180 deg rotation - cryst. axis [0,1,0]       

 cryst.   s(11) = (    -1         -1          0      )    f =( -0.3333333 )
                  (     0          1          0      )       (  0.3333333 )
                  (     0          0         -1      )       (  0.0000000 )

 cart.    s(11) = ( -0.5000000 -0.8660254  0.0000000 )    f =( -0.5026728 )
                  ( -0.8660254  0.5000000  0.0000000 )       (  0.2902183 )
                  (  0.0000000  0.0000000 -1.0000000 )       (  0.0000000 )


      isym = 12     180 deg rotation - cryst. axis [1,1,0]       

 cryst.   s(12) = (     0          1          0      )    f =( -0.3333333 )
                  (     1          0          0      )       (  0.3333333 )
                  (     0          0         -1      )       (  0.0000000 )

 cart.    s(12) = ( -0.5000000  0.8660254  0.0000000 )    f =( -0.5026728 )
                  (  0.8660254  0.5000000  0.0000000 )       (  0.2902183 )
                  (  0.0000000  0.0000000 -1.0000000 )       (  0.0000000 )


      isym = 13     inversion                                    

 cryst.   s(13) = (    -1          0          0      )    f =( -0.3333333 )
                  (     0         -1          0      )       (  0.3333333 )
                  (     0          0         -1      )       (  0.0000000 )

 cart.    s(13) = ( -1.0000000  0.0000000  0.0000000 )    f =( -0.5026728 )
                  (  0.0000000 -1.0000000  0.0000000 )       (  0.2902183 )
                  (  0.0000000  0.0000000 -1.0000000 )       (  0.0000000 )


      isym = 14     inv. 180 deg rotation - cart. axis [0,0,1]   

 cryst.   s(14) = (     1          0          0      )
                  (     0          1          0      )
                  (     0          0         -1      )

 cart.    s(14) = (  1.0000000  0.0000000  0.0000000 )
                  (  0.0000000  1.0000000  0.0000000 )
                  (  0.0000000  0.0000000 -1.0000000 )


      isym = 15     inv. 180 deg rotation - cart. axis [0,1,0]   

 cryst.   s(15) = (     1          0          0      )    f =( -0.3333333 )
                  (    -1         -1          0      )       (  0.3333333 )
                  (     0          0          1      )       (  0.0000000 )

 cart.    s(15) = (  1.0000000  0.0000000  0.0000000 )    f =( -0.5026728 )
                  (  0.0000000 -1.0000000  0.0000000 )       (  0.2902183 )
                  (  0.0000000  0.0000000  1.0000000 )       (  0.0000000 )


      isym = 16     inv. 180 deg rotation - cart. axis [1,0,0]   

 cryst.   s(16) = (    -1          0          0      )
                  (     1          1          0      )
                  (     0          0          1      )

 cart.    s(16) = ( -1.0000000  0.0000000  0.0000000 )
                  (  0.0000000  1.0000000  0.0000000 )
                  (  0.0000000  0.0000000  1.0000000 )


      isym = 17     inv.  60 deg rotation - cryst. axis [0,0,1]  

 cryst.   s(17) = (    -1         -1          0      )
                  (     1          0          0      )
                  (     0          0         -1      )

 cart.    s(17) = ( -0.5000000  0.8660254  0.0000000 )
                  ( -0.8660254 -0.5000000  0.0000000 )
                  (  0.0000000  0.0000000 -1.0000000 )


      isym = 18     inv.  60 deg rotation - cryst. axis [0,0,-1] 

 cryst.   s(18) = (     0          1          0      )
                  (    -1         -1          0      )
                  (     0          0         -1      )

 cart.    s(18) = ( -0.5000000 -0.8660254  0.0000000 )
                  (  0.8660254 -0.5000000  0.0000000 )
                  (  0.0000000  0.0000000 -1.0000000 )


      isym = 19     inv. 120 deg rotation - cryst. axis [0,0,1]  

 cryst.   s(19) = (     0         -1          0      )    f =( -0.3333333 )
                  (     1          1          0      )       (  0.3333333 )
                  (     0          0         -1      )       (  0.0000000 )

 cart.    s(19) = (  0.5000000  0.8660254  0.0000000 )    f =( -0.5026728 )
                  ( -0.8660254  0.5000000  0.0000000 )       (  0.2902183 )
                  (  0.0000000  0.0000000 -1.0000000 )       (  0.0000000 )


      isym = 20     inv. 120 deg rotation - cryst. axis [0,0,-1] 

 cryst.   s(20) = (     1          1          0      )    f =( -0.3333333 )
                  (    -1          0          0      )       (  0.3333333 )
                  (     0          0         -1      )       (  0.0000000 )

 cart.    s(20) = (  0.5000000 -0.8660254  0.0000000 )    f =( -0.5026728 )
                  (  0.8660254  0.5000000  0.0000000 )       (  0.2902183 )
                  (  0.0000000  0.0000000 -1.0000000 )       (  0.0000000 )


      isym = 21     inv. 180 deg rotation - cryst. axis [1,-1,0] 

 cryst.   s(21) = (     0          1          0      )    f =( -0.3333333 )
                  (     1          0          0      )       (  0.3333333 )
                  (     0          0          1      )       (  0.0000000 )

 cart.    s(21) = ( -0.5000000  0.8660254  0.0000000 )    f =( -0.5026728 )
                  (  0.8660254  0.5000000  0.0000000 )       (  0.2902183 )
                  (  0.0000000  0.0000000  1.0000000 )       (  0.0000000 )


      isym = 22     inv. 180 deg rotation - cryst. axis [2,1,0]  

 cryst.   s(22) = (    -1         -1          0      )    f =( -0.3333333 )
                  (     0          1          0      )       (  0.3333333 )
                  (     0          0          1      )       (  0.0000000 )

 cart.    s(22) = ( -0.5000000 -0.8660254  0.0000000 )    f =( -0.5026728 )
                  ( -0.8660254  0.5000000  0.0000000 )       (  0.2902183 )
                  (  0.0000000  0.0000000  1.0000000 )       (  0.0000000 )


      isym = 23     inv. 180 deg rotation - cryst. axis [0,1,0]  

 cryst.   s(23) = (     1          1          0      )
                  (     0         -1          0      )
                  (     0          0          1      )

 cart.    s(23) = (  0.5000000  0.8660254  0.0000000 )
                  (  0.8660254 -0.5000000  0.0000000 )
                  (  0.0000000  0.0000000  1.0000000 )


      isym = 24     inv. 180 deg rotation - cryst. axis [1,1,0]  

 cryst.   s(24) = (     0         -1          0      )
                  (    -1          0          0      )
                  (     0          0          1      )

 cart.    s(24) = (  0.5000000 -0.8660254  0.0000000 )
                  ( -0.8660254 -0.5000000  0.0000000 )
                  (  0.0000000  0.0000000  1.0000000 )


     point group D_6h(6/mmm)
     there are 12 classes
     the character table:

       E     2C6   2C3   C2    3C2'  3C2'' i     2S3   2S6   s_h   3s_d  3s_v 
A_1g   1.00  1.00  1.00  1.00  1.00  1.00  1.00  1.00  1.00  1.00  1.00  1.00
[...]
        k(   16) = (   0.1657805   0.5742804   0.0000000), wk =   0.0833333
        k(   17) = (   0.2486707   0.4307103   0.0000000), wk =   0.0833333
        k(   18) = (   0.2486707   0.5264237   0.0000000), wk =   0.1666667
        k(   19) = (   0.3315609   0.5742804   0.0000000), wk =   0.0277778

                       cryst. coord.
        k(    1) = (   0.0000000   0.0000000   0.0000000), wk =   0.0138889
        k(    2) = (   0.0000000   0.0833333   0.0000000), wk =   0.0833333
        k(    3) = (   0.0000000   0.1666667   0.0000000), wk =   0.0833333
        k(    4) = (   0.0000000   0.2500000   0.0000000), wk =   0.0833333
        k(    5) = (   0.0000000   0.3333333   0.0000000), wk =   0.0833333
        k(    6) = (   0.0000000   0.4166667   0.0000000), wk =   0.0833333
        k(    7) = (   0.0000000  -0.5000000   0.0000000), wk =   0.0416667
        k(    8) = (   0.0833333   0.0833333   0.0000000), wk =   0.0833333
        k(    9) = (   0.0833333   0.1666667   0.0000000), wk =   0.1666667
        k(   10) = (   0.0833333   0.2500000   0.0000000), wk =   0.1666667
        k(   11) = (   0.0833333   0.3333333   0.0000000), wk =   0.1666667
        k(   12) = (   0.0833333   0.4166667   0.0000000), wk =   0.1666667
        k(   13) = (   0.1666667   0.1666667   0.0000000), wk =   0.0833333
        k(   14) = (   0.1666667   0.2500000   0.0000000), wk =   0.1666667
        k(   15) = (   0.1666667   0.3333333   0.0000000), wk =   0.1666667
        k(   16) = (   0.1666667   0.4166667   0.0000000), wk =   0.0833333
        k(   17) = (   0.2500000   0.2500000   0.0000000), wk =   0.0833333
        k(   18) = (   0.2500000   0.3333333   0.0000000), wk =   0.1666667
        k(   19) = (   0.3333333   0.3333333   0.0000000), wk =   0.0277778

     Dense  grid:    50541 G-vectors     FFT dimensions: (  27,  27, 160)

     Dynamical RAM for                 wfc:       0.77 MB

     Dynamical RAM for     wfc (w. buffer):      15.43 MB

     Dynamical RAM for           str. fact:       0.77 MB

     Dynamical RAM for           local pot:       0.38 MB

     Dynamical RAM for          nlocal pot:       1.54 MB

     Dynamical RAM for                qrad:       0.82 MB

     Dynamical RAM for          rho,v,vnew:       4.98 MB

     Dynamical RAM for               rhoin:       1.66 MB

     Dynamical RAM for            rho*nmix:      12.34 MB

     Dynamical RAM for           G-vectors:       3.28 MB

     Dynamical RAM for          h,s,v(r/c):       0.01 MB

     Dynamical RAM for          <psi|beta>:       0.00 MB

     Dynamical RAM for                 psi:       1.54 MB

     Dynamical RAM for                hpsi:       1.54 MB

     Dynamical RAM for      wfcinit/wfcrot:       1.54 MB

     Estimated static dynamical RAM per process >      34.86 MB

     Estimated max dynamical RAM per process >      50.30 MB

     Initial potential from superposition of free atoms

     starting charge       7.9999, renormalised to       8.0000

     negative rho (up, down):  1.705E-05 0.000E+00
     Starting wfcs are    8 randomized atomic wfcs

     total cpu time spent up to now is       41.7 secs

     Self-consistent Calculation

     iteration #  1     ecut=    80.00 Ry     beta= 0.70
     Davidson diagonalization with overlap

---- Real-time Memory Report at c_bands before calling an iterative solver
             0 MiB given to the printing process from OS
             0 MiB allocation reported by mallinfo(arena+hblkhd)
             0 MiB available memory on the node where the printing process lives
------------------
     c_bands:  1 eigenvalues not converged
     c_bands:  1 eigenvalues not converged
     c_bands:  1 eigenvalues not converged
     c_bands:  1 eigenvalues not converged
     c_bands:  1 eigenvalues not converged
     c_bands:  1 eigenvalues not converged
     c_bands:  2 eigenvalues not converged
     c_bands:  1 eigenvalues not converged
     c_bands:  1 eigenvalues not converged
     c_bands:  2 eigenvalues not converged
     c_bands:  1 eigenvalues not converged
     c_bands:  1 eigenvalues not converged
     c_bands:  1 eigenvalues not converged
     c_bands:  2 eigenvalues not converged
     ethr =  1.00E-06,  avg # of iterations = 19.6

     negative rho (up, down):  5.063E-06 0.000E+00

     total cpu time spent up to now is       46.2 secs

     total energy              =     -24.06352608 Ry
     estimated scf accuracy    <       0.20076033 Ry

     iteration #  2     ecut=    80.00 Ry     beta= 0.70
     Davidson diagonalization with overlap

---- Real-time Memory Report at c_bands before calling an iterative solver
             0 MiB given to the printing process from OS
             0 MiB allocation reported by mallinfo(arena+hblkhd)
             0 MiB available memory on the node where the printing process lives
------------------
     ethr =  2.51E-03,  avg # of iterations =  2.1

     negative rho (up, down):  1.413E-06 0.000E+00

     total cpu time spent up to now is       47.2 secs

     total energy              =     -24.09481555 Ry
     estimated scf accuracy    <       0.00240276 Ry

     iteration #  3     ecut=    80.00 Ry     beta= 0.70
     Davidson diagonalization with overlap

---- Real-time Memory Report at c_bands before calling an iterative solver
             0 MiB given to the printing process from OS
             0 MiB allocation reported by mallinfo(arena+hblkhd)
             0 MiB available memory on the node where the printing process lives
------------------
     c_bands:  1 eigenvalues not converged
     c_bands:  1 eigenvalues not converged
     ethr =  3.00E-05,  avg # of iterations =  9.2

     total cpu time spent up to now is       49.0 secs

     total energy              =     -24.09523303 Ry
     estimated scf accuracy    <       0.00018434 Ry

     iteration #  4     ecut=    80.00 Ry     beta= 0.70
     Davidson diagonalization with overlap

---- Real-time Memory Report at c_bands before calling an iterative solver
             0 MiB given to the printing process from OS
             0 MiB allocation reported by mallinfo(arena+hblkhd)
             0 MiB available memory on the node where the printing process lives
------------------
     ethr =  2.30E-06,  avg # of iterations =  4.1

     total cpu time spent up to now is       50.2 secs

     total energy              =     -24.09524666 Ry
     estimated scf accuracy    <       0.00000207 Ry

     iteration #  5     ecut=    80.00 Ry     beta= 0.70
     Davidson diagonalization with overlap

---- Real-time Memory Report at c_bands before calling an iterative solver
             0 MiB given to the printing process from OS
             0 MiB allocation reported by mallinfo(arena+hblkhd)
             0 MiB available memory on the node where the printing process lives
------------------
     ethr =  2.59E-08,  avg # of iterations =  3.3

     total cpu time spent up to now is       51.5 secs

     total energy              =     -24.09524828 Ry
     estimated scf accuracy    <       0.00000004 Ry

     iteration #  6     ecut=    80.00 Ry     beta= 0.70
     Davidson diagonalization with overlap

---- Real-time Memory Report at c_bands before calling an iterative solver
             0 MiB given to the printing process from OS
             0 MiB allocation reported by mallinfo(arena+hblkhd)
             0 MiB available memory on the node where the printing process lives
------------------
     ethr =  4.97E-10,  avg # of iterations =  2.8

     total cpu time spent up to now is       52.8 secs

     End of self-consistent calculation

          k = 0.0000 0.0000 0.0000 (  6355 PWs)   bands (ev):

   -21.2096  -9.2977  -4.7276  -4.7276   1.5864   2.4990   3.0753   5.0049

     occupation numbers 
     1.0000   1.0000   1.0000   1.0000   0.0000   0.0000   0.0000   0.0000

          k = 0.0000 0.0957 0.0000 (  6379 PWs)   bands (ev):

   -21.0458  -9.1014  -5.3794  -5.0672   1.8093   2.7237   3.3021   5.2279

     occupation numbers 
     1.0000   1.0000   1.0000   1.0000   0.0000   0.0000   0.0000   0.0000

          k = 0.0000 0.1914 0.0000 (  6349 PWs)   bands (ev):

   -20.5561  -8.5179  -7.0198  -5.8629   2.4780   3.3959   3.9825   5.8930

     occupation numbers 
     1.0000   1.0000   1.0000   1.0000   0.0000   0.0000   0.0000   0.0000

          k = 0.0000 0.2871 0.0000 (  6319 PWs)   bands (ev):

   -19.7463  -9.1212  -7.5665  -6.7468   3.5903   4.4950   5.1150   5.5968

     occupation numbers 
     1.0000   1.0000   1.0000   1.0000   0.0000   0.0000   0.0000   0.0000

          k = 0.0000 0.3829 0.0000 (  6306 PWs)   bands (ev):

   -18.6283 -11.3270  -7.4839  -6.2977   3.2490   5.1352   6.0998   6.1126

     occupation numbers 
     1.0000   1.0000   1.0000   1.0000   0.0000   0.0000   0.0000   0.0000

          k = 0.0000 0.4786 0.0000 (  6302 PWs)   bands (ev):

   -17.2330 -13.4287  -7.9593  -4.8755   1.1182   5.8570   7.1439   8.0814

     occupation numbers 
     1.0000   1.0000   1.0000   1.0000   0.0000   0.0000   0.0000   0.0000

          k =-0.0000-0.5743 0.0000 (  6294 PWs)   bands (ev):

   -15.9697 -14.9354  -8.1226  -4.0325   0.0231   5.7779   9.4500   9.5949

     occupation numbers 
     1.0000   1.0000   1.0000   1.0000   0.0000   0.0000   0.0000   0.0000

          k = 0.0829 0.1436 0.0000 (  6353 PWs)   bands (ev):

   -20.7191  -8.7114  -6.4153  -5.7465   2.2553   3.1723   3.7559   5.6726

     occupation numbers 
     1.0000   1.0000   1.0000   1.0000   0.0000   0.0000   0.0000   0.0000

          k = 0.0829 0.2393 0.0000 (  6316 PWs)   bands (ev):

   -20.0693  -8.1280  -7.9427  -6.7477   3.1466   4.0652   4.6632   6.3980

     occupation numbers 
     1.0000   1.0000   1.0000   1.0000   0.0000   0.0000   0.0000   0.0000

          k = 0.0829 0.3350 0.0000 (  6314 PWs)   bands (ev):

   -19.1053 -10.2036  -7.6377  -6.8262   4.2575   4.4791   5.4265   6.0211

     occupation numbers 
     1.0000   1.0000   1.0000   1.0000   0.0000   0.0000   0.0000   0.0000

          k = 0.0829 0.4307 0.0000 (  6301 PWs)   bands (ev):

   -17.8455 -12.3282  -8.2754  -5.4464   2.0623   6.2275   6.7105   7.1822

     occupation numbers 
     1.0000   1.0000   1.0000   1.0000   0.0000   0.0000   0.0000   0.0000

          k = 0.0829 0.5264 0.0000 (  6306 PWs)   bands (ev):

   -16.3664 -14.2705  -8.6055  -4.1384   0.2972   6.5151   8.4419   9.3269

     occupation numbers 
     1.0000   1.0000   1.0000   1.0000   0.0000   0.0000   0.0000   0.0000

          k = 0.1658 0.2871 0.0000 (  6317 PWs)   bands (ev):

   -19.2653  -9.4613  -8.1114  -7.0050   4.2590   4.7115   5.1743   5.7977

     occupation numbers 
     1.0000   1.0000   1.0000   1.0000   0.0000   0.0000   0.0000   0.0000

          k = 0.1658 0.3829 0.0000 (  6327 PWs)   bands (ev):

   -18.1581 -11.1902  -9.1702  -5.7514   2.7675   5.8075   6.7026   7.3823

     occupation numbers 
     1.0000   1.0000   1.0000   1.0000   0.0000   0.0000   0.0000   0.0000

          k = 0.1658 0.4786 0.0000 (  6315 PWs)   bands (ev):

   -16.7828 -13.1017  -9.7481  -4.3249   0.8581   7.7659   8.4262   8.5679

     occupation numbers 
     1.0000   1.0000   1.0000   1.0000   0.0000   0.0000   0.0000   0.0000

          k = 0.1658 0.5743 0.0000 (  6306 PWs)   bands (ev):

   -15.5489 -14.5365  -9.9336  -3.4335  -0.2079   8.3195   9.9608  10.0127

     occupation numbers 
     1.0000   1.0000   1.0000   1.0000   0.0000   0.0000   0.0000   0.0000

          k = 0.2487 0.4307 0.0000 (  6337 PWs)   bands (ev):

   -16.9305 -12.2273 -10.6538  -4.4085   1.1531   7.5559   8.2765   9.1887

     occupation numbers 
     1.0000   1.0000   1.0000   1.0000   0.0000   0.0000   0.0000   0.0000

          k = 0.2487 0.5264 0.0000 (  6311 PWs)   bands (ev):

   -15.5088 -13.6485 -11.3624  -3.0232  -0.3666   9.2407   9.6511  10.5767

     occupation numbers 
     1.0000   1.0000   1.0000   1.0000   0.0000   0.0000   0.0000   0.0000

          k = 0.3316 0.5743 0.0000 (  6324 PWs)   bands (ev):

   -14.2922 -14.2922 -12.2573  -1.6665  -1.6665   8.9926  11.2341  11.2341

     occupation numbers 
     1.0000   1.0000   1.0000   0.5000   0.5000   0.0000   0.0000   0.0000

     the Fermi energy is    -1.6475 ev

!    total energy              =     -24.09524830 Ry
     estimated scf accuracy    <          2.1E-09 Ry
     smearing contrib. (-TS)   =      -0.00009116 Ry
     internal energy E=F+TS    =     -24.09515713 Ry

     The total energy is F=E-TS. E is the sum of the following terms:
     one-electron contribution =    -153.23457977 Ry
     hartree contribution      =      78.12689344 Ry
     xc contribution           =      -8.57897421 Ry
     ewald contribution        =      59.59150341 Ry

     convergence has been achieved in   6 iterations

     Forces acting on atoms (cartesian axes, Ry/au):

     atom    1 type  1   force =     0.00000000    0.00000000    0.00000000
     atom    2 type  1   force =    -0.00000000    0.00000000    0.00000000
     The non-local contrib.  to forces
     atom    1 type  1   force =     0.00000000    0.00000000    0.00000000
     atom    2 type  1   force =    -0.00000000   -0.00000000    0.00000000
     The ionic contribution  to forces
     atom    1 type  1   force =    -0.00000001    0.00000000   -0.00000000
     atom    2 type  1   force =     0.00000001   -0.00000000   -0.00000000
     The local contribution  to forces
     atom    1 type  1   force =    -0.00000000   -0.00000000    0.00000000
     atom    2 type  1   force =     0.00000001   -0.00000000    0.00000000
     The core correction contribution to forces
     atom    1 type  1   force =     0.00000000   -0.00000000    0.00000000
     atom    2 type  1   force =    -0.00000000    0.00000000    0.00000000
     The Hubbard contrib.    to forces
     atom    1 type  1   force =     0.00000000    0.00000000    0.00000000
     atom    2 type  1   force =     0.00000000    0.00000000    0.00000000
     The SCF correction term to forces
     atom    1 type  1   force =     0.00000000   -0.00000000   -0.00000000
     atom    2 type  1   force =    -0.00000000    0.00000000   -0.00000000

     Total force =     0.000000     Total SCF correction =     0.000000


     Computing stress (Cartesian axis) and pressure

          total   stress  (Ry/bohr**3)                   (kbar)     P=        0.01
   0.00000180   0.00000000   0.00000000            0.26        0.00        0.00
   0.00000000   0.00000180   0.00000000            0.00        0.26        0.00
   0.00000000   0.00000000  -0.00000335            0.00        0.00       -0.49

     kinetic stress (kbar)   3042.03     -0.00     -0.00
                               -0.00   3042.03     -0.00
                                0.00      0.00   3360.22

     local   stress (kbar) -46098.42      0.00      0.00
                                0.00 -46098.42      0.00
                                0.00      0.00  47008.88

     nonloc. stress (kbar)   -309.75      0.00      0.00
                                0.00   -309.75      0.00
                                0.00      0.00   -261.05

     hartree stress (kbar)  21743.45     -0.00     -0.00
                               -0.00  21743.45     -0.00
                               -0.00     -0.00 -21510.01

     exc-cor stress (kbar)   -240.87     -0.00     -0.00
                               -0.00   -240.87     -0.00
                               -0.00     -0.00   -269.67

     corecor stress (kbar)   -458.34      0.00     -0.00
                                0.00   -458.34      0.00
                               -0.00      0.00   -447.47

     ewald   stress (kbar)  22322.16     -0.00     -0.00
                               -0.00  22322.16     -0.00
                               -0.00     -0.00 -27881.39

     hubbard stress (kbar)      0.00      0.00      0.00
                                0.00      0.00      0.00
                                0.00      0.00      0.00

     DFT-D   stress (kbar)      0.00      0.00      0.00
                                0.00      0.00      0.00
                                0.00      0.00      0.00

     XDM     stress (kbar)      0.00      0.00      0.00
                                0.00      0.00      0.00
                                0.00      0.00      0.00

     dft-nl  stress (kbar)      0.00      0.00      0.00
                                0.00      0.00      0.00
                                0.00      0.00      0.00

     TS-vdW  stress (kbar)      0.00      0.00      0.00
                                0.00      0.00      0.00
                                0.00      0.00      0.00

     MDB     stress (kbar)      0.00      0.00      0.00
                                0.00      0.00      0.00
                                0.00      0.00      0.00

     3D-RISM stress (kbar)      0.00      0.00      0.00
                                0.00      0.00      0.00
                                0.00      0.00      0.00


     Writing all to output data dir ./tmp/graphene_PBE.save/

     init_run     :      3.94s CPU      3.94s WALL (       2 calls)
     electrons    :     37.99s CPU     34.99s WALL (       4 calls)
     update_pot   :      3.36s CPU      3.37s WALL (       2 calls)
     forces       :      4.27s CPU      4.30s WALL (       4 calls)
     stress       :      9.96s CPU     10.52s WALL (       4 calls)

     Called by init_run:
     wfcinit      :      0.86s CPU      0.84s WALL (       2 calls)
     wfcinit:atom :      0.02s CPU      0.02s WALL (      38 calls)
     wfcinit:wfcr :      0.76s CPU      0.74s WALL (      38 calls)
     potinit      :      0.95s CPU      0.97s WALL (       2 calls)
     hinit0       :      2.07s CPU      2.08s WALL (       2 calls)

     Called by electrons:
     c_bands      :     33.03s CPU     29.82s WALL (      26 calls)
     sum_band     :      4.03s CPU      4.05s WALL (      26 calls)
     v_of_rho     :      0.88s CPU      1.00s WALL (      30 calls)
     v_h          :      0.05s CPU      0.05s WALL (      30 calls)
     v_xc         :      1.07s CPU      1.21s WALL (      38 calls)
     mix_rho      :      0.15s CPU      0.22s WALL (      26 calls)

     Called by c_bands:
     init_us_2    :      0.70s CPU      0.70s WALL (    1178 calls)
     init_us_2:cp :      0.70s CPU      0.70s WALL (    1178 calls)
     cegterg      :     32.16s CPU     28.94s WALL (     494 calls)

     Called by sum_band:
     sum_band:wei :      0.00s CPU      0.00s WALL (      26 calls)
     sum_band:loo :      3.87s CPU      3.90s WALL (      26 calls)
     sum_band:buf :      0.03s CPU      0.03s WALL (     494 calls)
     sum_band:ini :      0.29s CPU      0.30s WALL (     494 calls)

     Called by *egterg:
     cdiaghg      :      0.19s CPU      0.20s WALL (    2881 calls)
     cegterg:over :      1.25s CPU      1.26s WALL (    2425 calls)
     cegterg:upda :      1.80s CPU      0.83s WALL (    2425 calls)
     cegterg:last :      1.97s CPU      0.63s WALL (    1404 calls)
     h_psi        :     27.00s CPU     26.04s WALL (    2957 calls)
     g_psi        :      0.27s CPU      0.27s WALL (    2425 calls)

     Called by h_psi:
     h_psi:calbec :      0.90s CPU      0.91s WALL (    2957 calls)
     vloc_psi     :     24.30s CPU     24.44s WALL (    2957 calls)
     add_vuspsi   :      1.69s CPU      0.57s WALL (    2957 calls)

     General routines
     calbec       :      1.09s CPU      1.10s WALL (    3337 calls)
     fft          :      0.81s CPU      0.81s WALL (     398 calls)
     ffts         :      0.03s CPU      0.03s WALL (      26 calls)
     fftw         :     24.90s CPU     24.99s WALL (   31160 calls)

     Parallel routines

     PWSCF        :     59.57s CPU     57.21s WALL


   This run was terminated on:  19:43:14  26Mar2024            

=------------------------------------------------------------------------------=
   JOB DONE.
=------------------------------------------------------------------------------=
