
     Program PWSCF v.6.7MaX starts on 14Feb2024 at 15:29:54 

     This program is part of the open-source Quantum ESPRESSO suite
     for quantum simulation of materials; please cite
         "P. Giannozzi et al., J. Phys.:Condens. Matter 21 395502 (2009);
         "P. Giannozzi et al., J. Phys.:Condens. Matter 29 465901 (2017);
          URL http://www.quantum-espresso.org", 
     in publications or presentations arising from this work. More details at
     http://www.quantum-espresso.org/quote

     Parallel version (MPI), running on     1 processors

     MPI processes distributed on     1 nodes
     Waiting for input...
     Reading input from standard input

     Current dimensions of program PWSCF are:
     Max number of different atomic species (ntypx) = 10
     Max number of k-points (npk) =  40000
     Max angular momentum in pseudopotentials (lmaxx) =  3
     Message from routine read_pp_mesh:
     mesh size missing, using the one in header
     Message from routine read_pp_mesh:
     mesh size missing, using the one in header

     Subspace diagonalization in iterative solution of the eigenvalue problem:
     a serial algorithm will be used


     G-vector sticks info
     --------------------
     sticks:   dense  smooth     PW     G-vecs:    dense   smooth      PW
     Sum         361     361    109                32597    32597    5573



     bravais-lattice index     =            4
     lattice parameter (alat)  =       4.6350  a.u.
     unit-cell volume          =     517.4056 (a.u.)^3
     number of atoms/cell      =            2
     number of atomic types    =            2
     number of electrons       =         8.00
     number of Kohn-Sham states=            8
     kinetic-energy cutoff     =      60.0000  Ry
     charge density cutoff     =     240.0000  Ry
     scf convergence threshold =      1.0E-06
     mixing beta               =       0.7000
     number of iterations used =            8  plain     mixing
     energy convergence thresh.=      1.0E-04
     force convergence thresh. =      1.0E-03
     press convergence thresh. =      5.0E-01
     Exchange-correlation= PBE
                           (   1   4   3   4   0   0   0)
     nstep                     =           50


     celldm(1)=   4.635000  celldm(2)=   0.000000  celldm(3)=   6.000000
     celldm(4)=   0.000000  celldm(5)=   0.000000  celldm(6)=   0.000000

     crystal axes: (cart. coord. in units of alat)
               a(1) = (   1.000000   0.000000   0.000000 )  
               a(2) = (  -0.500000   0.866025   0.000000 )  
               a(3) = (   0.000000   0.000000   6.000000 )  

     reciprocal axes: (cart. coord. in units 2 pi/alat)
               b(1) = (  1.000000  0.577350 -0.000000 )  
               b(2) = (  0.000000  1.154701  0.000000 )  
               b(3) = (  0.000000 -0.000000  0.166667 )  


     PseudoPot. # 1 for N  read from file:
     ../../../Pseudo/PBE/N.upf
     MD5 check sum: d34365f73bb0e2ee98afc20ec3e87676
     Pseudo is Norm-conserving + core correction, Zval =  5.0
     Generated using ONCVPSP code by D. R. Hamann
     Using radial grid of 1058 points,  4 beta functions with: 
                l(1) =   0
                l(2) =   0
                l(3) =   1
                l(4) =   1

     PseudoPot. # 2 for B  read from file:
     ../../../Pseudo/PBE/B.upf
     MD5 check sum: 72f82fc31bc892420d0cab7e25c88ab8
     Pseudo is Norm-conserving + core correction, Zval =  3.0
     Generated using ONCVPSP code by D. R. Hamann
     Using radial grid of 1534 points,  4 beta functions with: 
                l(1) =   0
                l(2) =   0
                l(3) =   1
                l(4) =   1

     atomic species   valence    mass     pseudopotential
        N              5.00    14.00670     N ( 1.00)
        B              3.00    10.80100     B ( 1.00)

     12 Sym. Ops. (no inversion) found


                                    s                        frac. trans.

      isym =  1     identity                                     

 cryst.   s( 1) = (     1          0          0      )
                  (     0          1          0      )
                  (     0          0          1      )

 cart.    s( 1) = (  1.0000000  0.0000000  0.0000000 )
                  (  0.0000000  1.0000000  0.0000000 )
                  (  0.0000000  0.0000000  1.0000000 )


      isym =  2     180 deg rotation - cart. axis [0,1,0]        

 cryst.   s( 2) = (    -1          0          0      )
                  (     1          1          0      )
                  (     0          0         -1      )

 cart.    s( 2) = ( -1.0000000  0.0000000  0.0000000 )
                  (  0.0000000  1.0000000  0.0000000 )
                  (  0.0000000  0.0000000 -1.0000000 )


      isym =  3     120 deg rotation - cryst. axis [0,0,1]       

 cryst.   s( 3) = (     0          1          0      )
                  (    -1         -1          0      )
                  (     0          0          1      )

 cart.    s( 3) = ( -0.5000000 -0.8660254  0.0000000 )
                  (  0.8660254 -0.5000000  0.0000000 )
                  (  0.0000000  0.0000000  1.0000000 )


      isym =  4     120 deg rotation - cryst. axis [0,0,-1]      

 cryst.   s( 4) = (    -1         -1          0      )
                  (     1          0          0      )
                  (     0          0          1      )

 cart.    s( 4) = ( -0.5000000  0.8660254  0.0000000 )
                  ( -0.8660254 -0.5000000  0.0000000 )
                  (  0.0000000  0.0000000  1.0000000 )


      isym =  5     180 deg rotation - cryst. axis [1,-1,0]      

 cryst.   s( 5) = (     0         -1          0      )
                  (    -1          0          0      )
                  (     0          0         -1      )

 cart.    s( 5) = (  0.5000000 -0.8660254  0.0000000 )
                  ( -0.8660254 -0.5000000  0.0000000 )
                  (  0.0000000  0.0000000 -1.0000000 )


      isym =  6     180 deg rotation - cryst. axis [2,1,0]       

 cryst.   s( 6) = (     1          1          0      )
                  (     0         -1          0      )
                  (     0          0         -1      )

 cart.    s( 6) = (  0.5000000  0.8660254  0.0000000 )
                  (  0.8660254 -0.5000000  0.0000000 )
                  (  0.0000000  0.0000000 -1.0000000 )


      isym =  7     inv. 180 deg rotation - cart. axis [0,0,1]   

 cryst.   s( 7) = (     1          0          0      )
                  (     0          1          0      )
                  (     0          0         -1      )

 cart.    s( 7) = (  1.0000000  0.0000000  0.0000000 )
                  (  0.0000000  1.0000000  0.0000000 )
                  (  0.0000000  0.0000000 -1.0000000 )


      isym =  8     inv. 180 deg rotation - cart. axis [1,0,0]   

 cryst.   s( 8) = (    -1          0          0      )
                  (     1          1          0      )
                  (     0          0          1      )

 cart.    s( 8) = ( -1.0000000  0.0000000  0.0000000 )
                  (  0.0000000  1.0000000  0.0000000 )
                  (  0.0000000  0.0000000  1.0000000 )


      isym =  9     inv.  60 deg rotation - cryst. axis [0,0,1]  

 cryst.   s( 9) = (    -1         -1          0      )
                  (     1          0          0      )
                  (     0          0         -1      )

 cart.    s( 9) = ( -0.5000000  0.8660254  0.0000000 )
                  ( -0.8660254 -0.5000000  0.0000000 )
                  (  0.0000000  0.0000000 -1.0000000 )


      isym = 10     inv.  60 deg rotation - cryst. axis [0,0,-1] 

 cryst.   s(10) = (     0          1          0      )
                  (    -1         -1          0      )
                  (     0          0         -1      )

 cart.    s(10) = ( -0.5000000 -0.8660254  0.0000000 )
                  (  0.8660254 -0.5000000  0.0000000 )
                  (  0.0000000  0.0000000 -1.0000000 )


      isym = 11     inv. 180 deg rotation - cryst. axis [0,1,0]  

 cryst.   s(11) = (     1          1          0      )
                  (     0         -1          0      )
                  (     0          0          1      )

 cart.    s(11) = (  0.5000000  0.8660254  0.0000000 )
                  (  0.8660254 -0.5000000  0.0000000 )
                  (  0.0000000  0.0000000  1.0000000 )


      isym = 12     inv. 180 deg rotation - cryst. axis [1,1,0]  

 cryst.   s(12) = (     0         -1          0      )
                  (    -1          0          0      )
                  (     0          0          1      )

 cart.    s(12) = (  0.5000000 -0.8660254  0.0000000 )
                  ( -0.8660254 -0.5000000  0.0000000 )
                  (  0.0000000  0.0000000  1.0000000 )


     point group D_3h (-62m)
     there are  6 classes
     the character table:

       E     2C3   3C2   s_h   2S3   3s_v 
A'_1   1.00  1.00  1.00  1.00  1.00  1.00
A'_2   1.00  1.00 -1.00  1.00  1.00 -1.00
E'     2.00 -1.00  0.00  2.00 -1.00  0.00
A''1   1.00  1.00  1.00 -1.00 -1.00 -1.00
A''2   1.00  1.00 -1.00 -1.00 -1.00  1.00
E''    2.00 -1.00  0.00 -2.00  1.00  0.00

     the symmetry operations in each class and the name of the first element:

     E        1
          identity                                               
     2C3      3    4
          120 deg rotation - cryst. axis [0,0,1]                 
     3C2      2    6    5
          180 deg rotation - cart. axis [0,1,0]                  
     s_h      7
          inv. 180 deg rotation - cart. axis [0,0,1]             
     2S3      9   10
          inv.  60 deg rotation - cryst. axis [0,0,1]            
     3s_v     8   11   12
          inv. 180 deg rotation - cart. axis [1,0,0]             

   Cartesian axes

     site n.     atom                  positions (alat units)
         1           B   tau(   1) = (   0.0000000   0.0000000   0.0000000  )
         2           N   tau(   2) = (  -0.0000000   0.5773503   0.0000000  )

   Crystallographic axes

     site n.     atom                  positions (cryst. coord.)
         1           B   tau(   1) = (  0.0000000  0.0000000  0.0000000  )
         2           N   tau(   2) = (  0.3333333  0.6666667  0.0000000  )

     number of k points=    30  Marzari-Vanderbilt smearing, width (Ry)=  0.0100
                       cart. coord. in units 2pi/alat
        k(    1) = (   0.0000000   0.0000000   0.0000000), wk =   0.0078125
        k(    2) = (   0.0000000   0.0721688   0.0000000), wk =   0.0468750
        k(    3) = (   0.0000000   0.1443376   0.0000000), wk =   0.0468750
        k(    4) = (   0.0000000   0.2165064   0.0000000), wk =   0.0468750
        k(    5) = (   0.0000000   0.2886751   0.0000000), wk =   0.0468750
        k(    6) = (   0.0000000   0.3608439   0.0000000), wk =   0.0468750
        k(    7) = (   0.0000000   0.4330127   0.0000000), wk =   0.0468750
        k(    8) = (   0.0000000   0.5051815   0.0000000), wk =   0.0468750
        k(    9) = (   0.0000000  -0.5773503   0.0000000), wk =   0.0234375
        k(   10) = (   0.0625000   0.1082532   0.0000000), wk =   0.0468750
        k(   11) = (   0.0625000   0.1804220   0.0000000), wk =   0.0937500
        k(   12) = (   0.0625000   0.2525907   0.0000000), wk =   0.0937500
        k(   13) = (   0.0625000   0.3247595   0.0000000), wk =   0.0937500
        k(   14) = (   0.0625000   0.3969283   0.0000000), wk =   0.0937500
        k(   15) = (   0.0625000   0.4690971   0.0000000), wk =   0.0937500
        k(   16) = (   0.0625000   0.5412659   0.0000000), wk =   0.0937500
        k(   17) = (   0.1250000   0.2165064   0.0000000), wk =   0.0468750
        k(   18) = (   0.1250000   0.2886751   0.0000000), wk =   0.0937500
        k(   19) = (   0.1250000   0.3608439   0.0000000), wk =   0.0937500
        k(   20) = (   0.1250000   0.4330127   0.0000000), wk =   0.0937500
        k(   21) = (   0.1250000   0.5051815   0.0000000), wk =   0.0937500
        k(   22) = (   0.1250000   0.5773503   0.0000000), wk =   0.0468750
        k(   23) = (   0.1875000   0.3247595   0.0000000), wk =   0.0468750
        k(   24) = (   0.1875000   0.3969283   0.0000000), wk =   0.0937500
        k(   25) = (   0.1875000   0.4690971   0.0000000), wk =   0.0937500
        k(   26) = (   0.1875000   0.5412659   0.0000000), wk =   0.0937500
        k(   27) = (   0.2500000   0.4330127   0.0000000), wk =   0.0468750
        k(   28) = (   0.2500000   0.5051815   0.0000000), wk =   0.0937500
        k(   29) = (   0.2500000   0.5773503   0.0000000), wk =   0.0468750
        k(   30) = (   0.3125000   0.5412659   0.0000000), wk =   0.0468750

                       cryst. coord.
        k(    1) = (   0.0000000   0.0000000   0.0000000), wk =   0.0078125
        k(    2) = (   0.0000000   0.0625000   0.0000000), wk =   0.0468750
        k(    3) = (   0.0000000   0.1250000   0.0000000), wk =   0.0468750
        k(    4) = (   0.0000000   0.1875000   0.0000000), wk =   0.0468750
        k(    5) = (   0.0000000   0.2500000   0.0000000), wk =   0.0468750
        k(    6) = (   0.0000000   0.3125000   0.0000000), wk =   0.0468750
        k(    7) = (   0.0000000   0.3750000   0.0000000), wk =   0.0468750
        k(    8) = (   0.0000000   0.4375000   0.0000000), wk =   0.0468750
        k(    9) = (   0.0000000  -0.5000000   0.0000000), wk =   0.0234375
        k(   10) = (   0.0625000   0.0625000   0.0000000), wk =   0.0468750
        k(   11) = (   0.0625000   0.1250000   0.0000000), wk =   0.0937500
        k(   12) = (   0.0625000   0.1875000   0.0000000), wk =   0.0937500
        k(   13) = (   0.0625000   0.2500000   0.0000000), wk =   0.0937500
        k(   14) = (   0.0625000   0.3125000   0.0000000), wk =   0.0937500
        k(   15) = (   0.0625000   0.3750000   0.0000000), wk =   0.0937500
        k(   16) = (   0.0625000   0.4375000   0.0000000), wk =   0.0937500
        k(   17) = (   0.1250000   0.1250000   0.0000000), wk =   0.0468750
        k(   18) = (   0.1250000   0.1875000   0.0000000), wk =   0.0937500
        k(   19) = (   0.1250000   0.2500000   0.0000000), wk =   0.0937500
        k(   20) = (   0.1250000   0.3125000   0.0000000), wk =   0.0937500
        k(   21) = (   0.1250000   0.3750000   0.0000000), wk =   0.0937500
        k(   22) = (   0.1250000   0.4375000   0.0000000), wk =   0.0468750
        k(   23) = (   0.1875000   0.1875000   0.0000000), wk =   0.0468750
        k(   24) = (   0.1875000   0.2500000   0.0000000), wk =   0.0937500
        k(   25) = (   0.1875000   0.3125000   0.0000000), wk =   0.0937500
        k(   26) = (   0.1875000   0.3750000   0.0000000), wk =   0.0937500
        k(   27) = (   0.2500000   0.2500000   0.0000000), wk =   0.0468750
        k(   28) = (   0.2500000   0.3125000   0.0000000), wk =   0.0937500
        k(   29) = (   0.2500000   0.3750000   0.0000000), wk =   0.0468750
        k(   30) = (   0.3125000   0.3125000   0.0000000), wk =   0.0468750

     Dense  grid:    32597 G-vectors     FFT dimensions: (  24,  24, 144)

     Dynamical RAM for                 wfc:       0.50 MB

     Dynamical RAM for     wfc (w. buffer):      15.37 MB

     Dynamical RAM for           str. fact:       0.99 MB

     Dynamical RAM for           local pot:       0.00 MB

     Dynamical RAM for          nlocal pot:       0.99 MB

     Dynamical RAM for                qrad:       1.42 MB

     Dynamical RAM for          rho,v,vnew:       3.39 MB

     Dynamical RAM for               rhoin:       1.13 MB

     Dynamical RAM for            rho*nmix:       7.96 MB

     Dynamical RAM for           G-vectors:       2.11 MB

     Dynamical RAM for          h,s,v(r/c):       0.01 MB

     Dynamical RAM for          <psi|beta>:       0.00 MB

     Dynamical RAM for                 psi:       0.99 MB

     Dynamical RAM for                hpsi:       0.99 MB

     Dynamical RAM for      wfcinit/wfcrot:       0.99 MB

     Estimated static dynamical RAM per process >      38.02 MB

     Estimated max dynamical RAM per process >      40.02 MB

     Initial potential from superposition of free atoms

     starting charge    7.99974, renormalised to    8.00000

     negative rho (up, down):  6.733E-05 0.000E+00
     Starting wfcs are    8 randomized atomic wfcs

     total cpu time spent up to now is        2.6 secs

     Self-consistent Calculation

     iteration #  1     ecut=    60.00 Ry     beta= 0.70
     Davidson diagonalization with overlap
     ethr =  1.00E-02,  avg # of iterations =  7.9

     negative rho (up, down):  8.769E-06 0.000E+00

     total cpu time spent up to now is        5.0 secs

     total energy              =     -26.67862816 Ry
     estimated scf accuracy    <       0.41732585 Ry

     iteration #  2     ecut=    60.00 Ry     beta= 0.70
     Davidson diagonalization with overlap
     ethr =  5.22E-03,  avg # of iterations =  3.4

     negative rho (up, down):  3.276E-06 0.000E+00

     total cpu time spent up to now is        6.4 secs

     total energy              =     -26.77630864 Ry
     estimated scf accuracy    <       0.15267992 Ry

     iteration #  3     ecut=    60.00 Ry     beta= 0.70
     Davidson diagonalization with overlap
     ethr =  1.91E-03,  avg # of iterations =  3.4

     total cpu time spent up to now is        8.2 secs

     total energy              =     -26.80539500 Ry
     estimated scf accuracy    <       0.00164538 Ry

     iteration #  4     ecut=    60.00 Ry     beta= 0.70
     Davidson diagonalization with overlap
     ethr =  2.06E-05,  avg # of iterations =  9.8

     negative rho (up, down):  1.043E-08 0.000E+00

     total cpu time spent up to now is       14.3 secs

     total energy              =     -26.80656085 Ry
     estimated scf accuracy    <       0.00084483 Ry

     iteration #  5     ecut=    60.00 Ry     beta= 0.70
     Davidson diagonalization with overlap
     ethr =  1.06E-05,  avg # of iterations =  2.0

     total cpu time spent up to now is       17.0 secs

     total energy              =     -26.80672286 Ry
     estimated scf accuracy    <       0.00000801 Ry

     iteration #  6     ecut=    60.00 Ry     beta= 0.70
     Davidson diagonalization with overlap
     c_bands:  1 eigenvalues not converged
     ethr =  1.00E-07,  avg # of iterations =  4.5

     total cpu time spent up to now is       20.9 secs

     total energy              =     -26.80672758 Ry
     estimated scf accuracy    <       0.00001202 Ry

     iteration #  7     ecut=    60.00 Ry     beta= 0.70
     Davidson diagonalization with overlap
     ethr =  1.00E-07,  avg # of iterations =  2.3

     total cpu time spent up to now is       23.6 secs

     total energy              =     -26.80672796 Ry
     estimated scf accuracy    <       0.00000116 Ry

     iteration #  8     ecut=    60.00 Ry     beta= 0.70
     Davidson diagonalization with overlap
     ethr =  1.44E-08,  avg # of iterations =  2.8

     total cpu time spent up to now is       26.5 secs

     End of self-consistent calculation

          k = 0.0000 0.0000 0.0000 (  4053 PWs)   bands (ev):

   -21.3104  -8.8524  -4.5546  -4.5546   1.3395   2.3315   2.7804   4.7217

     occupation numbers 
     1.0000   1.0000   1.0000   1.0000   0.0000   0.0000   0.0000   0.0000

          k = 0.0000 0.0722 0.0000 (  4058 PWs)   bands (ev):

   -21.2317  -8.7455  -4.8836  -4.7140   1.4731   2.4556   2.9115   4.8394

     occupation numbers 
     1.0000   1.0000   1.0000   1.0000   0.0000   0.0000   0.0000   0.0000

          k = 0.0000 0.1443 0.0000 (  4068 PWs)   bands (ev):

   -20.9977  -8.4278  -5.7754  -5.1368   1.8654   2.8250   3.3022   5.1835

     occupation numbers 
     1.0000   1.0000   1.0000   1.0000   0.0000   0.0000   0.0000   0.0000

          k = 0.0000 0.2165 0.0000 (  4078 PWs)   bands (ev):

   -20.6156  -7.9079  -7.0251  -5.6985   2.5036   3.4261   3.9482   5.7007

     occupation numbers 
     1.0000   1.0000   1.0000   1.0000   0.0000   0.0000   0.0000   0.0000

          k = 0.0000 0.2887 0.0000 (  4058 PWs)   bands (ev):

   -20.1006  -8.4342  -7.2029  -6.2801   3.3791   4.1848   4.8453   6.0334

     occupation numbers 
     1.0000   1.0000   1.0000   1.0000   0.0000   0.0000   0.0000   0.0000

          k = 0.0000 0.3608 0.0000 (  4068 PWs)   bands (ev):

   -19.4840  -9.8460  -6.7977  -6.3497   4.3745   4.4773   5.9838   6.0099

     occupation numbers 
     1.0000   1.0000   1.0000   1.0000   0.0000   0.0000   0.0000   0.0000

          k = 0.0000 0.4330 0.0000 (  4080 PWs)   bands (ev):

   -18.8291 -11.1148  -7.1977  -5.4248   3.2658   5.7434   7.1231   7.2893

     occupation numbers 
     1.0000   1.0000   1.0000   1.0000   0.0000   0.0000   0.0000   0.0000

          k = 0.0000 0.5052 0.0000 (  4060 PWs)   bands (ev):

   -18.2699 -12.0591  -7.4480  -4.6035   2.1564   6.8573   8.2529   8.6744

     occupation numbers 
     1.0000   1.0000   1.0000   1.0000   0.0000   0.0000   0.0000   0.0000

          k = 0.0000-0.5774 0.0000 (  4104 PWs)   bands (ev):

   -18.0346 -12.4264  -7.5339  -4.2438   1.6837   7.1769   9.4737   9.9308

     occupation numbers 
     1.0000   1.0000   1.0000   1.0000   0.0000   0.0000   0.0000   0.0000

          k = 0.0625 0.1083 0.0000 (  4077 PWs)   bands (ev):

   -21.0754  -8.5333  -5.4692  -5.0308   1.7360   2.7024   3.1725   5.0707

     occupation numbers 
     1.0000   1.0000   1.0000   1.0000   0.0000   0.0000   0.0000   0.0000

          k = 0.0625 0.1804 0.0000 (  4069 PWs)   bands (ev):

   -20.7670  -8.1142  -6.4887  -5.5729   2.2522   3.1888   3.6914   5.5073

     occupation numbers 
     1.0000   1.0000   1.0000   1.0000   0.0000   0.0000   0.0000   0.0000

          k = 0.0625 0.2526 0.0000 (  4058 PWs)   bands (ev):

   -20.3176  -7.7763  -7.5007  -6.1864   3.0116   3.8821   4.4644   5.9931

     occupation numbers 
     1.0000   1.0000   1.0000   1.0000   0.0000   0.0000   0.0000   0.0000

          k = 0.0625 0.3248 0.0000 (  4075 PWs)   bands (ev):

   -19.7492  -9.1623  -6.7628  -6.7186   4.0050   4.5134   5.4868   5.9266

     occupation numbers 
     1.0000   1.0000   1.0000   1.0000   0.0000   0.0000   0.0000   0.0000

          k = 0.0625 0.3969 0.0000 (  4052 PWs)   bands (ev):

   -19.1055 -10.4933  -7.2359  -5.8192   3.8631   5.2104   6.5577   6.7416

     occupation numbers 
     1.0000   1.0000   1.0000   1.0000   0.0000   0.0000   0.0000   0.0000

          k = 0.0625 0.4691 0.0000 (  4066 PWs)   bands (ev):

   -18.4800 -11.6095  -7.5686  -4.9192   2.6651   6.5260   7.9472   8.0237

     occupation numbers 
     1.0000   1.0000   1.0000   1.0000   0.0000   0.0000   0.0000   0.0000

          k = 0.0625 0.5413 0.0000 (  4077 PWs)   bands (ev):

   -18.0552 -12.2887  -7.7395  -4.2804   1.8230   7.3968   8.9958   9.5911

     occupation numbers 
     1.0000   1.0000   1.0000   1.0000   0.0000   0.0000   0.0000   0.0000

          k = 0.1250 0.2165 0.0000 (  4063 PWs)   bands (ev):

   -20.3909  -7.6012  -7.4563  -6.2583   2.8912   3.7731   4.3383   5.9448

     occupation numbers 
     1.0000   1.0000   1.0000   1.0000   0.0000   0.0000   0.0000   0.0000

          k = 0.1250 0.2887 0.0000 (  4078 PWs)   bands (ev):

   -19.8854  -8.6195  -6.9677  -6.9076   3.7739   4.4477   5.2398   6.0238

     occupation numbers 
     1.0000   1.0000   1.0000   1.0000   0.0000   0.0000   0.0000   0.0000

          k = 0.1250 0.3608 0.0000 (  4057 PWs)   bands (ev):

   -19.2814  -9.8645  -7.5653  -6.0691   4.2951   4.8894   6.2671   6.3904

     occupation numbers 
     1.0000   1.0000   1.0000   1.0000   0.0000   0.0000   0.0000   0.0000

          k = 0.1250 0.4330 0.0000 (  4069 PWs)   bands (ev):

   -18.6440 -11.0285  -8.0071  -5.1639   3.2020   6.2098   7.4571   7.7691

     occupation numbers 
     1.0000   1.0000   1.0000   1.0000   0.0000   0.0000   0.0000   0.0000

          k = 0.1250 0.5052 0.0000 (  4064 PWs)   bands (ev):

   -18.1040 -11.9092  -8.2768  -4.3654   2.1738   7.5988   8.9686   9.0464

     occupation numbers 
     1.0000   1.0000   1.0000   1.0000   0.0000   0.0000   0.0000   0.0000

          k = 0.1250 0.5774 0.0000 (  4072 PWs)   bands (ev):

   -17.8783 -12.2527  -8.3675  -4.0162   1.7351   8.2845   9.8166  10.2564

     occupation numbers 
     1.0000   1.0000   1.0000   1.0000   0.0000   0.0000   0.0000   0.0000

          k = 0.1875 0.3248 0.0000 (  4066 PWs)   bands (ev):

   -19.3418  -9.5385  -7.8045  -6.1543   4.4451   4.7809   6.1936   6.2705

     occupation numbers 
     1.0000   1.0000   1.0000   1.0000   0.0000   0.0000   0.0000   0.0000

          k = 0.1875 0.3969 0.0000 (  4055 PWs)   bands (ev):

   -18.7329 -10.5127  -8.4842  -5.2954   3.5615   6.0179   7.2130   7.5503

     occupation numbers 
     1.0000   1.0000   1.0000   1.0000   0.0000   0.0000   0.0000   0.0000

          k = 0.1875 0.4691 0.0000 (  4044 PWs)   bands (ev):

   -18.1508 -11.4031  -8.9298  -4.4461   2.5521   7.4506   8.5626   9.0565

     occupation numbers 
     1.0000   1.0000   1.0000   1.0000   0.0000   0.0000   0.0000   0.0000

          k = 0.1875 0.5413 0.0000 (  4054 PWs)   bands (ev):

   -17.7639 -11.9662  -9.1473  -3.8517   1.8507   8.8988   9.8271  10.2172

     occupation numbers 
     1.0000   1.0000   1.0000   1.0000   0.0000   0.0000   0.0000   0.0000

          k = 0.2500 0.4330 0.0000 (  4056 PWs)   bands (ev):

   -18.1697 -11.1037  -9.2881  -4.4785   2.7197   7.3669   8.4183   8.9567

     occupation numbers 
     1.0000   1.0000   1.0000   1.0000   0.0000   0.0000   0.0000   0.0000

          k = 0.2500 0.5052 0.0000 (  4040 PWs)   bands (ev):

   -17.7116 -11.5847  -9.8020  -3.7807   2.0010   8.8770   9.4297  10.5652

     occupation numbers 
     1.0000   1.0000   1.0000   1.0000   0.0000   0.0000   0.0000   0.0000

          k = 0.2500 0.5774 0.0000 (  4052 PWs)   bands (ev):

   -17.5273 -11.7842  -9.9722  -3.4852   1.6975   9.6425  10.0485  10.8866

     occupation numbers 
     1.0000   1.0000   1.0000   1.0000   0.0000   0.0000   0.0000   0.0000

          k = 0.3125 0.5413 0.0000 (  4030 PWs)   bands (ev):

   -17.4426 -11.5908 -10.3935  -3.3521   1.6598   9.4126  10.2646  11.5429

     occupation numbers 
     1.0000   1.0000   1.0000   1.0000   0.0000   0.0000   0.0000   0.0000

     the Fermi energy is    -0.7091 ev

!    total energy              =     -26.80672838 Ry
     estimated scf accuracy    <       0.00000021 Ry
     smearing contrib. (-TS)   =       0.00000000 Ry
     internal energy E=F+TS    =     -26.80672838 Ry

     The total energy is F=E-TS. E is the sum of the following terms:
     one-electron contribution =    -158.40078338 Ry
     hartree contribution      =      81.05098161 Ry
     xc contribution           =      -8.74704008 Ry
     ewald contribution        =      59.29011346 Ry

     convergence has been achieved in   8 iterations

     Forces acting on atoms (cartesian axes, Ry/au):

     atom    1 type  2   force =     0.00000000    0.00000000    0.00000000
     atom    2 type  1   force =     0.00000000    0.00000000    0.00000000
     The non-local contrib.  to forces
     atom    1 type  2   force =     0.00000000    0.00000000    0.00000000
     atom    2 type  1   force =     0.00000000    0.00000000    0.00000000
     The ionic contribution  to forces
     atom    1 type  2   force =    -0.00000001    0.00000000   -0.00000000
     atom    2 type  1   force =     0.00000001   -0.00000000   -0.00000000
     The local contribution  to forces
     atom    1 type  2   force =    -0.00000000   -0.00000000    0.00000000
     atom    2 type  1   force =     0.00000003   -0.00000002    0.00000000
     The core correction contribution to forces
     atom    1 type  2   force =    -0.00000000   -0.00000000   -0.00000000
     atom    2 type  1   force =    -0.00000000    0.00000000    0.00000000
     The Hubbard contrib.    to forces
     atom    1 type  2   force =     0.00000000    0.00000000    0.00000000
     atom    2 type  1   force =     0.00000000    0.00000000    0.00000000
     The SCF correction term to forces
     atom    1 type  2   force =    -0.00000000    0.00000000   -0.00000000
     atom    2 type  1   force =    -0.00000000    0.00000000   -0.00000000

     Total force =     0.000000     Total SCF correction =     0.000000


     Computing stress (Cartesian axis) and pressure

          total   stress  (Ry/bohr**3)                   (kbar)     P=       31.11
   0.00035400  -0.00000000   0.00000000           52.08       -0.00        0.00
  -0.00000000   0.00035400  -0.00000000           -0.00       52.08       -0.00
   0.00000000   0.00000000  -0.00007353            0.00        0.00      -10.82

     kinetic stress (kbar)   3510.58      0.00      0.00
                                0.00   3510.58      0.00
                                0.00     -0.00   3791.18

     local   stress (kbar) -47276.34      0.00      0.00
                                0.00 -47276.34      0.00
                                0.00      0.00  47900.73

     nonloc. stress (kbar)   -591.36      0.00     -0.00
                                0.00   -591.36     -0.00
                               -0.00     -0.00   -564.16

     hartree stress (kbar)  22473.76      0.00     -0.00
                                0.00  22473.76     -0.00
                               -0.00     -0.00 -21903.67

     exc-cor stress (kbar)   -349.03     -0.00     -0.00
                               -0.00   -349.03      0.00
                               -0.00      0.00   -375.38

     corecor stress (kbar)   -385.19      0.00     -0.00
                                0.00   -385.19      0.00
                               -0.00      0.00   -377.15

     ewald   stress (kbar)  22669.65     -0.00     -0.00
                               -0.00  22669.65     -0.00
                               -0.00     -0.00 -28482.36

     hubbard stress (kbar)      0.00      0.00      0.00
                                0.00      0.00      0.00
                                0.00      0.00      0.00

     DFT-D   stress (kbar)      0.00      0.00      0.00
                                0.00      0.00      0.00
                                0.00      0.00      0.00

     XDM     stress (kbar)      0.00      0.00      0.00
                                0.00      0.00      0.00
                                0.00      0.00      0.00

     dft-nl  stress (kbar)      0.00      0.00      0.00
                                0.00      0.00      0.00
                                0.00      0.00      0.00

     TS-vdW  stress (kbar)      0.00      0.00      0.00
                                0.00      0.00      0.00
                                0.00      0.00      0.00



     BFGS Geometry Optimization
     Energy error            =      0.0E+00
     Gradient error          =      0.0E+00
     Cell gradient error     =      3.5E-04


     number of scf cycles    =   1
     number of bfgs steps    =   0

     enthalpy new            =     -26.8067283838 Ry

     new trust radius        =       0.0402618677 bohr
     new conv_thr            =       0.0000010000 Ry

     new unit-cell volume =    525.63624 a.u.^3 (    77.89126 Ang^3 )
     density =      0.52887 g/cm^3

CELL_PARAMETERS (alat=  4.63500000)
   1.008850104  -0.000000000   0.000000000
  -0.504425052   0.873689819   0.000000000
   0.000000000  -0.000000000   5.988970444

ATOMIC_POSITIONS (crystal)
B             0.0000000000        0.0000000000        0.0000000000
N             0.3333333330        0.6666666670        0.0000000000



     Writing output data file ./tmp/hBN.save/
     NEW-OLD atomic charge density approx. for the potential

     negative rho (up, down):  2.078E-06 0.000E+00
     extrapolated charge    8.12526, renormalised to    8.00000

     total cpu time spent up to now is       36.3 secs

     Self-consistent Calculation

     iteration #  1     ecut=    60.00 Ry     beta= 0.70
     Davidson diagonalization with overlap
     c_bands:  1 eigenvalues not converged
     ethr =  1.00E-06,  avg # of iterations = 11.4

     total cpu time spent up to now is       44.0 secs

     total energy              =     -26.76508110 Ry
     estimated scf accuracy    <       0.02455545 Ry

     iteration #  2     ecut=    60.00 Ry     beta= 0.70
     Davidson diagonalization with overlap
     ethr =  3.07E-04,  avg # of iterations =  7.7

     total cpu time spent up to now is       49.2 secs

     total energy              =     -26.80904977 Ry
     estimated scf accuracy    <       0.04472208 Ry

     iteration #  3     ecut=    60.00 Ry     beta= 0.70
     Davidson diagonalization with overlap
     ethr =  3.07E-04,  avg # of iterations =  1.7

     total cpu time spent up to now is       51.8 secs

     total energy              =     -26.80969104 Ry
     estimated scf accuracy    <       0.00753281 Ry

     iteration #  4     ecut=    60.00 Ry     beta= 0.70
     Davidson diagonalization with overlap
     ethr =  9.42E-05,  avg # of iterations =  4.7

     total cpu time spent up to now is       54.7 secs

     total energy              =     -26.80968159 Ry
     estimated scf accuracy    <       0.00240957 Ry

     iteration #  5     ecut=    60.00 Ry     beta= 0.70
     Davidson diagonalization with overlap
     ethr =  3.01E-05,  avg # of iterations =  3.1

     total cpu time spent up to now is       57.6 secs

     total energy              =     -26.80959051 Ry
     estimated scf accuracy    <       0.00148606 Ry

     iteration #  6     ecut=    60.00 Ry     beta= 0.70
     Davidson diagonalization with overlap
     ethr =  1.86E-05,  avg # of iterations =  1.9

     total cpu time spent up to now is       60.1 secs

     total energy              =     -26.80917509 Ry
     estimated scf accuracy    <       0.00111295 Ry

     iteration #  7     ecut=    60.00 Ry     beta= 0.70
     Davidson diagonalization with overlap
     ethr =  1.39E-05,  avg # of iterations =  4.8

     negative rho (up, down):  1.356E-03 0.000E+00

     total cpu time spent up to now is       63.3 secs

     total energy              =     -26.80921603 Ry
     estimated scf accuracy    <       0.00017293 Ry

     iteration #  8     ecut=    60.00 Ry     beta= 0.70
     Davidson diagonalization with overlap
     ethr =  2.16E-06,  avg # of iterations =  6.6

     total cpu time spent up to now is       67.6 secs

     total energy              =     -26.80922430 Ry
     estimated scf accuracy    <       0.00002667 Ry

     iteration #  9     ecut=    60.00 Ry     beta= 0.70
     Davidson diagonalization with overlap
     ethr =  3.33E-07,  avg # of iterations =  6.7

     total cpu time spent up to now is       71.9 secs

     total energy              =     -26.80922604 Ry
     estimated scf accuracy    <       0.00007248 Ry

     iteration # 10     ecut=    60.00 Ry     beta= 0.70
     Davidson diagonalization with overlap
     ethr =  3.33E-07,  avg # of iterations =  1.5

     total cpu time spent up to now is       74.2 secs

     total energy              =     -26.80922254 Ry
     estimated scf accuracy    <       0.00002887 Ry

     iteration # 11     ecut=    60.00 Ry     beta= 0.70
     Davidson diagonalization with overlap
     ethr =  3.33E-07,  avg # of iterations =  5.6

     total cpu time spent up to now is       78.1 secs

     total energy              =     -26.80922547 Ry
     estimated scf accuracy    <       0.00000131 Ry

     iteration # 12     ecut=    60.00 Ry     beta= 0.70
     Davidson diagonalization with overlap
     ethr =  1.64E-08,  avg # of iterations =  2.3

     total cpu time spent up to now is       80.9 secs

     End of self-consistent calculation

          k = 0.0000 0.0000 0.0000 (  4053 PWs)   bands (ev):

   -21.2117  -8.7713  -4.6472  -4.6472   1.3081   2.3061   2.7491   4.6994

     occupation numbers 
     1.0000   1.0000   1.0000   1.0000   0.0000   0.0000   0.0000   0.0000

          k = 0.0000 0.0715 0.0000 (  4058 PWs)   bands (ev):

   -21.1344  -8.6668  -4.9727  -4.8022   1.4401   2.4276   2.8782   4.8137

     occupation numbers 
     1.0000   1.0000   1.0000   1.0000   0.0000   0.0000   0.0000   0.0000

          k = 0.0000 0.1431 0.0000 (  4068 PWs)   bands (ev):

   -20.9049  -8.3560  -5.8537  -5.2138   1.8268   2.7892   3.2625   5.1465

     occupation numbers 
     1.0000   1.0000   1.0000   1.0000   0.0000   0.0000   0.0000   0.0000

          k = 0.0000 0.2146 0.0000 (  4078 PWs)   bands (ev):

   -20.5303  -7.8477  -7.0859  -5.7612   2.4544   3.3760   3.8971   5.6358

     occupation numbers 
     1.0000   1.0000   1.0000   1.0000   0.0000   0.0000   0.0000   0.0000

          k = 0.0000 0.2861 0.0000 (  4058 PWs)   bands (ev):

   -20.0260  -8.4725  -7.1588  -6.3285   3.3132   4.1047   4.7772   5.8866

     occupation numbers 
     1.0000   1.0000   1.0000   1.0000   0.0000   0.0000   0.0000   0.0000

          k = 0.0000 0.3577 0.0000 (  4068 PWs)   bands (ev):

   -19.4234  -9.8591  -6.8338  -6.3259   4.2065   4.3862   5.8901   5.8985

     occupation numbers 
     1.0000   1.0000   1.0000   1.0000   0.0000   0.0000   0.0000   0.0000

          k = 0.0000 0.4292 0.0000 (  4080 PWs)   bands (ev):

   -18.7855 -11.1018  -7.2245  -5.4246   3.1050   5.6060   7.0122   7.1275

     occupation numbers 
     1.0000   1.0000   1.0000   1.0000   0.0000   0.0000   0.0000   0.0000

          k = 0.0000 0.5007 0.0000 (  4060 PWs)   bands (ev):

   -18.2435 -12.0229  -7.4690  -4.6263   2.0274   6.5985   8.0395   8.5346

     occupation numbers 
     1.0000   1.0000   1.0000   1.0000   0.0000   0.0000   0.0000   0.0000

          k =-0.0000-0.5723-0.0000 (  4104 PWs)   bands (ev):

   -18.0168 -12.3798  -7.5531  -4.2780   1.5697   6.8495   9.3002   9.7449

     occupation numbers 
     1.0000   1.0000   1.0000   1.0000   0.0000   0.0000   0.0000   0.0000

          k = 0.0620 0.1073 0.0000 (  4077 PWs)   bands (ev):

   -20.9811  -8.4592  -5.5518  -5.1108   1.6994   2.6692   3.1349   5.0376

     occupation numbers 
     1.0000   1.0000   1.0000   1.0000   0.0000   0.0000   0.0000   0.0000

          k = 0.0620 0.1788 0.0000 (  4069 PWs)   bands (ev):

   -20.6787  -8.0494  -6.5579  -5.6393   2.2075   3.1447   3.6450   5.4556

     occupation numbers 
     1.0000   1.0000   1.0000   1.0000   0.0000   0.0000   0.0000   0.0000

          k = 0.0620 0.2504 0.0000 (  4058 PWs)   bands (ev):

   -20.2384  -7.8255  -7.4498  -6.2385   2.9536   3.8177   4.4041   5.8862

     occupation numbers 
     1.0000   1.0000   1.0000   1.0000   0.0000   0.0000   0.0000   0.0000

          k = 0.0620 0.3219 0.0000 (  4075 PWs)   bands (ev):

   -19.6824  -9.1876  -6.8020  -6.6859   3.9271   4.3857   5.4065   5.7789

     occupation numbers 
     1.0000   1.0000   1.0000   1.0000   0.0000   0.0000   0.0000   0.0000

          k = 0.0620 0.3934 0.0000 (  4052 PWs)   bands (ev):

   -19.0543 -10.4926  -7.2647  -5.8086   3.6878   5.1022   6.4539   6.6291

     occupation numbers 
     1.0000   1.0000   1.0000   1.0000   0.0000   0.0000   0.0000   0.0000

          k = 0.0620 0.4650 0.0000 (  4066 PWs)   bands (ev):

   -18.4467 -11.5835  -7.5903  -4.9326   2.5195   6.3524   7.7979   7.8217

     occupation numbers 
     1.0000   1.0000   1.0000   1.0000   0.0000   0.0000   0.0000   0.0000

          k = 0.0620 0.5365 0.0000 (  4077 PWs)   bands (ev):

   -18.0365 -12.2442  -7.7575  -4.3129   1.7033   7.0909   8.8050   9.4313

     occupation numbers 
     1.0000   1.0000   1.0000   1.0000   0.0000   0.0000   0.0000   0.0000

          k = 0.1239 0.2146 0.0000 (  4063 PWs)   bands (ev):

   -20.3102  -7.5479  -7.5115  -6.3097   2.8359   3.7128   4.2807   5.8515

     occupation numbers 
     1.0000   1.0000   1.0000   1.0000   0.0000   0.0000   0.0000   0.0000

          k = 0.1239 0.2861 0.0000 (  4078 PWs)   bands (ev):

   -19.8155  -8.6546  -7.0053  -6.8704   3.7028   4.3452   5.1659   5.8612

     occupation numbers 
     1.0000   1.0000   1.0000   1.0000   0.0000   0.0000   0.0000   0.0000

          k = 0.1239 0.3577 0.0000 (  4057 PWs)   bands (ev):

   -19.2257  -9.8749  -7.5923  -6.0520   4.1131   4.7960   6.1605   6.2941

     occupation numbers 
     1.0000   1.0000   1.0000   1.0000   0.0000   0.0000   0.0000   0.0000

          k = 0.1239 0.4292 0.0000 (  4069 PWs)   bands (ev):

   -18.6055 -11.0127  -8.0265  -5.1702   3.0372   6.0829   7.3399   7.6372

     occupation numbers 
     1.0000   1.0000   1.0000   1.0000   0.0000   0.0000   0.0000   0.0000

          k = 0.1239 0.5007 0.0000 (  4064 PWs)   bands (ev):

   -18.0831 -11.8700  -8.2917  -4.3943   2.0392   7.3964   8.7878   8.8211

     occupation numbers 
     1.0000   1.0000   1.0000   1.0000   0.0000   0.0000   0.0000   0.0000

          k = 0.1239 0.5723 0.0000 (  4072 PWs)   bands (ev):

   -17.8659 -12.2030  -8.3809  -4.0562   1.6147   7.9700   9.6341  10.0709

     occupation numbers 
     1.0000   1.0000   1.0000   1.0000   0.0000   0.0000   0.0000   0.0000

          k = 0.1859 0.3219 0.0000 (  4066 PWs)   bands (ev):

   -19.2846  -9.5546  -7.8289  -6.1352   4.2635   4.6918   6.0822   6.1782

     occupation numbers 
     1.0000   1.0000   1.0000   1.0000   0.0000   0.0000   0.0000   0.0000

          k = 0.1859 0.3934 0.0000 (  4055 PWs)   bands (ev):

   -18.6918 -10.5045  -8.5001  -5.2979   3.3829   5.9044   7.0993   7.4337

     occupation numbers 
     1.0000   1.0000   1.0000   1.0000   0.0000   0.0000   0.0000   0.0000

          k = 0.1859 0.4650 0.0000 (  4044 PWs)   bands (ev):

   -18.1278 -11.3694  -8.9410  -4.4719   2.4004   7.3017   8.4226   8.9027

     occupation numbers 
     1.0000   1.0000   1.0000   1.0000   0.0000   0.0000   0.0000   0.0000

          k = 0.1859 0.5365 0.0000 (  4054 PWs)   bands (ev):

   -17.7554 -11.9140  -9.1563  -3.8956   1.7211   8.6696   9.6547   9.9508

     occupation numbers 
     1.0000   1.0000   1.0000   1.0000   0.0000   0.0000   0.0000   0.0000

          k = 0.2478 0.4292 0.0000 (  4056 PWs)   bands (ev):

   -18.1459 -11.0717  -9.2983  -4.5030   2.5600   7.2268   8.2810   8.8136

     occupation numbers 
     1.0000   1.0000   1.0000   1.0000   0.0000   0.0000   0.0000   0.0000

          k = 0.2478 0.5007 0.0000 (  4040 PWs)   bands (ev):

   -17.7047 -11.5283  -9.8118  -3.8259   1.8614   8.6969   9.2697  10.3751

     occupation numbers 
     1.0000   1.0000   1.0000   1.0000   0.0000   0.0000   0.0000   0.0000

          k = 0.2478 0.5723 0.0000 (  4052 PWs)   bands (ev):

   -17.5283 -11.7169  -9.9825  -3.5399   1.5674   9.4819   9.7883  10.6821

     occupation numbers 
     1.0000   1.0000   1.0000   1.0000   0.0000   0.0000   0.0000   0.0000

          k = 0.3098 0.5365 0.0000 (  4030 PWs)   bands (ev):

   -17.4471 -11.5063 -10.4159  -3.4107   1.5285   9.2625  10.0228  11.2913

     occupation numbers 
     1.0000   1.0000   1.0000   1.0000   0.0000   0.0000   0.0000   0.0000

     the Fermi energy is    -0.8293 ev

!    total energy              =     -26.80922596 Ry
     estimated scf accuracy    <       0.00000004 Ry
     smearing contrib. (-TS)   =       0.00000000 Ry
     internal energy E=F+TS    =     -26.80922596 Ry

     The total energy is F=E-TS. E is the sum of the following terms:
     one-electron contribution =    -155.28889761 Ry
     hartree contribution      =      79.47239452 Ry
     xc contribution           =      -8.71066332 Ry
     ewald contribution        =      57.71794045 Ry

     convergence has been achieved in  12 iterations

     Forces acting on atoms (cartesian axes, Ry/au):

     atom    1 type  2   force =     0.00000000    0.00000000    0.00000000
     atom    2 type  1   force =     0.00000000    0.00000000    0.00000000
     The non-local contrib.  to forces
     atom    1 type  2   force =     0.00000000    0.00000000    0.00000000
     atom    2 type  1   force =     0.00000000    0.00000000    0.00000000
     The ionic contribution  to forces
     atom    1 type  2   force =    -0.00000001    0.00000000   -0.00000000
     atom    2 type  1   force =     0.00000001   -0.00000000   -0.00000000
     The local contribution  to forces
     atom    1 type  2   force =     0.00000000   -0.00000000    0.00000000
     atom    2 type  1   force =     0.00000003   -0.00000002    0.00000000
     The core correction contribution to forces
     atom    1 type  2   force =    -0.00000000   -0.00000000    0.00000000
     atom    2 type  1   force =    -0.00000000    0.00000000    0.00000000
     The Hubbard contrib.    to forces
     atom    1 type  2   force =     0.00000000    0.00000000    0.00000000
     atom    2 type  1   force =     0.00000000    0.00000000    0.00000000
     The SCF correction term to forces
     atom    1 type  2   force =     0.00000000   -0.00000000    0.00000000
     atom    2 type  1   force =    -0.00000000    0.00000000    0.00000000

     Total force =     0.000000     Total SCF correction =     0.000000


     Computing stress (Cartesian axis) and pressure

          total   stress  (Ry/bohr**3)                   (kbar)     P=       13.63
   0.00017703   0.00000000  -0.00000000           26.04        0.00       -0.00
   0.00000000   0.00017703  -0.00000000            0.00       26.04       -0.00
   0.00000000   0.00000000  -0.00007604            0.00        0.00      -11.19

     kinetic stress (kbar)   3423.94     -0.00     -0.00
                               -0.00   3423.94     -0.00
                               -0.00      0.00   3714.50

     local   stress (kbar) -45601.04      0.00     -0.00
                                0.00 -45601.04      0.00
                               -0.00      0.00  46160.39

     nonloc. stress (kbar)   -573.77     -0.00     -0.00
                               -0.00   -573.77     -0.00
                               -0.00     -0.00   -550.65

     hartree stress (kbar)  21671.64     -0.00      0.00
                               -0.00  21671.64     -0.00
                                0.00     -0.00 -21102.05

     exc-cor stress (kbar)   -340.88     -0.00      0.00
                               -0.00   -340.88     -0.00
                                0.00     -0.00   -366.56

     corecor stress (kbar)   -378.34      0.00     -0.00
                                0.00   -378.34      0.00
                               -0.00      0.00   -370.81

     ewald   stress (kbar)  21824.50     -0.00     -0.00
                               -0.00  21824.50     -0.00
                               -0.00     -0.00 -27496.00

     hubbard stress (kbar)      0.00      0.00      0.00
                                0.00      0.00      0.00
                                0.00      0.00      0.00

     DFT-D   stress (kbar)      0.00      0.00      0.00
                                0.00      0.00      0.00
                                0.00      0.00      0.00

     XDM     stress (kbar)      0.00      0.00      0.00
                                0.00      0.00      0.00
                                0.00      0.00      0.00

     dft-nl  stress (kbar)      0.00      0.00      0.00
                                0.00      0.00      0.00
                                0.00      0.00      0.00

     TS-vdW  stress (kbar)      0.00      0.00      0.00
                                0.00      0.00      0.00
                                0.00      0.00      0.00


     Energy error            =      2.5E-03
     Gradient error          =      0.0E+00
     Cell gradient error     =      1.8E-04


     number of scf cycles    =   2
     number of bfgs steps    =   1

     enthalpy old            =     -26.8067283838 Ry
     enthalpy new            =     -26.8092259624 Ry

     CASE: enthalpy_new < enthalpy_old

     new trust radius        =       0.0428483243 bohr
     new conv_thr            =       0.0000000100 Ry

     new unit-cell volume =    533.33864 a.u.^3 (    79.03263 Ang^3 )
     density =      0.52123 g/cm^3

CELL_PARAMETERS (alat=  4.63500000)
   1.018277415  -0.000000000  -0.000000000
  -0.509138708   0.881854110   0.000000000
  -0.000000000  -0.000000000   5.964732564

ATOMIC_POSITIONS (crystal)
B             0.0000000000        0.0000000000        0.0000000000
N             0.3333333330        0.6666666670        0.0000000000



     Writing output data file ./tmp/hBN.save/
     NEW-OLD atomic charge density approx. for the potential

     negative rho (up, down):  2.499E-06 0.000E+00
     extrapolated charge    8.11553, renormalised to    8.00000

     total cpu time spent up to now is       90.5 secs

     Self-consistent Calculation

     iteration #  1     ecut=    60.00 Ry     beta= 0.70
     Davidson diagonalization with overlap
     ethr =  1.00E-06,  avg # of iterations = 11.6

     total cpu time spent up to now is       98.6 secs

     total energy              =     -26.79753961 Ry
     estimated scf accuracy    <       0.00876783 Ry

     iteration #  2     ecut=    60.00 Ry     beta= 0.70
     Davidson diagonalization with overlap
     ethr =  1.10E-04,  avg # of iterations =  8.5

     total cpu time spent up to now is      104.3 secs

     total energy              =     -26.80969876 Ry
     estimated scf accuracy    <       0.02207958 Ry

     iteration #  3     ecut=    60.00 Ry     beta= 0.70
     Davidson diagonalization with overlap
     ethr =  1.10E-04,  avg # of iterations =  1.9

     total cpu time spent up to now is      106.9 secs

     total energy              =     -26.80992991 Ry
     estimated scf accuracy    <       0.00358236 Ry

     iteration #  4     ecut=    60.00 Ry     beta= 0.70
     Davidson diagonalization with overlap
     ethr =  4.48E-05,  avg # of iterations =  3.1

     total cpu time spent up to now is      109.6 secs

     total energy              =     -26.81038564 Ry
     estimated scf accuracy    <       0.00040616 Ry

     iteration #  5     ecut=    60.00 Ry     beta= 0.70
     Davidson diagonalization with overlap
     ethr =  5.08E-06,  avg # of iterations =  3.9

     total cpu time spent up to now is      112.8 secs

     total energy              =     -26.81028988 Ry
     estimated scf accuracy    <       0.00041051 Ry

     iteration #  6     ecut=    60.00 Ry     beta= 0.70
     Davidson diagonalization with overlap
     ethr =  5.08E-06,  avg # of iterations =  2.9

     total cpu time spent up to now is      115.4 secs

     total energy              =     -26.81022830 Ry
     estimated scf accuracy    <       0.00015697 Ry

     iteration #  7     ecut=    60.00 Ry     beta= 0.70
     Davidson diagonalization with overlap
     ethr =  1.96E-06,  avg # of iterations =  5.4

     total cpu time spent up to now is      119.3 secs

     total energy              =     -26.81026321 Ry
     estimated scf accuracy    <       0.00002488 Ry

     iteration #  8     ecut=    60.00 Ry     beta= 0.70
     Davidson diagonalization with overlap
     ethr =  3.11E-07,  avg # of iterations =  2.1

     total cpu time spent up to now is      122.1 secs

     total energy              =     -26.81026471 Ry
     estimated scf accuracy    <       0.00000663 Ry

     iteration #  9     ecut=    60.00 Ry     beta= 0.70
     Davidson diagonalization with overlap
     ethr =  8.29E-08,  avg # of iterations =  1.1

     total cpu time spent up to now is      124.4 secs

     total energy              =     -26.81026482 Ry
     estimated scf accuracy    <       0.00000250 Ry

     iteration # 10     ecut=    60.00 Ry     beta= 0.70
     Davidson diagonalization with overlap
     ethr =  3.12E-08,  avg # of iterations =  1.0

     total cpu time spent up to now is      126.7 secs

     total energy              =     -26.81026426 Ry
     estimated scf accuracy    <       0.00000160 Ry

     iteration # 11     ecut=    60.00 Ry     beta= 0.70
     Davidson diagonalization with overlap
     ethr =  2.00E-08,  avg # of iterations =  1.5

     total cpu time spent up to now is      129.2 secs

     total energy              =     -26.81026431 Ry
     estimated scf accuracy    <       0.00000018 Ry

     iteration # 12     ecut=    60.00 Ry     beta= 0.70
     Davidson diagonalization with overlap
     ethr =  2.31E-09,  avg # of iterations =  2.2

     total cpu time spent up to now is      132.2 secs

     End of self-consistent calculation

          k = 0.0000 0.0000 0.0000 (  4053 PWs)   bands (ev):

   -21.1045  -8.6838  -4.7381  -4.7381   1.2789   2.2863   2.7248   4.6934

     occupation numbers 
     1.0000   1.0000   1.0000   1.0000   0.0000   0.0000   0.0000   0.0000

          k = 0.0000 0.0709 0.0000 (  4058 PWs)   bands (ev):

   -21.0288  -8.5817  -5.0601  -4.8886   1.4093   2.4051   2.8518   4.8039

     occupation numbers 
     1.0000   1.0000   1.0000   1.0000   0.0000   0.0000   0.0000   0.0000

          k = 0.0000 0.1417 0.0000 (  4068 PWs)   bands (ev):

   -20.8039  -8.2782  -5.9302  -5.2887   1.7903   2.7584   3.2295   5.1235

     occupation numbers 
     1.0000   1.0000   1.0000   1.0000   0.0000   0.0000   0.0000   0.0000

          k = 0.0000 0.2126 0.0000 (  4078 PWs)   bands (ev):

   -20.4373  -7.7819  -7.1443  -5.8214   2.4069   3.3297   3.8523   5.5779

     occupation numbers 
     1.0000   1.0000   1.0000   1.0000   0.0000   0.0000   0.0000   0.0000

          k = 0.0000 0.2835 0.0000 (  4058 PWs)   bands (ev):

   -19.9442  -8.5074  -7.1097  -6.3739   3.2480   4.0239   4.7142   5.7351

     occupation numbers 
     1.0000   1.0000   1.0000   1.0000   0.0000   0.0000   0.0000   0.0000

          k = 0.0000 0.3544 0.0000 (  4068 PWs)   bands (ev):

   -19.3562  -9.8677  -6.8665  -6.2979   4.0317   4.2935   5.7931   5.7980

     occupation numbers 
     1.0000   1.0000   1.0000   1.0000   0.0000   0.0000   0.0000   0.0000

          k = 0.0000 0.4252 0.0000 (  4080 PWs)   bands (ev):

   -18.7362 -11.0831  -7.2476  -5.4209   2.9407   5.4586   6.9046   6.9450

     occupation numbers 
     1.0000   1.0000   1.0000   1.0000   0.0000   0.0000   0.0000   0.0000

          k = 0.0000 0.4961 0.0000 (  4060 PWs)   bands (ev):

   -18.2122 -11.9802  -7.4861  -4.6465   1.8962   6.3172   7.8363   8.3966

     occupation numbers 
     1.0000   1.0000   1.0000   1.0000   0.0000   0.0000   0.0000   0.0000

          k =-0.0000-0.5670-0.0000 (  4104 PWs)   bands (ev):

   -17.9943 -12.3263  -7.5683  -4.3098   1.4540   6.5097   9.1243   9.5606

     occupation numbers 
     1.0000   1.0000   1.0000   1.0000   0.0000   0.0000   0.0000   0.0000

          k = 0.0614 0.1063 0.0000 (  4077 PWs)   bands (ev):

   -20.8786  -8.3790  -5.6325  -5.1886   1.6650   2.6413   3.1043   5.0193

     occupation numbers 
     1.0000   1.0000   1.0000   1.0000   0.0000   0.0000   0.0000   0.0000

          k = 0.0614 0.1772 0.0000 (  4069 PWs)   bands (ev):

   -20.5825  -7.9788  -6.6249  -5.7032   2.1648   3.1050   3.6052   5.4148

     occupation numbers 
     1.0000   1.0000   1.0000   1.0000   0.0000   0.0000   0.0000   0.0000

          k = 0.0614 0.2481 0.0000 (  4058 PWs)   bands (ev):

   -20.1517  -7.8720  -7.3935  -6.2876   2.8970   3.7553   4.3497   5.7758

     occupation numbers 
     1.0000   1.0000   1.0000   1.0000   0.0000   0.0000   0.0000   0.0000

          k = 0.0614 0.3189 0.0000 (  4075 PWs)   bands (ev):

   -19.6088  -9.2092  -6.8377  -6.6487   3.8494   4.2498   5.3305   5.6374

     occupation numbers 
     1.0000   1.0000   1.0000   1.0000   0.0000   0.0000   0.0000   0.0000

          k = 0.0614 0.3898 0.0000 (  4052 PWs)   bands (ev):

   -18.9971 -10.4870  -7.2897  -5.7942   3.5081   4.9907   6.3540   6.5149

     occupation numbers 
     1.0000   1.0000   1.0000   1.0000   0.0000   0.0000   0.0000   0.0000

          k = 0.0614 0.4607 0.0000 (  4066 PWs)   bands (ev):

   -18.4082 -11.5514  -7.6079  -4.9431   2.3711   6.1620   7.5588   7.6983

     occupation numbers 
     1.0000   1.0000   1.0000   1.0000   0.0000   0.0000   0.0000   0.0000

          k = 0.0614 0.5316 0.0000 (  4077 PWs)   bands (ev):

   -18.0130 -12.1931  -7.7713  -4.3430   1.5817   6.7681   8.6184   9.2717

     occupation numbers 
     1.0000   1.0000   1.0000   1.0000   0.0000   0.0000   0.0000   0.0000

          k = 0.1228 0.2126 0.0000 (  4063 PWs)   bands (ev):

   -20.2219  -7.5641  -7.4893  -6.3580   2.7823   3.6551   4.2294   5.7575

     occupation numbers 
     1.0000   1.0000   1.0000   1.0000   0.0000   0.0000   0.0000   0.0000

          k = 0.1228 0.2835 0.0000 (  4078 PWs)   bands (ev):

   -19.7386  -8.6865  -7.0391  -6.8284   3.6327   4.2378   5.0975   5.6999

     occupation numbers 
     1.0000   1.0000   1.0000   1.0000   0.0000   0.0000   0.0000   0.0000

          k = 0.1228 0.3544 0.0000 (  4057 PWs)   bands (ev):

   -19.1637  -9.8811  -7.6150  -6.0310   3.9254   4.7023   6.0588   6.2017

     occupation numbers 
     1.0000   1.0000   1.0000   1.0000   0.0000   0.0000   0.0000   0.0000

          k = 0.1228 0.4252 0.0000 (  4069 PWs)   bands (ev):

   -18.5616 -10.9917  -8.0414  -5.1733   2.8690   5.9519   7.2253   7.5015

     occupation numbers 
     1.0000   1.0000   1.0000   1.0000   0.0000   0.0000   0.0000   0.0000

          k = 0.1228 0.4961 0.0000 (  4064 PWs)   bands (ev):

   -18.0573 -11.8249  -8.3018  -4.4209   1.9023   7.1745   8.5262   8.6745

     occupation numbers 
     1.0000   1.0000   1.0000   1.0000   0.0000   0.0000   0.0000   0.0000

          k = 0.1228 0.5670 0.0000 (  4072 PWs)   bands (ev):

   -17.8489 -12.1470  -8.3894  -4.0941   1.4925   7.6394   9.4484   9.8845

     occupation numbers 
     1.0000   1.0000   1.0000   1.0000   0.0000   0.0000   0.0000   0.0000

          k = 0.1841 0.3189 0.0000 (  4066 PWs)   bands (ev):

   -19.2210  -9.5672  -7.8485  -6.1119   4.0753   4.6029   5.9765   6.0907

     occupation numbers 
     1.0000   1.0000   1.0000   1.0000   0.0000   0.0000   0.0000   0.0000

          k = 0.1841 0.3898 0.0000 (  4055 PWs)   bands (ev):

   -18.6450 -10.4921  -8.5105  -5.2970   3.2004   5.7898   6.9883   7.3202

     occupation numbers 
     1.0000   1.0000   1.0000   1.0000   0.0000   0.0000   0.0000   0.0000

          k = 0.1841 0.4607 0.0000 (  4044 PWs)   bands (ev):

   -18.0999 -11.3307  -8.9463  -4.4951   2.2460   7.1479   8.2837   8.7442

     occupation numbers 
     1.0000   1.0000   1.0000   1.0000   0.0000   0.0000   0.0000   0.0000

          k = 0.1841 0.5316 0.0000 (  4054 PWs)   bands (ev):

   -17.7424 -11.8563  -9.1593  -3.9375   1.5893   8.4210   9.4811   9.6837

     occupation numbers 
     1.0000   1.0000   1.0000   1.0000   0.0000   0.0000   0.0000   0.0000

          k = 0.2455 0.4252 0.0000 (  4056 PWs)   bands (ev):

   -18.1172 -11.0355  -9.3018  -4.5249   2.3974   7.0840   8.1449   8.6721

     occupation numbers 
     1.0000   1.0000   1.0000   1.0000   0.0000   0.0000   0.0000   0.0000

          k = 0.2455 0.4961 0.0000 (  4040 PWs)   bands (ev):

   -17.6933 -11.4675  -9.8144  -3.8691   1.7195   8.5099   9.1089  10.1753

     occupation numbers 
     1.0000   1.0000   1.0000   1.0000   0.0000   0.0000   0.0000   0.0000

          k = 0.2455 0.5670 0.0000 (  4052 PWs)   bands (ev):

   -17.5247 -11.6450  -9.9856  -3.5929   1.4354   9.3199   9.5125  10.4724

     occupation numbers 
     1.0000   1.0000   1.0000   1.0000   0.0000   0.0000   0.0000   0.0000

          k = 0.3069 0.5316 0.0000 (  4030 PWs)   bands (ev):

   -17.4469 -11.4164 -10.4316  -3.4678   1.3953   9.1111   9.7677  11.0356

     occupation numbers 
     1.0000   1.0000   1.0000   1.0000   0.0000   0.0000   0.0000   0.0000

     the Fermi energy is    -0.9489 ev

!    total energy              =     -26.81026436 Ry
     estimated scf accuracy    <          8.0E-10 Ry
     smearing contrib. (-TS)   =       0.00000000 Ry
     internal energy E=F+TS    =     -26.81026436 Ry

     The total energy is F=E-TS. E is the sum of the following terms:
     one-electron contribution =    -151.67279079 Ry
     hartree contribution      =      77.64343578 Ry
     xc contribution           =      -8.67302315 Ry
     ewald contribution        =      55.89211379 Ry

     convergence has been achieved in  12 iterations

     Forces acting on atoms (cartesian axes, Ry/au):

     atom    1 type  2   force =     0.00000000    0.00000000    0.00000000
     atom    2 type  1   force =     0.00000000    0.00000000    0.00000000
     The non-local contrib.  to forces
     atom    1 type  2   force =     0.00000000    0.00000000    0.00000000
     atom    2 type  1   force =    -0.00000000    0.00000000   -0.00000000
     The ionic contribution  to forces
     atom    1 type  2   force =    -0.00000001    0.00000000    0.00000000
     atom    2 type  1   force =     0.00000001   -0.00000000   -0.00000000
     The local contribution  to forces
     atom    1 type  2   force =    -0.00000000   -0.00000000    0.00000000
     atom    2 type  1   force =     0.00000003   -0.00000002    0.00000000
     The core correction contribution to forces
     atom    1 type  2   force =    -0.00000000   -0.00000000    0.00000000
     atom    2 type  1   force =    -0.00000000    0.00000000    0.00000000
     The Hubbard contrib.    to forces
     atom    1 type  2   force =     0.00000000    0.00000000    0.00000000
     atom    2 type  1   force =     0.00000000    0.00000000    0.00000000
     The SCF correction term to forces
     atom    1 type  2   force =    -0.00000000    0.00000000   -0.00000000
     atom    2 type  1   force =    -0.00000000    0.00000000    0.00000000

     Total force =     0.000000     Total SCF correction =     0.000000


     Computing stress (Cartesian axis) and pressure

          total   stress  (Ry/bohr**3)                   (kbar)     P=       -3.38
   0.00000323   0.00000000   0.00000000            0.48        0.00        0.00
  -0.00000000   0.00000323   0.00000000           -0.00        0.48        0.00
   0.00000000   0.00000000  -0.00007549            0.00        0.00      -11.10

     kinetic stress (kbar)   3342.46      0.00      0.00
                                0.00   3342.46      0.00
                                0.00      0.00   3643.59

     local   stress (kbar) -43878.89      0.00     -0.00
                                0.00 -43878.89      0.00
                               -0.00      0.00  44373.18

     nonloc. stress (kbar)   -557.02     -0.00     -0.00
                               -0.00   -557.02     -0.00
                               -0.00     -0.00   -537.86

     hartree stress (kbar)  20845.23      0.00      0.00
                                0.00  20845.23     -0.00
                                0.00     -0.00 -20274.91

     exc-cor stress (kbar)   -333.22     -0.00      0.00
                               -0.00   -333.22     -0.00
                                0.00     -0.00   -358.27

     corecor stress (kbar)   -372.05      0.00      0.00
                                0.00   -372.05     -0.00
                                0.00     -0.00   -365.04

     ewald   stress (kbar)  20953.97     -0.00     -0.00
                               -0.00  20953.97     -0.00
                               -0.00     -0.00 -26491.81

     hubbard stress (kbar)      0.00      0.00      0.00
                                0.00      0.00      0.00
                                0.00      0.00      0.00

     DFT-D   stress (kbar)      0.00      0.00      0.00
                                0.00      0.00      0.00
                                0.00      0.00      0.00

     XDM     stress (kbar)      0.00      0.00      0.00
                                0.00      0.00      0.00
                                0.00      0.00      0.00

     dft-nl  stress (kbar)      0.00      0.00      0.00
                                0.00      0.00      0.00
                                0.00      0.00      0.00

     TS-vdW  stress (kbar)      0.00      0.00      0.00
                                0.00      0.00      0.00
                                0.00      0.00      0.00


     Energy error            =      1.0E-03
     Gradient error          =      0.0E+00
     Cell gradient error     =      7.5E-05


     number of scf cycles    =   3
     number of bfgs steps    =   2

     enthalpy old            =     -26.8092259624 Ry
     enthalpy new            =     -26.8102643650 Ry

     CASE: enthalpy_new < enthalpy_old

     new trust radius        =       0.0118645916 bohr
     new conv_thr            =       0.0000000100 Ry

     new unit-cell volume =    533.10389 a.u.^3 (    78.99785 Ang^3 )
     density =      0.52146 g/cm^3

CELL_PARAMETERS (alat=  4.63500000)
   1.019363382  -0.000000000   0.000000000
  -0.509681691   0.882794584   0.000000000
  -0.000000000  -0.000000000   5.949410677

ATOMIC_POSITIONS (crystal)
B             0.0000000000        0.0000000000        0.0000000000
N             0.3333333330        0.6666666670        0.0000000000



     Writing output data file ./tmp/hBN.save/
     NEW-OLD atomic charge density approx. for the potential

     negative rho (up, down):  8.660E-08 0.000E+00
     extrapolated charge    7.99648, renormalised to    8.00000

     total cpu time spent up to now is      141.6 secs

     Self-consistent Calculation

     iteration #  1     ecut=    60.00 Ry     beta= 0.70
     Davidson diagonalization with overlap
     ethr =  1.00E-06,  avg # of iterations =  4.4

     Threshold (ethr) on eigenvalues was too large:
     Diagonalizing with lowered threshold

     Davidson diagonalization with overlap
     ethr =  3.28E-08,  avg # of iterations =  1.2

     total cpu time spent up to now is      147.6 secs

     total energy              =     -26.81035473 Ry
     estimated scf accuracy    <       0.00000281 Ry

     iteration #  2     ecut=    60.00 Ry     beta= 0.70
     Davidson diagonalization with overlap
     ethr =  3.51E-08,  avg # of iterations =  4.0

     total cpu time spent up to now is      151.4 secs

     total energy              =     -26.81036029 Ry
     estimated scf accuracy    <       0.00001023 Ry

     iteration #  3     ecut=    60.00 Ry     beta= 0.70
     Davidson diagonalization with overlap
     ethr =  3.51E-08,  avg # of iterations =  1.7

     total cpu time spent up to now is      154.2 secs

     total energy              =     -26.81035901 Ry
     estimated scf accuracy    <       0.00000295 Ry

     iteration #  4     ecut=    60.00 Ry     beta= 0.70
     Davidson diagonalization with overlap
     ethr =  3.51E-08,  avg # of iterations =  2.0

     total cpu time spent up to now is      158.2 secs

     total energy              =     -26.81035981 Ry
     estimated scf accuracy    <       0.00000013 Ry

     iteration #  5     ecut=    60.00 Ry     beta= 0.70
     Davidson diagonalization with overlap
     ethr =  1.60E-09,  avg # of iterations =  2.0

     total cpu time spent up to now is      162.0 secs

     total energy              =     -26.81035984 Ry
     estimated scf accuracy    <       0.00000003 Ry

     iteration #  6     ecut=    60.00 Ry     beta= 0.70
     Davidson diagonalization with overlap
     ethr =  3.52E-10,  avg # of iterations =  2.2

     total cpu time spent up to now is      165.8 secs

     End of self-consistent calculation

          k = 0.0000 0.0000 0.0000 (  4053 PWs)   bands (ev):

   -21.0870  -8.6688  -4.7431  -4.7431   1.2804   2.2904   2.7317   4.7113

     occupation numbers 
     1.0000   1.0000   1.0000   1.0000   0.0000   0.0000   0.0000   0.0000

          k = 0.0000 0.0708 0.0000 (  4058 PWs)   bands (ev):

   -21.0115  -8.5670  -5.0647  -4.8931   1.4105   2.4089   2.8585   4.8212

     occupation numbers 
     1.0000   1.0000   1.0000   1.0000   0.0000   0.0000   0.0000   0.0000

          k = 0.0000 0.1416 0.0000 (  4068 PWs)   bands (ev):

   -20.7872  -8.2643  -5.9336  -5.2919   1.7909   2.7612   3.2354   5.1386

     occupation numbers 
     1.0000   1.0000   1.0000   1.0000   0.0000   0.0000   0.0000   0.0000

          k = 0.0000 0.2124 0.0000 (  4078 PWs)   bands (ev):

   -20.4214  -7.7694  -7.1456  -5.8229   2.4063   3.3305   3.8568   5.5867

     occupation numbers 
     1.0000   1.0000   1.0000   1.0000   0.0000   0.0000   0.0000   0.0000

          k = 0.0000 0.2832 0.0000 (  4058 PWs)   bands (ev):

   -19.9297  -8.5061  -7.0991  -6.3738   3.2454   4.0202   4.7164   5.7269

     occupation numbers 
     1.0000   1.0000   1.0000   1.0000   0.0000   0.0000   0.0000   0.0000

          k = 0.0000 0.3540 0.0000 (  4068 PWs)   bands (ev):

   -19.3434  -9.8634  -6.8649  -6.2897   4.0165   4.2877   5.7884   5.7963

     occupation numbers 
     1.0000   1.0000   1.0000   1.0000   0.0000   0.0000   0.0000   0.0000

          k = 0.0000 0.4248 0.0000 (  4080 PWs)   bands (ev):

   -18.7253 -11.0756  -7.2450  -5.4155   2.9270   5.4461   6.8990   6.9291

     occupation numbers 
     1.0000   1.0000   1.0000   1.0000   0.0000   0.0000   0.0000   0.0000

          k = 0.0000 0.4956 0.0000 (  4060 PWs)   bands (ev):

   -18.2034 -11.9701  -7.4828  -4.6439   1.8862   6.2894   7.8190   8.3872

     occupation numbers 
     1.0000   1.0000   1.0000   1.0000   0.0000   0.0000   0.0000   0.0000

          k =-0.0000-0.5664-0.0000 (  4104 PWs)   bands (ev):

   -17.9865 -12.3149  -7.5648  -4.3084   1.4459   6.4760   9.1093   9.5447

     occupation numbers 
     1.0000   1.0000   1.0000   1.0000   0.0000   0.0000   0.0000   0.0000

          k = 0.0613 0.1062 0.0000 (  4077 PWs)   bands (ev):

   -20.8617  -8.3649  -5.6364  -5.1922   1.6659   2.6444   3.1104   5.0353

     occupation numbers 
     1.0000   1.0000   1.0000   1.0000   0.0000   0.0000   0.0000   0.0000

          k = 0.0613 0.1770 0.0000 (  4069 PWs)   bands (ev):

   -20.5663  -7.9658  -6.6272  -5.7052   2.1647   3.1066   3.6103   5.4268

     occupation numbers 
     1.0000   1.0000   1.0000   1.0000   0.0000   0.0000   0.0000   0.0000

          k = 0.0613 0.2478 0.0000 (  4058 PWs)   bands (ev):

   -20.1366  -7.8721  -7.3822  -6.2879   2.8953   3.7541   4.3531   5.7748

     occupation numbers 
     1.0000   1.0000   1.0000   1.0000   0.0000   0.0000   0.0000   0.0000

          k = 0.0613 0.3186 0.0000 (  4075 PWs)   bands (ev):

   -19.5952  -9.2064  -6.8365  -6.6394   3.8453   4.2390   5.3312   5.6292

     occupation numbers 
     1.0000   1.0000   1.0000   1.0000   0.0000   0.0000   0.0000   0.0000

          k = 0.0613 0.3894 0.0000 (  4052 PWs)   bands (ev):

   -18.9853 -10.4811  -7.2873  -5.7876   3.4925   4.9826   6.3495   6.5100

     occupation numbers 
     1.0000   1.0000   1.0000   1.0000   0.0000   0.0000   0.0000   0.0000

          k = 0.0613 0.4602 0.0000 (  4066 PWs)   bands (ev):

   -18.3986 -11.5425  -7.6047  -4.9394   2.3591   6.1443   7.5368   7.6906

     occupation numbers 
     1.0000   1.0000   1.0000   1.0000   0.0000   0.0000   0.0000   0.0000

          k = 0.0613 0.5310 0.0000 (  4077 PWs)   bands (ev):

   -18.0051 -12.1820  -7.7677  -4.3415   1.5729   6.7361   8.6025   9.2595

     occupation numbers 
     1.0000   1.0000   1.0000   1.0000   0.0000   0.0000   0.0000   0.0000

          k = 0.1226 0.2124 0.0000 (  4063 PWs)   bands (ev):

   -20.2066  -7.5648  -7.4777  -6.3582   2.7810   3.6545   4.2331   5.7596

     occupation numbers 
     1.0000   1.0000   1.0000   1.0000   0.0000   0.0000   0.0000   0.0000

          k = 0.1226 0.2832 0.0000 (  4078 PWs)   bands (ev):

   -19.7246  -8.6849  -7.0377  -6.8186   3.6295   4.2306   5.0992   5.6897

     occupation numbers 
     1.0000   1.0000   1.0000   1.0000   0.0000   0.0000   0.0000   0.0000

          k = 0.1226 0.3540 0.0000 (  4057 PWs)   bands (ev):

   -19.1514  -9.8766  -7.6123  -6.0236   3.9088   4.6964   6.0543   6.2004

     occupation numbers 
     1.0000   1.0000   1.0000   1.0000   0.0000   0.0000   0.0000   0.0000

          k = 0.1226 0.4248 0.0000 (  4069 PWs)   bands (ev):

   -18.5513 -10.9841  -8.0378  -5.1686   2.8549   5.9416   7.2187   7.4938

     occupation numbers 
     1.0000   1.0000   1.0000   1.0000   0.0000   0.0000   0.0000   0.0000

          k = 0.1226 0.4956 0.0000 (  4064 PWs)   bands (ev):

   -18.0492 -11.8145  -8.2977  -4.4190   1.8917   7.1531   8.5018   8.6639

     occupation numbers 
     1.0000   1.0000   1.0000   1.0000   0.0000   0.0000   0.0000   0.0000

          k = 0.1226 0.5664 0.0000 (  4072 PWs)   bands (ev):

   -17.8417 -12.1354  -8.3850  -4.0934   1.4835   7.6065   9.4322   9.8686

     occupation numbers 
     1.0000   1.0000   1.0000   1.0000   0.0000   0.0000   0.0000   0.0000

          k = 0.1839 0.3186 0.0000 (  4066 PWs)   bands (ev):

   -19.2085  -9.5634  -7.8454  -6.1043   4.0586   4.5976   5.9717   6.0901

     occupation numbers 
     1.0000   1.0000   1.0000   1.0000   0.0000   0.0000   0.0000   0.0000

          k = 0.1839 0.3894 0.0000 (  4055 PWs)   bands (ev):

   -18.6344 -10.4855  -8.5063  -5.2920   3.1846   5.7815   6.9822   7.3165

     occupation numbers 
     1.0000   1.0000   1.0000   1.0000   0.0000   0.0000   0.0000   0.0000

          k = 0.1839 0.4602 0.0000 (  4044 PWs)   bands (ev):

   -18.0915 -11.3211  -8.9416  -4.4928   2.2334   7.1351   8.2740   8.7340

     occupation numbers 
     1.0000   1.0000   1.0000   1.0000   0.0000   0.0000   0.0000   0.0000

          k = 0.1839 0.5310 0.0000 (  4054 PWs)   bands (ev):

   -17.7356 -11.8446  -9.1543  -3.9373   1.5793   8.3968   9.4667   9.6589

     occupation numbers 
     1.0000   1.0000   1.0000   1.0000   0.0000   0.0000   0.0000   0.0000

          k = 0.2453 0.4248 0.0000 (  4056 PWs)   bands (ev):

   -18.1087 -11.0263  -9.2968  -4.5225   2.3839   7.0726   8.1354   8.6648

     occupation numbers 
     1.0000   1.0000   1.0000   1.0000   0.0000   0.0000   0.0000   0.0000

          k = 0.2453 0.4956 0.0000 (  4040 PWs)   bands (ev):

   -17.6867 -11.4555  -9.8092  -3.8690   1.7084   8.4933   9.0959  10.1588

     occupation numbers 
     1.0000   1.0000   1.0000   1.0000   0.0000   0.0000   0.0000   0.0000

          k = 0.2453 0.5664 0.0000 (  4052 PWs)   bands (ev):

   -17.5190 -11.6318  -9.9805  -3.5940   1.4254   9.3067   9.4856  10.4534

     occupation numbers 
     1.0000   1.0000   1.0000   1.0000   0.0000   0.0000   0.0000   0.0000

          k = 0.3066 0.5310 0.0000 (  4030 PWs)   bands (ev):

   -17.4416 -11.4012 -10.4279  -3.4693   1.3852   9.0990   9.7432  11.0116

     occupation numbers 
     1.0000   1.0000   1.0000   1.0000   0.0000   0.0000   0.0000   0.0000

     the Fermi energy is    -0.9573 ev

!    total energy              =     -26.81035985 Ry
     estimated scf accuracy    <          2.0E-09 Ry
     smearing contrib. (-TS)   =       0.00000000 Ry
     internal energy E=F+TS    =     -26.81035985 Ry

     The total energy is F=E-TS. E is the sum of the following terms:
     one-electron contribution =    -150.86402576 Ry
     hartree contribution      =      77.23830791 Ry
     xc contribution           =      -8.66880074 Ry
     ewald contribution        =      55.48415873 Ry

     convergence has been achieved in   6 iterations

     Forces acting on atoms (cartesian axes, Ry/au):

     atom    1 type  2   force =    -0.00000000   -0.00000000   -0.00000000
     atom    2 type  1   force =     0.00000000    0.00000000    0.00000000
     The non-local contrib.  to forces
     atom    1 type  2   force =     0.00000000    0.00000000    0.00000000
     atom    2 type  1   force =     0.00000000    0.00000000    0.00000000
     The ionic contribution  to forces
     atom    1 type  2   force =    -0.00000001    0.00000000    0.00000000
     atom    2 type  1   force =     0.00000001   -0.00000000   -0.00000000
     The local contribution  to forces
     atom    1 type  2   force =     0.00000000   -0.00000000    0.00000000
     atom    2 type  1   force =     0.00000003   -0.00000002    0.00000000
     The core correction contribution to forces
     atom    1 type  2   force =    -0.00000000   -0.00000000    0.00000000
     atom    2 type  1   force =    -0.00000000    0.00000000    0.00000000
     The Hubbard contrib.    to forces
     atom    1 type  2   force =     0.00000000    0.00000000    0.00000000
     atom    2 type  1   force =     0.00000000    0.00000000    0.00000000
     The SCF correction term to forces
     atom    1 type  2   force =     0.00000000   -0.00000000   -0.00000000
     atom    2 type  1   force =    -0.00000000    0.00000000   -0.00000000

     Total force =     0.000000     Total SCF correction =     0.000000


     Computing stress (Cartesian axis) and pressure

          total   stress  (Ry/bohr**3)                   (kbar)     P=       -5.13
  -0.00001547  -0.00000000   0.00000000           -2.28       -0.00        0.00
  -0.00000000  -0.00001547   0.00000000           -0.00       -2.28        0.00
   0.00000000  -0.00000000  -0.00007378            0.00       -0.00      -10.85

     kinetic stress (kbar)   3340.37     -0.00     -0.00
                               -0.00   3340.37     -0.00
                               -0.00     -0.00   3643.38

     local   stress (kbar) -43667.44      0.00     -0.00
                                0.00 -43667.44      0.00
                               -0.00      0.00  44155.49

     nonloc. stress (kbar)   -556.32      0.00     -0.00
                                0.00   -556.32      0.00
                               -0.00      0.00   -537.47

     hartree stress (kbar)  20741.56      0.00      0.00
                                0.00  20741.56     -0.00
                                0.00     -0.00 -20169.93

     exc-cor stress (kbar)   -333.05     -0.00      0.00
                               -0.00   -333.05     -0.00
                                0.00     -0.00   -358.08

     corecor stress (kbar)   -372.13      0.00     -0.00
                                0.00   -372.13     -0.00
                                0.00     -0.00   -365.15

     ewald   stress (kbar)  20844.72     -0.00     -0.00
                               -0.00  20844.72     -0.00
                               -0.00     -0.00 -26379.10

     hubbard stress (kbar)      0.00      0.00      0.00
                                0.00      0.00      0.00
                                0.00      0.00      0.00

     DFT-D   stress (kbar)      0.00      0.00      0.00
                                0.00      0.00      0.00
                                0.00      0.00      0.00

     XDM     stress (kbar)      0.00      0.00      0.00
                                0.00      0.00      0.00
                                0.00      0.00      0.00

     dft-nl  stress (kbar)      0.00      0.00      0.00
                                0.00      0.00      0.00
                                0.00      0.00      0.00

     TS-vdW  stress (kbar)      0.00      0.00      0.00
                                0.00      0.00      0.00
                                0.00      0.00      0.00


     Energy error            =      9.5E-05
     Gradient error          =      2.7E-25
     Cell gradient error     =      7.4E-05


     number of scf cycles    =   4
     number of bfgs steps    =   3

     enthalpy old            =     -26.8102643650 Ry
     enthalpy new            =     -26.8103598493 Ry

     CASE: enthalpy_new < enthalpy_old

     new trust radius        =       0.0130817821 bohr
     new conv_thr            =       0.0000000100 Ry

     new unit-cell volume =    532.19512 a.u.^3 (    78.86318 Ang^3 )
     density =      0.52235 g/cm^3

CELL_PARAMETERS (alat=  4.63500000)
   1.019939880  -0.000000000   0.000000000
  -0.509969940   0.883293847   0.000000000
  -0.000000000  -0.000000000   5.932556601

ATOMIC_POSITIONS (crystal)
B            -0.0000000000       -0.0000000000       -0.0000000000
N             0.3333333330        0.6666666670        0.0000000000



     Writing output data file ./tmp/hBN.save/
     NEW-OLD atomic charge density approx. for the potential

     negative rho (up, down):  1.246E-07 0.000E+00
     extrapolated charge    7.98634, renormalised to    8.00000

     total cpu time spent up to now is      175.5 secs

[...]
        k(   30) = (   0.3125000   0.3125000   0.0000000), wk =   0.0468750

     Dense  grid:    18127 G-vectors     FFT dimensions: (  24,  24,  75)

     Dynamical RAM for                 wfc:       0.28 MB

     Dynamical RAM for     wfc (w. buffer):       8.56 MB

     Dynamical RAM for           str. fact:       0.55 MB

     Dynamical RAM for           local pot:       0.50 MB

     Dynamical RAM for          nlocal pot:       0.55 MB

     Dynamical RAM for                qrad:       1.42 MB

     Dynamical RAM for          rho,v,vnew:       1.82 MB

     Dynamical RAM for               rhoin:       0.61 MB

     Dynamical RAM for            rho*nmix:       4.43 MB

     Dynamical RAM for           G-vectors:       1.18 MB

     Dynamical RAM for          h,s,v(r/c):       0.01 MB

     Dynamical RAM for          <psi|beta>:       0.00 MB

     Dynamical RAM for                 psi:       0.55 MB

     Dynamical RAM for                hpsi:       0.55 MB

     Dynamical RAM for      wfcinit/wfcrot:       0.55 MB

     Estimated static dynamical RAM per process >      22.09 MB

     Estimated max dynamical RAM per process >      23.21 MB

     Initial potential from superposition of free atoms

     starting charge    7.99974, renormalised to    8.00000
     Starting wfcs are    8 randomized atomic wfcs

     total cpu time spent up to now is     1311.5 secs

     Self-consistent Calculation

     iteration #  1     ecut=    60.00 Ry     beta= 0.70
     Davidson diagonalization with overlap
     c_bands:  2 eigenvalues not converged
     c_bands:  1 eigenvalues not converged
     c_bands:  2 eigenvalues not converged
     c_bands:  1 eigenvalues not converged
     c_bands:  1 eigenvalues not converged
     c_bands:  1 eigenvalues not converged
     c_bands:  1 eigenvalues not converged
     c_bands:  1 eigenvalues not converged
     c_bands:  2 eigenvalues not converged
     c_bands:  2 eigenvalues not converged
     c_bands:  2 eigenvalues not converged
     c_bands:  2 eigenvalues not converged
     c_bands:  1 eigenvalues not converged
     c_bands:  1 eigenvalues not converged
     c_bands:  2 eigenvalues not converged
     c_bands:  1 eigenvalues not converged
     c_bands:  1 eigenvalues not converged
     c_bands:  1 eigenvalues not converged
     c_bands:  1 eigenvalues not converged
     c_bands:  1 eigenvalues not converged
     c_bands:  2 eigenvalues not converged
     c_bands:  1 eigenvalues not converged
     c_bands:  1 eigenvalues not converged
     c_bands:  1 eigenvalues not converged
     c_bands:  1 eigenvalues not converged
     c_bands:  1 eigenvalues not converged
     c_bands:  1 eigenvalues not converged
     ethr =  1.00E-06,  avg # of iterations = 19.7

     total cpu time spent up to now is     1318.2 secs

     total energy              =     -26.68556038 Ry
     estimated scf accuracy    <       0.39261184 Ry

     iteration #  2     ecut=    60.00 Ry     beta= 0.70
     Davidson diagonalization with overlap
     ethr =  4.91E-03,  avg # of iterations =  2.2

     total cpu time spent up to now is     1320.2 secs

     total energy              =     -26.77869550 Ry
     estimated scf accuracy    <       0.16522508 Ry

     iteration #  3     ecut=    60.00 Ry     beta= 0.70
     Davidson diagonalization with overlap
     ethr =  2.07E-03,  avg # of iterations =  1.7

     total cpu time spent up to now is     1321.9 secs

     total energy              =     -26.81014468 Ry
     estimated scf accuracy    <       0.00165283 Ry

     iteration #  4     ecut=    60.00 Ry     beta= 0.70
     Davidson diagonalization with overlap
     ethr =  2.07E-05,  avg # of iterations =  6.5

     total cpu time spent up to now is     1324.5 secs

     total energy              =     -26.81138365 Ry
     estimated scf accuracy    <       0.00066459 Ry

     iteration #  5     ecut=    60.00 Ry     beta= 0.70
     Davidson diagonalization with overlap
     ethr =  8.31E-06,  avg # of iterations =  2.0

     total cpu time spent up to now is     1326.1 secs

     total energy              =     -26.81152071 Ry
     estimated scf accuracy    <       0.00000915 Ry

     iteration #  6     ecut=    60.00 Ry     beta= 0.70
     Davidson diagonalization with overlap
     ethr =  1.14E-07,  avg # of iterations =  4.3

     total cpu time spent up to now is     1328.1 secs

     total energy              =     -26.81152259 Ry
     estimated scf accuracy    <       0.00000645 Ry

     iteration #  7     ecut=    60.00 Ry     beta= 0.70
     Davidson diagonalization with overlap
     ethr =  8.07E-08,  avg # of iterations =  1.8

     total cpu time spent up to now is     1329.6 secs

     total energy              =     -26.81152353 Ry
     estimated scf accuracy    <       0.00000007 Ry

     iteration #  8     ecut=    60.00 Ry     beta= 0.70
     Davidson diagonalization with overlap
     ethr =  8.81E-10,  avg # of iterations =  4.0

     total cpu time spent up to now is     1331.8 secs

     total energy              =     -26.81152361 Ry
     estimated scf accuracy    <       0.00000006 Ry

     iteration #  9     ecut=    60.00 Ry     beta= 0.70
     Davidson diagonalization with overlap
     ethr =  8.10E-10,  avg # of iterations =  2.0

     total cpu time spent up to now is     1333.3 secs

     End of self-consistent calculation

          k = 0.0000 0.0000 0.0000 (  2239 PWs)   bands (ev):

   -19.0093  -6.5941  -2.6981  -2.6981   3.0519   5.8414   7.4618  10.3486

     occupation numbers 
     1.0000   1.0000   1.0000   1.0000   0.0000   0.0000   0.0000   0.0000

          k = 0.0000 0.0707-0.0000 (  2240 PWs)   bands (ev):

   -18.9340  -6.4930  -3.0178  -2.8472   3.1815   5.9407   7.5965  10.3053

     occupation numbers 
     1.0000   1.0000   1.0000   1.0000   0.0000   0.0000   0.0000   0.0000

          k = 0.0000 0.1414-0.0000 (  2240 PWs)   bands (ev):

   -18.7103  -6.1917  -3.8843  -3.2424   3.5611   6.2244   7.9637  10.2149

     occupation numbers 
     1.0000   1.0000   1.0000   1.0000   0.0000   0.0000   0.0000   0.0000

          k = 0.0000 0.2121-0.0000 (  2262 PWs)   bands (ev):

   -18.3459  -5.6982  -5.0942  -3.7717   4.1761   6.6201   8.4633  10.0096

     occupation numbers 
     1.0000   1.0000   1.0000   1.0000   0.0000   0.0000   0.0000   0.0000

          k = 0.0000 0.2828-0.0000 (  2266 PWs)   bands (ev):

   -17.8561  -6.4511  -5.0315  -4.3205   5.0171   6.8071   8.8908   9.3235

     occupation numbers 
     1.0000   1.0000   1.0000   1.0000   0.0000   0.0000   0.0000   0.0000

          k = 0.0000 0.3535-0.0000 (  2270 PWs)   bands (ev):

   -17.2720  -7.8047  -4.8098  -4.2248   6.0686   6.1441   9.0604   9.5521

     occupation numbers 
     1.0000   1.0000   1.0000   1.0000   0.0000   0.0000   0.0000   0.0000

          k = 0.0000 0.4242-0.0000 (  2286 PWs)   bands (ev):

   -16.6566  -9.0142  -5.1884  -3.3539   4.9728   7.2660   9.1552  10.5101

     occupation numbers 
     1.0000   1.0000   1.0000   1.0000   0.0000   0.0000   0.0000   0.0000

          k = 0.0000 0.4949-0.0000 (  2284 PWs)   bands (ev):

   -16.1373  -9.9049  -5.4262  -2.5866   3.9287   8.2373   9.6611  11.7448

     occupation numbers 
     1.0000   1.0000   1.0000   1.0000   0.0000   0.0000   0.0000   0.0000

          k =-0.0000-0.5656 0.0000 (  2280 PWs)   bands (ev):

   -15.9211 -10.2471  -5.5073  -2.2512   3.4897   8.4719  10.8887  11.3131

     occupation numbers 
     1.0000   1.0000   1.0000   1.0000   0.0000   0.0000   0.0000   0.0000

          k = 0.0612 0.1060-0.0000 (  2235 PWs)   bands (ev):

   -18.7844  -6.2914  -3.5873  -3.1436   3.4362   6.1328   7.8528  10.2967

     occupation numbers 
     1.0000   1.0000   1.0000   1.0000   0.0000   0.0000   0.0000   0.0000

          k = 0.0612 0.1767-0.0000 (  2250 PWs)   bands (ev):

   -18.4902  -5.8941  -4.5767  -3.6553   3.9343   6.4786   8.3192  10.3134

     occupation numbers 
     1.0000   1.0000   1.0000   1.0000   0.0000   0.0000   0.0000   0.0000

          k = 0.0612 0.2474-0.0000 (  2258 PWs)   bands (ev):

   -18.0623  -5.8189  -5.3129  -4.2352   4.6649   6.8111   8.8753   9.5424

     occupation numbers 
     1.0000   1.0000   1.0000   1.0000   0.0000   0.0000   0.0000   0.0000

          k = 0.0612 0.3181-0.0000 (  2263 PWs)   bands (ev):

   -17.5227  -7.1494  -4.7815  -4.5728   5.6185   6.5660   9.2639   9.3365

     occupation numbers 
     1.0000   1.0000   1.0000   1.0000   0.0000   0.0000   0.0000   0.0000

          k = 0.0612 0.3888-0.0000 (  2273 PWs)   bands (ev):

   -16.9155  -8.4212  -5.2313  -3.7249   5.5502   6.7705   9.3932  10.0330

     occupation numbers 
     1.0000   1.0000   1.0000   1.0000   0.0000   0.0000   0.0000   0.0000

          k = 0.0612 0.4595-0.0000 (  2282 PWs)   bands (ev):

   -16.3313  -9.4789  -5.5477  -2.8802   4.4011   7.9995   9.5557  11.1524

     occupation numbers 
     1.0000   1.0000   1.0000   1.0000   0.0000   0.0000   0.0000   0.0000

          k = 0.0612 0.5302-0.0000 (  2275 PWs)   bands (ev):

   -15.9397 -10.1146  -5.7104  -2.2849   3.6158   8.7161  10.3973  12.0992

     occupation numbers 
     1.0000   1.0000   1.0000   1.0000   0.0000   0.0000   0.0000   0.0000

          k = 0.1225 0.2121-0.0000 (  2258 PWs)   bands (ev):

   -18.1319  -5.5125  -5.4080  -4.3054   4.5497   6.7867   8.9096  10.6083

     occupation numbers 
     1.0000   1.0000   1.0000   1.0000   0.0000   0.0000   0.0000   0.0000

          k = 0.1225 0.2828-0.0000 (  2261 PWs)   bands (ev):

   -17.6515  -6.6295  -4.9828  -4.7508   5.3986   6.7586   9.3115   9.6084

     occupation numbers 
     1.0000   1.0000   1.0000   1.0000   0.0000   0.0000   0.0000   0.0000

          k = 0.1225 0.3535-0.0000 (  2255 PWs)   bands (ev):

   -17.0807  -7.8177  -5.5558  -3.9590   5.9942   6.4695   9.7620  10.0982

     occupation numbers 
     1.0000   1.0000   1.0000   1.0000   0.0000   0.0000   0.0000   0.0000

          k = 0.1225 0.4242-0.0000 (  2269 PWs)   bands (ev):

   -16.4832  -8.9219  -5.9801  -3.1072   4.8973   7.7322  10.2583  10.7089

     occupation numbers 
     1.0000   1.0000   1.0000   1.0000   0.0000   0.0000   0.0000   0.0000

          k = 0.1225 0.4949-0.0000 (  2266 PWs)   bands (ev):

   -15.9835  -9.7486  -6.2391  -2.3612   3.9330   9.0257  10.4553  11.7832

     occupation numbers 
     1.0000   1.0000   1.0000   1.0000   0.0000   0.0000   0.0000   0.0000

          k = 0.1225 0.5656-0.0000 (  2250 PWs)   bands (ev):

   -15.7770 -10.0671  -6.3258  -2.0369   3.5264   9.5851  11.2198  11.8001

     occupation numbers 
     1.0000   1.0000   1.0000   1.0000   0.0000   0.0000   0.0000   0.0000

          k = 0.1837 0.3181-0.0000 (  2264 PWs)   bands (ev):

   -17.1375  -7.5055  -5.7889  -4.0389   6.1617   6.3671   9.6793  10.5361

     occupation numbers 
     1.0000   1.0000   1.0000   1.0000   0.0000   0.0000   0.0000   0.0000

          k = 0.1837 0.3888-0.0000 (  2261 PWs)   bands (ev):

   -16.5659  -8.4246  -6.4479  -3.2299   5.2280   7.5557  10.4696  11.2585

     occupation numbers 
     1.0000   1.0000   1.0000   1.0000   0.0000   0.0000   0.0000   0.0000

          k = 0.1837 0.4595-0.0000 (  2262 PWs)   bands (ev):

   -16.0257  -9.2569  -6.8826  -2.4342   4.2729   8.9285  11.3423  11.4581

     occupation numbers 
     1.0000   1.0000   1.0000   1.0000   0.0000   0.0000   0.0000   0.0000

          k = 0.1837 0.5302-0.0000 (  2256 PWs)   bands (ev):

   -15.6717  -9.7769  -7.0946  -1.8814   3.6202  10.2819  11.5554  11.8811

     occupation numbers 
     1.0000   1.0000   1.0000   1.0000   0.0000   0.0000   0.0000   0.0000

          k = 0.2449 0.4242-0.0000 (  2272 PWs)   bands (ev):

   -16.0428  -8.9622  -7.2380  -2.4633   4.4222   8.8538  11.1678  12.3182

     occupation numbers 
     1.0000   1.0000   1.0000   1.0000   0.0000   0.0000   0.0000   0.0000

          k = 0.2449 0.4949-0.0000 (  2256 PWs)   bands (ev):

   -15.6232  -9.3874  -7.7499  -1.8131   3.7479  10.3035  11.4436  12.5119

     occupation numbers 
     1.0000   1.0000   1.0000   1.0000   0.0000   0.0000   0.0000   0.0000

          k = 0.2449 0.5656-0.0000 (  2256 PWs)   bands (ev):

   -15.4565  -9.5618  -7.9209  -1.5391   3.4659  11.3992  11.4375  12.2561

     occupation numbers 
     1.0000   1.0000   1.0000   1.0000   0.0000   0.0000   0.0000   0.0000

          k = 0.3061 0.5302-0.0000 (  2268 PWs)   bands (ev):

   -15.3804  -9.3289  -8.3712  -1.4157   3.4251  11.2029  11.6293  12.8867

     occupation numbers 
     1.0000   1.0000   1.0000   1.0000   0.0000   0.0000   0.0000   0.0000

     the Fermi energy is     0.9937 ev

!    total energy              =     -26.81152362 Ry
     estimated scf accuracy    <          1.2E-10 Ry
     smearing contrib. (-TS)   =       0.00000000 Ry
     internal energy E=F+TS    =     -26.81152362 Ry

     The total energy is F=E-TS. E is the sum of the following terms:
     one-electron contribution =     -63.77536789 Ry
     hartree contribution      =      34.29678004 Ry
     xc contribution           =      -8.66384842 Ry
     ewald contribution        =      11.33091266 Ry

     convergence has been achieved in   9 iterations

     Forces acting on atoms (cartesian axes, Ry/au):

     atom    1 type  2   force =     0.00000000    0.00000000    0.00000000
     atom    2 type  1   force =     0.00000000    0.00000000    0.00000000
     The non-local contrib.  to forces
     atom    1 type  2   force =     0.00000000    0.00000000   -0.00000000
     atom    2 type  1   force =    -0.00000000    0.00000000   -0.00000000
     The ionic contribution  to forces
     atom    1 type  2   force =    -0.00000001    0.00000000    0.00000000
     atom    2 type  1   force =     0.00000001   -0.00000000   -0.00000000
     The local contribution  to forces
     atom    1 type  2   force =    -0.00000000   -0.00000000   -0.00000000
     atom    2 type  1   force =     0.00000003   -0.00000002   -0.00000000
     The core correction contribution to forces
     atom    1 type  2   force =    -0.00000000    0.00000000   -0.00000000
     atom    2 type  1   force =    -0.00000000    0.00000000   -0.00000000
     The Hubbard contrib.    to forces
     atom    1 type  2   force =     0.00000000    0.00000000    0.00000000
     atom    2 type  1   force =     0.00000000    0.00000000    0.00000000
     The SCF correction term to forces
     atom    1 type  2   force =    -0.00000000    0.00000000    0.00000000
     atom    2 type  1   force =     0.00000000   -0.00000000    0.00000000

     Total force =     0.000000     Total SCF correction =     0.000000


     Computing stress (Cartesian axis) and pressure

          total   stress  (Ry/bohr**3)                   (kbar)     P=      -10.57
  -0.00004275  -0.00000000   0.00000000           -6.29       -0.00        0.00
  -0.00000000  -0.00004275   0.00000000           -0.00       -6.29        0.00
  -0.00000000  -0.00000000  -0.00013003           -0.00       -0.00      -19.13

     kinetic stress (kbar)   6173.42      0.00     -0.00
                                0.00   6173.42     -0.00
                               -0.00     -0.00   6736.88

     local   stress (kbar) -36306.73      0.00     -0.00
                                0.00 -36306.73      0.00
                               -0.00      0.00  37195.18

     nonloc. stress (kbar)  -1025.48     -0.00     -0.00
                               -0.00  -1025.48     -0.00
                               -0.00     -0.00   -993.95

     hartree stress (kbar)  16447.66     -0.00      0.00
                               -0.00  16447.66     -0.00
                                0.00     -0.00 -15387.33

     exc-cor stress (kbar)   -615.34     -0.00     -0.00
                               -0.00   -615.34     -0.00
                               -0.00     -0.00   -661.56

     corecor stress (kbar)   -688.35      0.00     -0.00
                                0.00   -688.35      0.00
                               -0.00      0.00   -675.55

     ewald   stress (kbar)  16008.53     -0.00     -0.00
                               -0.00  16008.53     -0.00
                               -0.00     -0.00 -26232.80

     hubbard stress (kbar)      0.00      0.00      0.00
                                0.00      0.00      0.00
                                0.00      0.00      0.00

     DFT-D   stress (kbar)      0.00      0.00      0.00
                                0.00      0.00      0.00
                                0.00      0.00      0.00

     XDM     stress (kbar)      0.00      0.00      0.00
                                0.00      0.00      0.00
                                0.00      0.00      0.00

     dft-nl  stress (kbar)      0.00      0.00      0.00
                                0.00      0.00      0.00
                                0.00      0.00      0.00

     TS-vdW  stress (kbar)      0.00      0.00      0.00
                                0.00      0.00      0.00
                                0.00      0.00      0.00



     Writing output data file ./tmp/hBN.save/

     init_run     :      6.09s CPU      4.70s WALL (       2 calls)
     electrons    :   2303.94s CPU   1100.40s WALL (      20 calls)
     update_pot   :     76.97s CPU     75.38s WALL (      18 calls)
     forces       :     60.09s CPU     52.20s WALL (      20 calls)
     stress       :    126.86s CPU    103.66s WALL (      20 calls)

     Called by init_run:
     wfcinit      :      2.14s CPU      0.86s WALL (       2 calls)
     wfcinit:atom :      0.13s CPU      0.03s WALL (      60 calls)
     wfcinit:wfcr :      1.67s CPU      0.70s WALL (      60 calls)
     potinit      :      1.12s CPU      1.12s WALL (       2 calls)
     hinit0       :      2.74s CPU      2.67s WALL (       2 calls)

     Called by electrons:
     c_bands      :   2156.80s CPU    989.12s WALL (     251 calls)
     sum_band     :    132.73s CPU     98.02s WALL (     251 calls)
     v_of_rho     :     12.31s CPU     11.36s WALL (     270 calls)
     v_h          :      0.64s CPU      0.59s WALL (     270 calls)
     v_xc         :     15.09s CPU     12.73s WALL (     310 calls)
     mix_rho      :      2.32s CPU      2.12s WALL (     251 calls)

     Called by c_bands:
     init_us_2    :     59.69s CPU     27.20s WALL (   16320 calls)
     cegterg      :   2037.65s CPU    940.77s WALL (    7530 calls)

     Called by sum_band:
     sum_band:wei :      0.07s CPU      0.02s WALL (     251 calls)
     sum_band:loo :    131.04s CPU     96.42s WALL (     251 calls)
     sum_band:buf :      1.51s CPU      1.17s WALL (    7530 calls)
     sum_band:ini :     15.09s CPU     11.02s WALL (    7530 calls)

     Called by *egterg:
     cdiaghg      :     22.97s CPU      7.26s WALL (   34741 calls)
     cegterg:over :     66.67s CPU     30.23s WALL (   27781 calls)
     cegterg:upda :     47.59s CPU     23.11s WALL (   27781 calls)
     cegterg:last :     52.22s CPU     22.91s WALL (   18879 calls)
     h_psi        :   1793.16s CPU    839.67s WALL (   35371 calls)
     g_psi        :     24.18s CPU      6.94s WALL (   27781 calls)

     Called by h_psi:
     h_psi:calbec :    134.37s CPU    104.52s WALL (   35371 calls)
     vloc_psi     :   1608.49s CPU    712.85s WALL (   35371 calls)
     add_vuspsi   :     38.65s CPU     18.22s WALL (   35371 calls)

     General routines
     calbec       :    143.74s CPU    111.33s WALL (   38371 calls)
     fft          :      6.42s CPU      5.35s WALL (    3199 calls)
     ffts         :      0.43s CPU      0.44s WALL (     251 calls)
     fftw         :   1433.92s CPU    662.59s WALL (  425014 calls)

     Parallel routines

     PWSCF        :  42m55.23s CPU  22m17.02s WALL


   This run was terminated on:  15:52:11  14Feb2024            

=------------------------------------------------------------------------------=
   JOB DONE.
=------------------------------------------------------------------------------=
