
     Program BANDS v.7.2 starts on 17Apr2024 at 15:37: 4 

     This program is part of the open-source Quantum ESPRESSO suite
     for quantum simulation of materials; please cite
         "P. Giannozzi et al., J. Phys.:Condens. Matter 21 395502 (2009);
         "P. Giannozzi et al., J. Phys.:Condens. Matter 29 465901 (2017);
         "P. Giannozzi et al., J. Chem. Phys. 152 154105 (2020);
          URL http://www.quantum-espresso.org", 
     in publications or presentations arising from this work. More details at
     http://www.quantum-espresso.org/quote

     Parallel version (MPI & OpenMP), running on       8 processor cores
     Number of MPI processes:                 8
     Threads/MPI process:                     1

     MPI processes distributed on     1 nodes
     R & G space division:  proc/nbgrp/npool/nimage =       8
     0 MiB available memory on the printing compute node when the environment starts


     Reading xml data from directory:

     ./tmp/BN2L_AA1_PBE_vdW.save/

     IMPORTANT: XC functional enforced from input :
     Exchange-correlation= VDW-DF2-B86R
                           (   1   4  26   0   2   0   0)
     Any further DFT definition will be discarded
     Please, verify this is what you really want


     Parallelization info
     --------------------
     sticks:   dense  smooth     PW     G-vecs:    dense   smooth      PW
     Min          45      45     14                 5791     5791    1010
     Max          46      46     16                 5824     5824    1027
     Sum         367     367    121                46525    46525    8181

     Using Slab Decomposition



     %%%%%%%%%%%%%%%%%%%%%%%%%%%%%%%%%%%%%%%%%%%%%%%%%%%%%%%%%%%%%%%%%%%%%%%%
     %                                                                      %
     % You are using vdW-DF, which was implemented by the Thonhauser group. %
     % Please cite the following two papers that made this development      %
     % possible and the two reviews that describe the various versions:     %
     %                                                                      %
     %   T. Thonhauser et al., PRL 115, 136402 (2015).                      %
     %   T. Thonhauser et al., PRB 76, 125112 (2007).                       %
     %   K. Berland et al., Rep. Prog. Phys. 78, 066501 (2015).             %
     %   D.C. Langreth et al., J. Phys.: Condens. Matter 21, 084203 (2009). %
     %                                                                      %
     % If you are calculating stress with vdW-DF, please also cite:         %
     %                                                                      %
     %   R. Sabatini et al., J. Phys.: Condens. Matter 24, 424209 (2012).   %
     %                                                                      %
     %%%%%%%%%%%%%%%%%%%%%%%%%%%%%%%%%%%%%%%%%%%%%%%%%%%%%%%%%%%%%%%%%%%%%%%%

     %%%%%%%%%%%%%%%%%%%%%%%%%%%%%%%%%%%%%%%%%%%%%%%%%%%%%%%%%%%%%%%%%%%%%%%%
     %                                                                      %
     %  vdW-DF NEWS:                                                        %
     %                                                                      %
     %  * vdW-DF3 is now available. DOI: 10.1021/acs.jctc.0c00471           %
     %    use with input_dft = 'vdW-DF3-opt1' or 'vdW-DF3-opt2'             %
     %                                                                      %
     %  * Unscreened and range-separated hybrid vdW-DF-cx functionals       %
     %    DOI: 10.1063/1.4986522 and 10.1088/1361-648X/ac2ad2               %
     %    use with input_dft = 'vdW-DF-cx0'    and 'vdW-DF-ahcx'            %
     %  * Unscreened and range-separated hybrid vdW-DF2-b86r functionals    %
     %    DOI: 10.1063/1.4986522 and DOI: 10.1103/PhysRevX.12.041003        %
     %    use with input_dft = 'vdW-DF2-br0' and 'vdW-DF2-ahbr'             %
     %                                                                      %
     %%%%%%%%%%%%%%%%%%%%%%%%%%%%%%%%%%%%%%%%%%%%%%%%%%%%%%%%%%%%%%%%%%%%%%%%


     Reading collected, re-writing distributed wavefunctions
     high-symmetry point:  0.0000 0.0000 0.0000   x coordinate   0.0000
     high-symmetry point: -0.3333 0.5774 0.0000   x coordinate   0.6667
     high-symmetry point:  0.0000 0.5774 0.0000   x coordinate   1.0000
     high-symmetry point:  0.0000 0.0000 0.0000   x coordinate   1.5773

     Plottable bands (eV) written to file Bande_BN2L_AA1_PBE_vdW.dat.gnu
     Bands written to file Bande_BN2L_AA1_PBE_vdW.dat

 **************************************************************************

                    xk=(   0.00000,   0.00000,   0.00000  )

     point group C_3v (3m)  
     there are  3 classes
     the character table:

       E     2C3   3s_v 
A_1    1.00  1.00  1.00
A_2    1.00  1.00 -1.00
E      2.00 -1.00  0.00

     the symmetry operations in each class and the name of the first element:

     E        1
                                                                 
     2C3      2    3
                                                                 
     3s_v     4    5    6
                                                                 

     Band symmetry, C_3v (3m)   point group:

     e(  1 -  1) =    -20.15873  eV     1   --> A_1  L_1       
     e(  2 -  2) =    -19.99810  eV     1   --> A_1  L_1       
     e(  3 -  3) =     -8.25768  eV     1   --> A_1  L_1       
     e(  4 -  4) =     -7.14222  eV     1   --> A_1  L_1       
     e(  5 -  6) =     -3.88640  eV     2   --> E    L_3       
     e(  7 -  8) =     -3.86585  eV     2   --> E    L_3       
     e(  9 -  9) =      2.02289  eV     1   --> A_1  L_1       
     e( 10 - 10) =      2.54586  eV     1   --> A_1  L_1       
     e( 11 - 11) =      3.58465  eV     1   --> A_1  L_1       
     e( 12 - 12) =      4.65462  eV     1   --> A_1  L_1       
     e( 13 - 13) =      4.81071  eV     1   --> A_1  L_1       
     e( 14 - 14) =      6.54622  eV     1   --> A_1  L_1       
     e( 15 - 15) =      7.24294  eV     1   --> A_1  L_1       
     e( 16 - 16) =      9.09447  eV     1   --> A_1  L_1       
     e( 17 - 18) =      9.10221  eV     2   --> E    L_3       
     e( 19 - 20) =      9.17242  eV     2   --> E    L_3       

 **************************************************************************

 **************************************************************************

                    xk=(  -0.01587,   0.02749,   0.00000  )

     point group C_1 (1)    
     there are  1 classes
     the character table:

       E    
A      1.00

     the symmetry operations in each class and the name of the first element:

     E        1
                                                                 

     Band symmetry, C_1 (1)     point group:

     e(  1 -  1) =    -20.14426  eV     1   --> A              
     e(  2 -  2) =    -19.98381  eV     1   --> A              
     e(  3 -  3) =     -8.23771  eV     1   --> A              
     e(  4 -  4) =     -7.12314  eV     1   --> A              
     e(  5 -  5) =     -3.94914  eV     1   --> A              
     e(  6 -  6) =     -3.92993  eV     1   --> A              
     e(  7 -  7) =     -3.91603  eV     1   --> A              
     e(  8 -  8) =     -3.89547  eV     1   --> A              
     e(  9 -  9) =      2.04849  eV     1   --> A              
     e( 10 - 10) =      2.56914  eV     1   --> A              
     e( 11 - 11) =      3.60894  eV     1   --> A              
     e( 12 - 12) =      4.67821  eV     1   --> A              
     e( 13 - 13) =      4.83378  eV     1   --> A              
     e( 14 - 14) =      6.56273  eV     1   --> A              
     e( 15 - 15) =      7.26586  eV     1   --> A              
     e( 16 - 16) =      9.07385  eV     1   --> A              
     e( 17 - 17) =      9.11673  eV     1   --> A              
     e( 18 - 18) =      9.15559  eV     1   --> A              
     e( 19 - 19) =      9.16921  eV     1   --> A              
     e( 20 - 20) =      9.23784  eV     1   --> A              

 **************************************************************************

 **************************************************************************

                    xk=(  -0.03175,   0.05499,   0.00000  )

     Band symmetry, C_1 (1)     point group:

     e(  1 -  1) =    -20.10065  eV     1   --> A              
     e(  2 -  2) =    -19.94095  eV     1   --> A              
     e(  3 -  3) =     -8.17823  eV     1   --> A              
     e(  4 -  4) =     -7.06684  eV     1   --> A              
     e(  5 -  5) =     -4.13002  eV     1   --> A              
     e(  6 -  6) =     -4.11354  eV     1   --> A              
     e(  7 -  7) =     -4.00293  eV     1   --> A              
     e(  8 -  8) =     -3.98268  eV     1   --> A              
     e(  9 -  9) =      2.12459  eV     1   --> A              
     e( 10 - 10) =      2.63875  eV     1   --> A              
     e( 11 - 11) =      3.68169  eV     1   --> A              
     e( 12 - 12) =      4.74882  eV     1   --> A              
     e( 13 - 13) =      4.90218  eV     1   --> A              
     e( 14 - 14) =      6.61108  eV     1   --> A              
     e( 15 - 15) =      7.33342  eV     1   --> A              
     e( 16 - 16) =      9.04287  eV     1   --> A              
     e( 17 - 17) =      9.12412  eV     1   --> A              
     e( 18 - 18) =      9.13142  eV     1   --> A              
     e( 19 - 19) =      9.34670  eV     1   --> A              
     e( 20 - 20) =      9.42736  eV     1   --> A              

 **************************************************************************

 **************************************************************************

                    xk=(  -0.04762,   0.08248,   0.00000  )

     Band symmetry, C_1 (1)     point group:

     e(  1 -  1) =    -20.02796  eV     1   --> A              
     e(  2 -  2) =    -19.86973  eV     1   --> A              
     e(  3 -  3) =     -8.07922  eV     1   --> A              
     e(  4 -  4) =     -6.97305  eV     1   --> A              
     e(  5 -  5) =     -4.41527  eV     1   --> A              
     e(  6 -  6) =     -4.40007  eV     1   --> A              
     e(  7 -  7) =     -4.14501  eV     1   --> A              
     e(  8 -  8) =     -4.12397  eV     1   --> A              
     e(  9 -  9) =      2.24941  eV     1   --> A              
     e( 10 - 10) =      2.75401  eV     1   --> A              
     e( 11 - 11) =      3.80248  eV     1   --> A              
     e( 12 - 12) =      4.86587  eV     1   --> A              
     e( 13 - 13) =      5.01301  eV     1   --> A              
     e( 14 - 14) =      6.68763  eV     1   --> A              
     e( 15 - 15) =      7.44159  eV     1   --> A              
     e( 16 - 16) =      9.01140  eV     1   --> A              
     e( 17 - 17) =      9.09620  eV     1   --> A              
     e( 18 - 18) =      9.14307  eV     1   --> A              
     e( 19 - 19) =      9.58477  eV     1   --> A              
     e( 20 - 20) =      9.72281  eV     1   --> A              

 **************************************************************************

 **************************************************************************

                    xk=(  -0.06349,   0.10997,   0.00000  )

     Band symmetry, C_1 (1)     point group:

     e(  1 -  1) =    -19.92694  eV     1   --> A              
     e(  2 -  2) =    -19.77063  eV     1   --> A              
     e(  3 -  3) =     -7.94121  eV     1   --> A              
     e(  4 -  4) =     -6.84266  eV     1   --> A              
     e(  5 -  5) =     -4.78610  eV     1   --> A              
     e(  6 -  6) =     -4.77302  eV     1   --> A              
     e(  7 -  7) =     -4.33875  eV     1   --> A              
     e(  8 -  8) =     -4.31699  eV     1   --> A              
     e(  9 -  9) =      2.42093  eV     1   --> A              
     e( 10 - 10) =      2.91387  eV     1   --> A              
     e( 11 - 11) =      3.97085  eV     1   --> A              
     e( 12 - 12) =      5.02846  eV     1   --> A              
     e( 13 - 13) =      5.16197  eV     1   --> A              
     e( 14 - 14) =      6.78576  eV     1   --> A              
     e( 15 - 15) =      7.58406  eV     1   --> A              
     e( 16 - 16) =      8.98954  eV     1   --> A              
     e( 17 - 17) =      9.08745  eV     1   --> A              
     e( 18 - 18) =      9.14902  eV     1   --> A              
     e( 19 - 19) =      9.67572  eV     1   --> A              
     e( 20 - 20) =      9.96352  eV     1   --> A              

 **************************************************************************

 **************************************************************************

                    xk=(  -0.07936,   0.13746,   0.00000  )

     Band symmetry, C_1 (1)     point group:

     e(  1 -  1) =    -19.79814  eV     1   --> A              
     e(  2 -  2) =    -19.64445  eV     1   --> A              
     e(  3 -  3) =     -7.76496  eV     1   --> A              
     e(  4 -  4) =     -6.67670  eV     1   --> A              
     e(  5 -  5) =     -5.22065  eV     1   --> A              
     e(  6 -  6) =     -5.20910  eV     1   --> A              
     e(  7 -  7) =     -4.57928  eV     1   --> A              
     e(  8 -  8) =     -4.55613  eV     1   --> A              
     e(  9 -  9) =      2.63758  eV     1   --> A              
     e( 10 - 10) =      3.11709  eV     1   --> A              
     e( 11 - 11) =      4.18633  eV     1   --> A              
     e( 12 - 12) =      5.23534  eV     1   --> A              
     e( 13 - 13) =      5.34274  eV     1   --> A              
     e( 14 - 14) =      6.89441  eV     1   --> A              
     e( 15 - 15) =      7.74832  eV     1   --> A              
     e( 16 - 16) =      8.98257  eV     1   --> A              
     e( 17 - 17) =      9.09515  eV     1   --> A              
     e( 18 - 18) =      9.15144  eV     1   --> A              
     e( 19 - 19) =      9.42387  eV     1   --> A              
     e( 20 - 20) =     10.14470  eV     1   --> A              

 **************************************************************************

 **************************************************************************

                    xk=(  -0.09524,   0.16496,   0.00000  )

     Band symmetry, C_1 (1)     point group:

     e(  1 -  1) =    -19.64232  eV     1   --> A              
     e(  2 -  2) =    -19.49181  eV     1   --> A              
     e(  3 -  3) =     -7.55160  eV     1   --> A              
     e(  4 -  4) =     -6.47867  eV     1   --> A              
     e(  5 -  5) =     -5.69634  eV     1   --> A              
     e(  6 -  6) =     -5.68843  eV     1   --> A              
     e(  7 -  7) =     -4.85950  eV     1   --> A              
     e(  8 -  8) =     -4.83505  eV     1   --> A              
     e(  9 -  9) =      2.89848  eV     1   --> A              
     e( 10 - 10) =      3.36199  eV     1   --> A              
     e( 11 - 11) =      4.44851  eV     1   --> A              
     e( 12 - 12) =      5.48442  eV     1   --> A              
     e( 13 - 13) =      5.54477  eV     1   --> A              
     e( 14 - 14) =      6.99804  eV     1   --> A              
     e( 15 - 15) =      7.89710  eV     1   --> A              
     e( 16 - 16) =      8.98839  eV     1   --> A              
     e( 17 - 17) =      8.99281  eV     1   --> A              
     e( 18 - 18) =      9.17057  eV     1   --> A              
     e( 19 - 19) =      9.26610  eV     1   --> A              
     e( 20 - 20) =     10.35805  eV     1   --> A              

 **************************************************************************

 **************************************************************************

                    xk=(  -0.11111,   0.19245,   0.00000  )

     Band symmetry, C_1 (1)     point group:

     e(  1 -  1) =    -19.46076  eV     1   --> A              
     e(  2 -  2) =    -19.31393  eV     1   --> A              
     e(  3 -  3) =     -7.30353  eV     1   --> A              
     e(  4 -  4) =     -6.30672  eV     1   --> A              
     e(  5 -  5) =     -6.19299  eV     1   --> A              
     e(  6 -  6) =     -6.13946  eV     1   --> A              
     e(  7 -  7) =     -5.17344  eV     1   --> A              
     e(  8 -  8) =     -5.14727  eV     1   --> A              
     e(  9 -  9) =      3.20300  eV     1   --> A              
     e( 10 - 10) =      3.64574  eV     1   --> A              
     e( 11 - 11) =      4.75674  eV     1   --> A              
     e( 12 - 12) =      5.74588  eV     1   --> A              
     e( 13 - 13) =      5.77094  eV     1   --> A              
     e( 14 - 14) =      7.08129  eV     1   --> A              
     e( 15 - 15) =      7.90191  eV     1   --> A              
     e( 16 - 16) =      8.82713  eV     1   --> A              
     e( 17 - 17) =      9.01247  eV     1   --> A              
     e( 18 - 18) =      9.23409  eV     1   --> A              
     e( 19 - 19) =      9.34731  eV     1   --> A              
     e( 20 - 20) =     10.57906  eV     1   --> A              

 **************************************************************************

 **************************************************************************

                    xk=(  -0.12698,   0.21994,   0.00000  )

     Band symmetry, C_1 (1)     point group:

     e(  1 -  1) =    -19.25478  eV     1   --> A              
     e(  2 -  2) =    -19.11225  eV     1   --> A              
     e(  3 -  3) =     -7.03492  eV     1   --> A              
     e(  4 -  4) =     -6.73999  eV     1   --> A              
     e(  5 -  5) =     -6.69626  eV     1   --> A              
     e(  6 -  6) =     -5.95882  eV     1   --> A              
     e(  7 -  7) =     -5.51332  eV     1   --> A              
     e(  8 -  8) =     -5.48506  eV     1   --> A              
     e(  9 -  9) =      3.55079  eV     1   --> A              
     e( 10 - 10) =      3.96285  eV     1   --> A              
     e( 11 - 11) =      5.10925  eV     1   --> A              
     e( 12 - 12) =      5.89820  eV     1   --> A              
     e( 13 - 13) =      6.08050  eV     1   --> A              
     e( 14 - 14) =      7.15535  eV     1   --> A              
     e( 15 - 15) =      7.63752  eV     1   --> A              
     e( 16 - 16) =      8.92903  eV     1   --> A              
     e( 17 - 17) =      9.09018  eV     1   --> A              
     e( 18 - 18) =      9.35104  eV     1   --> A              
     e( 19 - 19) =      9.50139  eV     1   --> A              
     e( 20 - 20) =     10.80980  eV     1   --> A              

 **************************************************************************

 **************************************************************************

                    xk=(  -0.14286,   0.24744,   0.00000  )

     Band symmetry, C_1 (1)     point group:

     e(  1 -  1) =    -19.02655  eV     1   --> A              
     e(  2 -  2) =    -18.88913  eV     1   --> A              
     e(  3 -  3) =     -7.25590  eV     1   --> A              
     e(  4 -  4) =     -7.25496  eV     1   --> A              
     e(  5 -  5) =     -6.67956  eV     1   --> A              
     e(  6 -  6) =     -5.87241  eV     1   --> A              
     e(  7 -  7) =     -5.85080  eV     1   --> A              
     e(  8 -  8) =     -5.65933  eV     1   --> A              
     e(  9 -  9) =      3.94094  eV     1   --> A              
     e( 10 - 10) =      4.30015  eV     1   --> A              
     e( 11 - 11) =      5.49497  eV     1   --> A              
     e( 12 - 12) =      5.92831  eV     1   --> A              
     e( 13 - 13) =      6.35026  eV     1   --> A              
     e( 14 - 14) =      7.28559  eV     1   --> A              
     e( 15 - 15) =      7.31029  eV     1   --> A              
     e( 16 - 16) =      9.20452  eV     1   --> A              
     e( 17 - 17) =      9.25272  eV     1   --> A              
     e( 18 - 18) =      9.51573  eV     1   --> A              
     e( 19 - 19) =      9.70414  eV     1   --> A              
     e( 20 - 20) =     11.05198  eV     1   --> A              

 **************************************************************************

 **************************************************************************

                    xk=(  -0.15873,   0.27493,   0.00000  )

     Band symmetry, C_1 (1)     point group:

     e(  1 -  1) =    -18.77822  eV     1   --> A              
     e(  2 -  2) =    -18.64657  eV     1   --> A              
     e(  3 -  3) =     -7.76472  eV     1   --> A              
     e(  4 -  4) =     -7.75860  eV     1   --> A              
     e(  5 -  5) =     -6.35070  eV     1   --> A              
     e(  6 -  6) =     -6.23183  eV     1   --> A              
     e(  7 -  7) =     -6.21837  eV     1   --> A              
     e(  8 -  8) =     -5.34136  eV     1   --> A              
     e(  9 -  9) =      4.37187  eV     1   --> A              
     e( 10 - 10) =      4.62014  eV     1   --> A              
     e( 11 - 11) =      5.67842  eV     1   --> A              
     e( 12 - 12) =      6.02712  eV     1   --> A              
     e( 13 - 13) =      6.35567  eV     1   --> A              
     e( 14 - 14) =      7.29438  eV     1   --> A              
     e( 15 - 15) =      7.53409  eV     1   --> A              
     e( 16 - 16) =      9.50068  eV     1   --> A              
     e( 17 - 17) =      9.55488  eV     1   --> A              
     e( 18 - 18) =      9.72335  eV     1   --> A              
     e( 19 - 19) =      9.94826  eV     1   --> A              
     e( 20 - 20) =     11.30841  eV     1   --> A              

 **************************************************************************

 **************************************************************************

                    xk=(  -0.17460,   0.30242,   0.00000  )

     Band symmetry, C_1 (1)     point group:

     e(  1 -  1) =    -18.51297  eV     1   --> A              
     e(  2 -  2) =    -18.38802  eV     1   --> A              
     e(  3 -  3) =     -8.25501  eV     1   --> A              
     e(  4 -  4) =     -8.24973  eV     1   --> A              
     e(  5 -  5) =     -6.62855  eV     1   --> A              
     e(  6 -  6) =     -6.59591  eV     1   --> A              
     e(  7 -  7) =     -5.95794  eV     1   --> A              
     e(  8 -  8) =     -4.99633  eV     1   --> A              
     e(  9 -  9) =      4.80318  eV     1   --> A              
     e( 10 - 10) =      4.83204  eV     1   --> A              
     e( 11 - 11) =      5.41613  eV     1   --> A              
     e( 12 - 12) =      6.19828  eV     1   --> A              
     e( 13 - 13) =      6.48985  eV     1   --> A              
     e( 14 - 14) =      7.64797  eV     1   --> A              
     e( 15 - 15) =      7.88727  eV     1   --> A              
     e( 16 - 16) =      9.80925  eV     1   --> A              
     e( 17 - 17) =      9.94827  eV     1   --> A              
     e( 18 - 18) =      9.97120  eV     1   --> A              
     e( 19 - 19) =     10.22429  eV     1   --> A              
     e( 20 - 20) =     11.58429  eV     1   --> A              

 **************************************************************************

 **************************************************************************

                    xk=(  -0.19047,   0.32992,   0.00000  )

     Band symmetry, C_1 (1)     point group:

     e(  1 -  1) =    -18.23540  eV     1   --> A              
     e(  2 -  2) =    -18.11797  eV     1   --> A              
     e(  3 -  3) =     -8.71809  eV     1   --> A              
     e(  4 -  4) =     -8.71532  eV     1   --> A              
     e(  5 -  5) =     -7.00826  eV     1   --> A              
     e(  6 -  6) =     -6.97604  eV     1   --> A              
     e(  7 -  7) =     -5.55996  eV     1   --> A              
     e(  8 -  8) =     -4.63472  eV     1   --> A              
     e(  9 -  9) =      4.66177  eV     1   --> A              
     e( 10 - 10) =      4.95906  eV     1   --> A              
     e( 11 - 11) =      5.42007  eV     1   --> A              
     e( 12 - 12) =      6.32019  eV     1   --> A              
     e( 13 - 13) =      7.02595  eV     1   --> A              
     e( 14 - 14) =      8.13452  eV     1   --> A              
     e( 15 - 15) =      8.30787  eV     1   --> A              
     e( 16 - 16) =     10.13011  eV     1   --> A              
     e( 17 - 17) =     10.26862  eV     1   --> A              
     e( 18 - 18) =     10.37118  eV     1   --> A              
     e( 19 - 19) =     10.51523  eV     1   --> A              
     e( 20 - 20) =     11.88705  eV     1   --> A              

 **************************************************************************

 **************************************************************************

                    xk=(  -0.20635,   0.35741,   0.00000  )

     Band symmetry, C_1 (1)     point group:

     e(  1 -  1) =    -17.95041  eV     1   --> A              
     e(  2 -  2) =    -17.84172  eV     1   --> A              
     e(  3 -  3) =     -9.14604  eV     1   --> A              
     e(  4 -  4) =     -9.14511  eV     1   --> A              
     e(  5 -  5) =     -7.38510  eV     1   --> A              
     e(  6 -  6) =     -7.35310  eV     1   --> A              
     e(  7 -  7) =     -5.14273  eV     1   --> A              
     e(  8 -  8) =     -4.26273  eV     1   --> A              
     e(  9 -  9) =      4.27974  eV     1   --> A              
     e( 10 - 10) =      4.55820  eV     1   --> A              
     e( 11 - 11) =      5.95230  eV     1   --> A              
     e( 12 - 12) =      6.71751  eV     1   --> A              
     e( 13 - 13) =      7.61039  eV     1   --> A              
     e( 14 - 14) =      8.68604  eV     1   --> A              
     e( 15 - 15) =      8.76516  eV     1   --> A              
     e( 16 - 16) =     10.40588  eV     1   --> A              
     e( 17 - 17) =     10.61570  eV     1   --> A              
     e( 18 - 18) =     10.79340  eV     1   --> A              
     e( 19 - 19) =     10.82017  eV     1   --> A              
     e( 20 - 20) =     12.22672  eV     1   --> A              

 **************************************************************************

 **************************************************************************

                    xk=(  -0.22222,   0.38490,   0.00000  )

     Band symmetry, C_1 (1)     point group:

     e(  1 -  1) =    -17.66492  eV     1   --> A              
     e(  2 -  2) =    -17.56638  eV     1   --> A              
     e(  3 -  3) =     -9.53230  eV     1   --> A              
     e(  4 -  4) =     -9.52675  eV     1   --> A              
     e(  5 -  5) =     -7.75381  eV     1   --> A              
     e(  6 -  6) =     -7.72279  eV     1   --> A              
     e(  7 -  7) =     -4.71476  eV     1   --> A              
     e(  8 -  8) =     -3.89005  eV     1   --> A              
     e(  9 -  9) =      3.83105  eV     1   --> A              
     e( 10 - 10) =      4.12636  eV     1   --> A              
     e( 11 - 11) =      6.54501  eV     1   --> A              
     e( 12 - 12) =      7.24081  eV     1   --> A              
     e( 13 - 13) =      8.23735  eV     1   --> A              
     e( 14 - 14) =      9.22058  eV     1   --> A              
     e( 15 - 15) =      9.28428  eV     1   --> A              
     e( 16 - 16) =     10.60579  eV     1   --> A              
     e( 17 - 17) =     10.95753  eV     1   --> A              
     e( 18 - 18) =     11.04038  eV     1   --> A              
     e( 19 - 19) =     11.27890  eV     1   --> A              
     e( 20 - 20) =     12.39859  eV     1   --> A              

 **************************************************************************

 **************************************************************************

                    xk=(  -0.23809,   0.41239,   0.00000  )

     Band symmetry, C_1 (1)     point group:

     e(  1 -  1) =    -17.38758  eV     1   --> A              
     e(  2 -  2) =    -17.30063  eV     1   --> A              
     e(  3 -  3) =     -9.86448  eV     1   --> A              
     e(  4 -  4) =     -9.85220  eV     1   --> A              
     e(  5 -  5) =     -8.11095  eV     1   --> A              
     e(  6 -  6) =     -8.08098  eV     1   --> A              
     e(  7 -  7) =     -4.28561  eV     1   --> A              
     e(  8 -  8) =     -3.52889  eV     1   --> A              
     e(  9 -  9) =      3.39137  eV     1   --> A              
     e( 10 - 10) =      3.70503  eV     1   --> A              
     e( 11 - 11) =      7.17588  eV     1   --> A              
     e( 12 - 12) =      7.82742  eV     1   --> A              
     e( 13 - 13) =      8.89370  eV     1   --> A              
     e( 14 - 14) =      9.59344  eV     1   --> A              
     e( 15 - 15) =      9.91769  eV     1   --> A              
     e( 16 - 16) =     10.72038  eV     1   --> A              
     e( 17 - 17) =     11.22121  eV     1   --> A              
     e( 18 - 18) =     11.27745  eV     1   --> A              
     e( 19 - 19) =     11.74767  eV     1   --> A              
     e( 20 - 20) =     12.60056  eV     1   --> A              

 **************************************************************************

 **************************************************************************

                    xk=(  -0.25397,   0.43989,   0.00000  )

     Band symmetry, C_1 (1)     point group:

     e(  1 -  1) =    -17.12870  eV     1   --> A              
     e(  2 -  2) =    -17.05504  eV     1   --> A              
     e(  3 -  3) =    -10.13260  eV     1   --> A              
     e(  4 -  4) =    -10.11135  eV     1   --> A              
     e(  5 -  5) =     -8.45280  eV     1   --> A              
     e(  6 -  6) =     -8.42445  eV     1   --> A              
     e(  7 -  7) =     -3.86798  eV     1   --> A              
     e(  8 -  8) =     -3.19454  eV     1   --> A              
     e(  9 -  9) =      2.99474  eV     1   --> A              
     e( 10 - 10) =      3.31332  eV     1   --> A              
     e( 11 - 11) =      7.83758  eV     1   --> A              
     e( 12 - 12) =      8.44873  eV     1   --> A              
     e( 13 - 13) =      9.44693  eV     1   --> A              
     e( 14 - 14) =      9.84801  eV     1   --> A              
     e( 15 - 15) =     10.56744  eV     1   --> A              
     e( 16 - 16) =     10.90478  eV     1   --> A              
     e( 17 - 17) =     11.32115  eV     1   --> A              
     e( 18 - 18) =     11.61414  eV     1   --> A              
     e( 19 - 19) =     12.20052  eV     1   --> A              
     e( 20 - 20) =     12.99830  eV     1   --> A              

 **************************************************************************

 **************************************************************************

                    xk=(  -0.26984,   0.46738,   0.00000  )

     Band symmetry, C_1 (1)     point group:

     e(  1 -  1) =    -16.89978  eV     1   --> A              
     e(  2 -  2) =    -16.84079  eV     1   --> A              
     e(  3 -  3) =    -10.32576  eV     1   --> A              
     e(  4 -  4) =    -10.29381  eV     1   --> A              
     e(  5 -  5) =     -8.77525  eV     1   --> A              
     e(  6 -  6) =     -8.74967  eV     1   --> A              
     e(  7 -  7) =     -3.47717  eV     1   --> A              
     e(  8 -  8) =     -2.90675  eV     1   --> A              
     e(  9 -  9) =      2.66538  eV     1   --> A              
     e( 10 - 10) =      2.96746  eV     1   --> A              
     e( 11 - 11) =      8.52025  eV     1   --> A              
     e( 12 - 12) =      9.07854  eV     1   --> A              
     e( 13 - 13) =      9.42187  eV     1   --> A              
     e( 14 - 14) =     10.45790  eV     1   --> A              
     e( 15 - 15) =     11.14220  eV     1   --> A              
     e( 16 - 16) =     11.20517  eV     1   --> A              
     e( 17 - 17) =     11.38432  eV     1   --> A              
     e( 18 - 18) =     12.01146  eV     1   --> A              
     e( 19 - 19) =     12.58837  eV     1   --> A              
     e( 20 - 20) =     13.44847  eV     1   --> A              

 **************************************************************************

 **************************************************************************

                    xk=(  -0.28571,   0.49487,   0.00000  )

     Band symmetry, C_1 (1)     point group:

     e(  1 -  1) =    -16.71251  eV     1   --> A              
     e(  2 -  2) =    -16.66926  eV     1   --> A              
     e(  3 -  3) =    -10.43607  eV     1   --> A              
     e(  4 -  4) =    -10.39122  eV     1   --> A              
     e(  5 -  5) =     -9.07329  eV     1   --> A              
     e(  6 -  6) =     -9.05202  eV     1   --> A              
     e(  7 -  7) =     -3.13236  eV     1   --> A              
     e(  8 -  8) =     -2.68583  eV     1   --> A              
     e(  9 -  9) =      2.42100  eV     1   --> A              
     e( 10 - 10) =      2.68100  eV     1   --> A              
     e( 11 - 11) =      9.18937  eV     1   --> A              
     e( 12 - 12) =      9.21481  eV     1   --> A              
     e( 13 - 13) =      9.67603  eV     1   --> A              
     e( 14 - 14) =     11.14040  eV     1   --> A              
     e( 15 - 15) =     11.17136  eV     1   --> A              
     e( 16 - 16) =     11.54685  eV     1   --> A              
     e( 17 - 17) =     11.81375  eV     1   --> A              
     e( 18 - 18) =     12.47919  eV     1   --> A              
     e( 19 - 19) =     12.92967  eV     1   --> A              
     e( 20 - 20) =     13.78671  eV     1   --> A              

 **************************************************************************

 **************************************************************************

                    xk=(  -0.30158,   0.52237,   0.00000  )

     Band symmetry, C_1 (1)     point group:

     e(  1 -  1) =    -16.57596  eV     1   --> A              
     e(  2 -  2) =    -16.54820  eV     1   --> A              
     e(  3 -  3) =    -10.46370  eV     1   --> A              
     e(  4 -  4) =    -10.40311  eV     1   --> A              
     e(  5 -  5) =     -9.33729  eV     1   --> A              
     e(  6 -  6) =     -9.32287  eV     1   --> A              
     e(  7 -  7) =     -2.85230  eV     1   --> A              
     e(  8 -  8) =     -2.54939  eV     1   --> A              
     e(  9 -  9) =      2.27294  eV     1   --> A              
     e( 10 - 10) =      2.46442  eV     1   --> A              
     e( 11 - 11) =      8.98079  eV     1   --> A              
     e( 12 - 12) =      9.85815  eV     1   --> A              
     e( 13 - 13) =     10.16934  eV     1   --> A              
     e( 14 - 14) =     11.02877  eV     1   --> A              
     e( 15 - 15) =     11.48229  eV     1   --> A              
     e( 16 - 16) =     12.17574  eV     1   --> A              
     e( 17 - 17) =     12.19951  eV     1   --> A              
     e( 18 - 18) =     12.91944  eV     1   --> A              
     e( 19 - 19) =     13.37858  eV     1   --> A              
     e( 20 - 20) =     13.98986  eV     1   --> A              

 **************************************************************************

 **************************************************************************

                    xk=(  -0.31746,   0.54986,   0.00000  )

     Band symmetry, C_1 (1)     point group:

     e(  1 -  1) =    -16.49401  eV     1   --> A              
     e(  2 -  2) =    -16.48098  eV     1   --> A              
     e(  3 -  3) =    -10.42821  eV     1   --> A              
     e(  4 -  4) =    -10.35070  eV     1   --> A              
     e(  5 -  5) =     -9.54558  eV     1   --> A              
     e(  6 -  6) =     -9.54055  eV     1   --> A              
     e(  7 -  7) =     -2.65253  eV     1   --> A              
     e(  8 -  8) =     -2.50335  eV     1   --> A              
     e(  9 -  9) =      2.21894  eV     1   --> A              
     e( 10 - 10) =      2.32068  eV     1   --> A              
     e( 11 - 11) =      8.82914  eV     1   --> A              
     e( 12 - 12) =     10.39732  eV     1   --> A              
     e( 13 - 13) =     10.46643  eV     1   --> A              
     e( 14 - 14) =     10.86862  eV     1   --> A              
     e( 15 - 15) =     11.61702  eV     1   --> A              
     e( 16 - 16) =     12.50046  eV     1   --> A              
     e( 17 - 17) =     12.76572  eV     1   --> A              
     e( 18 - 18) =     13.25436  eV     1   --> A              
     e( 19 - 19) =     13.81470  eV     1   --> A              
     e( 20 - 20) =     14.07532  eV     1   --> A              

 **************************************************************************

 **************************************************************************

                    xk=(  -0.33333,   0.57735,   0.00000  )

     point group C_3 (3)    
     there are  3 classes
     the character table:

       E     C3    C3^2 
A      1.00  1.00  1.00
E      1.00 -0.50 -0.50
E*     1.00 -0.50 -0.50
     imaginary part
A      0.00  0.00  0.00
E      0.00  0.87 -0.87
E*     0.00 -0.87  0.87

     the symmetry operations in each class and the name of the first element:

     E        1
                                                                 
     C3       2
                                                                 
     C3^2     3
                                                                 

     Band symmetry, C_3 (3)     point group:

     e(  1 -  1) =    -16.46449  eV     1   --> A              
     e(  2 -  2) =    -16.46389  eV     1   --> E*             
     e(  3 -  3) =    -10.39287  eV     1   --> E              
     e(  4 -  4) =    -10.30509  eV     1   --> E              
     e(  5 -  5) =     -9.63787  eV     1   --> E*             
     e(  6 -  6) =     -9.63720  eV     1   --> A              
     e(  7 -  7) =     -2.53969  eV     1   -->   ?
     e(  8 -  8) =     -2.53911  eV     1   -->   ?
     e(  9 -  9) =      2.24136  eV     1   -->   ?
     e( 10 - 10) =      2.24213  eV     1   -->   ?
     e( 11 - 11) =      8.77393  eV     1   --> E              
     e( 12 - 12) =     10.54861  eV     1   --> E              
     e( 13 - 13) =     10.70633  eV     1   -->   ?
     e( 14 - 14) =     10.70698  eV     1   -->   ?
     e( 15 - 15) =     11.68132  eV     1   --> E              
     e( 16 - 16) =     12.72450  eV     1   -->   ?
     e( 17 - 17) =     12.72465  eV     1   -->   ?
     e( 18 - 18) =     13.83434  eV     1   -->   ?
     e( 19 - 19) =     13.83535  eV     1   -->   ?
     e( 20 - 20) =     14.05438  eV     1   --> E              

 **************************************************************************

 **************************************************************************

                    xk=(  -0.30303,   0.57735,   0.00000  )

     point group C_1 (1)    
     there are  1 classes
     the character table:

       E    
A      1.00

     the symmetry operations in each class and the name of the first element:

     E        1
                                                                 

     Band symmetry, C_1 (1)     point group:

     e(  1 -  1) =    -16.48756  eV     1   --> A              
     e(  2 -  2) =    -16.47728  eV     1   --> A              
     e(  3 -  3) =    -10.44296  eV     1   --> A              
     e(  4 -  4) =    -10.36492  eV     1   --> A              
     e(  5 -  5) =     -9.54406  eV     1   --> A              
     e(  6 -  6) =     -9.53092  eV     1   --> A              
     e(  7 -  7) =     -2.63280  eV     1   --> A              
     e(  8 -  8) =     -2.50576  eV     1   --> A              
     e(  9 -  9) =      2.20900  eV     1   --> A              
     e( 10 - 10) =      2.30967  eV     1   --> A              
     e( 11 - 11) =      8.82785  eV     1   --> A              
     e( 12 - 12) =     10.46819  eV     1   --> A              
     e( 13 - 13) =     10.56652  eV     1   --> A              
     e( 14 - 14) =     10.76047  eV     1   --> A              
     e( 15 - 15) =     11.57523  eV     1   --> A              
     e( 16 - 16) =     12.59325  eV     1   --> A              
     e( 17 - 17) =     12.75154  eV     1   --> A              
     e( 18 - 18) =     13.55899  eV     1   --> A              
     e( 19 - 19) =     13.57342  eV     1   --> A              
     e( 20 - 20) =     14.01271  eV     1   --> A              

 **************************************************************************

 **************************************************************************

                    xk=(  -0.27272,   0.57735,   0.00000  )

     Band symmetry, C_1 (1)     point group:

     e(  1 -  1) =    -16.53948  eV     1   --> A              
     e(  2 -  2) =    -16.52110  eV     1   --> A              
     e(  3 -  3) =    -10.56489  eV     1   --> A              
     e(  4 -  4) =    -10.50110  eV     1   --> A              
     e(  5 -  5) =     -9.29678  eV     1   --> A              
     e(  6 -  6) =     -9.26852  eV     1   --> A              
     e(  7 -  7) =     -2.76405  eV     1   --> A              
     e(  8 -  8) =     -2.53052  eV     1   --> A              
     e(  9 -  9) =      2.19624  eV     1   --> A              
     e( 10 - 10) =      2.39681  eV     1   --> A              
     e( 11 - 11) =      8.99076  eV     1   --> A              
     e( 12 - 12) =     10.21615  eV     1   --> A              
     e( 13 - 13) =     10.51222  eV     1   --> A              
     e( 14 - 14) =     10.66194  eV     1   --> A              
     e( 15 - 15) =     11.28018  eV     1   --> A              
     e( 16 - 16) =     12.40141  eV     1   --> A              
     e( 17 - 17) =     12.55902  eV     1   --> A              
     e( 18 - 18) =     13.19842  eV     1   --> A              
     e( 19 - 19) =     13.28729  eV     1   --> A              
     e( 20 - 20) =     13.60203  eV     1   --> A              

 **************************************************************************

 **************************************************************************

                    xk=(  -0.24242,   0.57735,   0.00000  )

     Band symmetry, C_1 (1)     point group:

     e(  1 -  1) =    -16.61016  eV     1   --> A              
     e(  2 -  2) =    -16.58563  eV     1   --> A              
     e(  3 -  3) =    -10.70880  eV     1   --> A              
     e(  4 -  4) =    -10.65443  eV     1   --> A              
     e(  5 -  5) =     -8.96262  eV     1   --> A              
     e(  6 -  6) =     -8.92571  eV     1   --> A              
     e(  7 -  7) =     -2.91474  eV     1   --> A              
     e(  8 -  8) =     -2.59620  eV     1   --> A              
     e(  9 -  9) =      2.18526  eV     1   --> A              
     e( 10 - 10) =      2.48305  eV     1   --> A              
     e( 11 - 11) =      9.25379  eV     1   --> A              
     e( 12 - 12) =      9.88565  eV     1   --> A              
     e( 13 - 13) =     10.45856  eV     1   --> A              
     e( 14 - 14) =     10.47248  eV     1   --> A              
     e( 15 - 15) =     10.90328  eV     1   --> A              
     e( 16 - 16) =     12.10350  eV     1   --> A              
     e( 17 - 17) =     12.20234  eV     1   --> A              
     e( 18 - 18) =     12.85068  eV     1   --> A              
     e( 19 - 19) =     12.99517  eV     1   --> A              
     e( 20 - 20) =     13.26944  eV     1   --> A              

 **************************************************************************

 **************************************************************************

                    xk=(  -0.21212,   0.57735,   0.00000  )

     Band symmetry, C_1 (1)     point group:

     e(  1 -  1) =    -16.69039  eV     1   --> A              
     e(  2 -  2) =    -16.66139  eV     1   --> A              
     e(  3 -  3) =    -10.84991  eV     1   --> A              
     e(  4 -  4) =    -10.80172  eV     1   --> A              
     e(  5 -  5) =     -8.58354  eV     1   --> A              
     e(  6 -  6) =     -8.54269  eV     1   --> A              
     e(  7 -  7) =     -3.07061  eV     1   --> A              
     e(  8 -  8) =     -2.68583  eV     1   --> A              
     e(  9 -  9) =      2.16579  eV     1   --> A              
     e( 10 - 10) =      2.55596  eV     1   --> A              
     e( 11 - 11) =      9.49552  eV     1   --> A              
     e( 12 - 12) =      9.59050  eV     1   --> A              
     e( 13 - 13) =     10.10767  eV     1   --> A              
     e( 14 - 14) =     10.43194  eV     1   --> A              
     e( 15 - 15) =     10.57096  eV     1   --> A              
     e( 16 - 16) =     11.77556  eV     1   --> A              
     e( 17 - 17) =     11.77921  eV     1   --> A              
     e( 18 - 18) =     12.54299  eV     1   --> A              
     e( 19 - 19) =     12.66028  eV     1   --> A              
     e( 20 - 20) =     13.03684  eV     1   --> A              

 **************************************************************************

 **************************************************************************

                    xk=(  -0.18182,   0.57735,   0.00000  )

     Band symmetry, C_1 (1)     point group:

     e(  1 -  1) =    -16.77240  eV     1   --> A              
     e(  2 -  2) =    -16.73995  eV     1   --> A              
     e(  3 -  3) =    -10.97810  eV     1   --> A              
     e(  4 -  4) =    -10.93404  eV     1   --> A              
     e(  5 -  5) =     -8.18639  eV     1   --> A              
     e(  6 -  6) =     -8.14430  eV     1   --> A              
     e(  7 -  7) =     -3.22000  eV     1   --> A              
     e(  8 -  8) =     -2.78452  eV     1   --> A              
     e(  9 -  9) =      2.13558  eV     1   --> A              
     e( 10 - 10) =      2.61070  eV     1   --> A              
     e( 11 - 11) =      9.05740  eV     1   --> A              
     e( 12 - 12) =      9.59781  eV     1   --> A              
     e( 13 - 13) =      9.95930  eV     1   --> A              
     e( 14 - 14) =     10.34181  eV     1   --> A              
     e( 15 - 15) =     10.38437  eV     1   --> A              
     e( 16 - 16) =     11.36033  eV     1   --> A              
     e( 17 - 17) =     11.51254  eV     1   --> A              
     e( 18 - 18) =     12.27827  eV     1   --> A              
     e( 19 - 19) =     12.35885  eV     1   --> A              
     e( 20 - 20) =     12.84094  eV     1   --> A              

 **************************************************************************

 **************************************************************************

                    xk=(  -0.15151,   0.57735,   0.00000  )

     Band symmetry, C_1 (1)     point group:

     e(  1 -  1) =    -16.85040  eV     1   --> A              
     e(  2 -  2) =    -16.81546  eV     1   --> A              
     e(  3 -  3) =    -11.08952  eV     1   --> A              
     e(  4 -  4) =    -11.04811  eV     1   --> A              
     e(  5 -  5) =     -7.79452  eV     1   --> A              
     e(  6 -  6) =     -7.75319  eV     1   --> A              
     e(  7 -  7) =     -3.35593  eV     1   --> A              
     e(  8 -  8) =     -2.88211  eV     1   --> A              
     e(  9 -  9) =      2.09725  eV     1   --> A              
     e( 10 - 10) =      2.64717  eV     1   --> A              
     e( 11 - 11) =      8.59298  eV     1   --> A              
     e( 12 - 12) =      9.04640  eV     1   --> A              
     e( 13 - 13) =     10.14879  eV     1   --> A              
     e( 14 - 14) =     10.27822  eV     1   --> A              
     e( 15 - 15) =     10.32940  eV     1   --> A              
     e( 16 - 16) =     11.00510  eV     1   --> A              
     e( 17 - 17) =     11.36805  eV     1   --> A              
     e( 18 - 18) =     12.05950  eV     1   --> A              
     e( 19 - 19) =     12.10842  eV     1   --> A              
     e( 20 - 20) =     12.67036  eV     1   --> A              

 **************************************************************************

 **************************************************************************

                    xk=(  -0.12121,   0.57735,   0.00000  )

     Band symmetry, C_1 (1)     point group:

     e(  1 -  1) =    -16.91986  eV     1   --> A              
     e(  2 -  2) =    -16.88316  eV     1   --> A              
     e(  3 -  3) =    -11.18223  eV     1   --> A              
     e(  4 -  4) =    -11.14289  eV     1   --> A              
     e(  5 -  5) =     -7.43016  eV     1   --> A              
     e(  6 -  6) =     -7.38991  eV     1   --> A              
     e(  7 -  7) =     -3.47374  eV     1   --> A              
     e(  8 -  8) =     -2.97105  eV     1   --> A              
     e(  9 -  9) =      2.05604  eV     1   --> A              
     e( 10 - 10) =      2.66841  eV     1   --> A              
     e( 11 - 11) =      8.13720  eV     1   --> A              
     e( 12 - 12) =      8.51583  eV     1   --> A              
     e( 13 - 13) =     10.01178  eV     1   --> A              
     e( 14 - 14) =     10.27158  eV     1   --> A              
     e( 15 - 15) =     10.41189  eV     1   --> A              
     e( 16 - 16) =     10.72534  eV     1   --> A              
     e( 17 - 17) =     11.39033  eV     1   --> A              
     e( 18 - 18) =     11.89604  eV     1   --> A              
     e( 19 - 19) =     11.90711  eV     1   --> A              
     e( 20 - 20) =     12.52776  eV     1   --> A              

 **************************************************************************

 **************************************************************************

                    xk=(  -0.09091,   0.57735,   0.00000  )

     Band symmetry, C_1 (1)     point group:

     e(  1 -  1) =    -16.97692  eV     1   --> A              
     e(  2 -  2) =    -16.93905  eV     1   --> A              
     e(  3 -  3) =    -11.25480  eV     1   --> A              
     e(  4 -  4) =    -11.21696  eV     1   --> A              
     e(  5 -  5) =     -7.11460  eV     1   --> A              
     e(  6 -  6) =     -7.07610  eV     1   --> A              
     e(  7 -  7) =     -3.56852  eV     1   --> A              
     e(  8 -  8) =     -3.04482  eV     1   --> A              
     e(  9 -  9) =      2.01753  eV     1   --> A              
     e( 10 - 10) =      2.67906  eV     1   --> A              
     e( 11 - 11) =      7.73074  eV     1   --> A              
     e( 12 - 12) =      8.05506  eV     1   --> A              
     e( 13 - 13) =      9.89838  eV     1   --> A              
     e( 14 - 14) =     10.21756  eV     1   --> A              
     e( 15 - 15) =     10.40549  eV     1   --> A              
     e( 16 - 16) =     10.51858  eV     1   --> A              
     e( 17 - 17) =     11.47763  eV     1   --> A              
     e( 18 - 18) =     11.75230  eV     1   --> A              
     e( 19 - 19) =     11.81807  eV     1   --> A              
     e( 20 - 20) =     12.41542  eV     1   --> A              

 **************************************************************************

 **************************************************************************

                    xk=(  -0.06061,   0.57735,   0.00000  )

     Band symmetry, C_1 (1)     point group:

     e(  1 -  1) =    -17.01927  eV     1   --> A              
     e(  2 -  2) =    -16.98061  eV     1   --> A              
     e(  3 -  3) =    -11.30681  eV     1   --> A              
     e(  4 -  4) =    -11.27031  eV     1   --> A              
     e(  5 -  5) =     -6.86946  eV     1   --> A              
     e(  6 -  6) =     -6.83252  eV     1   --> A              
     e(  7 -  7) =     -3.63744  eV     1   --> A              
     e(  8 -  8) =     -3.09955  eV     1   --> A              
     e(  9 -  9) =      1.98668  eV     1   --> A              
     e( 10 - 10) =      2.68350  eV     1   --> A              
     e( 11 - 11) =      7.41029  eV     1   --> A              
     e( 12 - 12) =      7.69915  eV     1   --> A              
     e( 13 - 13) =      9.81596  eV     1   --> A              
     e( 14 - 14) =     10.17341  eV     1   --> A              
     e( 15 - 15) =     10.35543  eV     1   --> A              
     e( 16 - 16) =     10.37782  eV     1   --> A              
     e( 17 - 17) =     11.48337  eV     1   --> A              
     e( 18 - 18) =     11.64246  eV     1   --> A              
     e( 19 - 19) =     11.84244  eV     1   --> A              
     e( 20 - 20) =     12.33453  eV     1   --> A              

 **************************************************************************

 **************************************************************************

                    xk=(  -0.03030,   0.57735,   0.00000  )

     Band symmetry, C_1 (1)     point group:

     e(  1 -  1) =    -17.04530  eV     1   --> A              
     e(  2 -  2) =    -17.00625  eV     1   --> A              
     e(  3 -  3) =    -11.33795  eV     1   --> A              
     e(  4 -  4) =    -11.30241  eV     1   --> A              
     e(  5 -  5) =     -6.71351  eV     1   --> A              
     e(  6 -  6) =     -6.67787  eV     1   --> A              
     e(  7 -  7) =     -3.67956  eV     1   --> A              
     e(  8 -  8) =     -3.13319  eV     1   --> A              
     e(  9 -  9) =      1.96664  eV     1   --> A              
     e( 10 - 10) =      2.68472  eV     1   --> A              
     e( 11 - 11) =      7.20533  eV     1   --> A              
     e( 12 - 12) =      7.47452  eV     1   --> A              
     e( 13 - 13) =      9.76597  eV     1   --> A              
     e( 14 - 14) =     10.14406  eV     1   --> A              
     e( 15 - 15) =     10.29675  eV     1   --> A              
     e( 16 - 16) =     10.31424  eV     1   --> A              
     e( 17 - 17) =     11.45271  eV     1   --> A              
     e( 18 - 18) =     11.57681  eV     1   --> A              
     e( 19 - 19) =     11.88358  eV     1   --> A              
     e( 20 - 20) =     12.28575  eV     1   --> A              

 **************************************************************************

 **************************************************************************

                    xk=(   0.00000,   0.57735,   0.00000  )

     point group C_s (m)    
     there are  2 classes
     the character table:

       E     s    
A'     1.00  1.00
A''    1.00 -1.00

     the symmetry operations in each class and the name of the first element:

     E        1
                                                                 
     s        2
                                                                 

     Band symmetry, C_s (m)     point group:

     e(  1 -  1) =    -17.05414  eV     1   --> A'             
     e(  2 -  2) =    -17.01492  eV     1   --> A'             
     e(  3 -  3) =    -11.34844  eV     1   --> A'             
     e(  4 -  4) =    -11.31305  eV     1   --> A'             
     e(  5 -  5) =     -6.66033  eV     1   --> A''            
     e(  6 -  6) =     -6.62468  eV     1   --> A''            
     e(  7 -  7) =     -3.69382  eV     1   --> A'             
     e(  8 -  8) =     -3.14488  eV     1   --> A'             
     e(  9 -  9) =      1.95970  eV     1   --> A'             
     e( 10 - 10) =      2.68463  eV     1   --> A'             
     e( 11 - 11) =      7.13479  eV     1   --> A'             
     e( 12 - 12) =      7.39758  eV     1   --> A'             
     e( 13 - 13) =      9.74916  eV     1   --> A'             
     e( 14 - 14) =     10.13357  eV     1   --> A'             
     e( 15 - 15) =     10.27041  eV     1   --> A'             
     e( 16 - 16) =     10.29918  eV     1   --> A'             
     e( 17 - 17) =     11.43898  eV     1   --> A'             
     e( 18 - 18) =     11.55496  eV     1   --> A'             
     e( 19 - 19) =     11.89812  eV     1   --> A'             
     e( 20 - 20) =     12.26945  eV     1   --> A'             

 **************************************************************************

 **************************************************************************

                    xk=(   0.00000,   0.54528,   0.00000  )

     Band symmetry, C_s (m)     point group:

     e(  1 -  1) =    -17.10185  eV     1   --> A'             
     e(  2 -  2) =    -17.05527  eV     1   --> A'             
     e(  3 -  3) =    -11.28114  eV     1   --> A'             
     e(  4 -  4) =    -11.24409  eV     1   --> A'             
     e(  5 -  5) =     -6.64439  eV     1   --> A''            
     e(  6 -  6) =     -6.60894  eV     1   --> A''            
     e(  7 -  7) =     -3.77833  eV     1   --> A'             
     e(  8 -  8) =     -3.19798  eV     1   --> A'             
     e(  9 -  9) =      2.05282  eV     1   --> A'             
     e( 10 - 10) =      2.76978  eV     1   --> A'             
     e( 11 - 11) =      7.09083  eV     1   --> A'             
     e( 12 - 12) =      7.39325  eV     1   --> A'             
     e( 13 - 13) =      9.30256  eV     1   --> A'             
     e( 14 - 14) =      9.52986  eV     1   --> A'             
     e( 15 - 15) =     10.54681  eV     1   --> A'             
     e( 16 - 16) =     10.83007  eV     1   --> A'             
     e( 17 - 17) =     10.87881  eV     1   --> A'             
     e( 18 - 18) =     11.56042  eV     1   --> A'             
     e( 19 - 19) =     11.93374  eV     1   --> A'             
     e( 20 - 20) =     12.40232  eV     1   --> A'             

 **************************************************************************

 **************************************************************************

                    xk=(   0.00000,   0.51320,   0.00000  )

     Band symmetry, C_s (m)     point group:

     e(  1 -  1) =    -17.23494  eV     1   --> A'             
     e(  2 -  2) =    -17.17260  eV     1   --> A'             
     e(  3 -  3) =    -11.08414  eV     1   --> A'             
     e(  4 -  4) =    -11.04294  eV     1   --> A'             
     e(  5 -  5) =     -6.59708  eV     1   --> A''            
     e(  6 -  6) =     -6.56176  eV     1   --> A''            
     e(  7 -  7) =     -4.00754  eV     1   --> A'             
     e(  8 -  8) =     -3.35462  eV     1   --> A'             
     e(  9 -  9) =      2.31852  eV     1   --> A'             
     e( 10 - 10) =      3.01084  eV     1   --> A'             
     e( 11 - 11) =      6.94638  eV     1   --> A'             
     e( 12 - 12) =      7.37300  eV     1   --> A'             
     e( 13 - 13) =      8.75160  eV     1   --> A'             
     e( 14 - 14) =      8.87098  eV     1   --> A'             
     e( 15 - 15) =      9.89634  eV     1   --> A'             
     e( 16 - 16) =     10.79173  eV     1   --> A'             
     e( 17 - 17) =     10.87607  eV     1   --> A'             
     e( 18 - 18) =     11.56203  eV     1   --> A'             
     e( 19 - 19) =     12.01898  eV     1   --> A'             
     e( 20 - 20) =     12.59601  eV     1   --> A'             

 **************************************************************************

 **************************************************************************

                    xk=(   0.00000,   0.48113,   0.00000  )

     Band symmetry, C_s (m)     point group:

     e(  1 -  1) =    -17.43279  eV     1   --> A'             
     e(  2 -  2) =    -17.35417  eV     1   --> A'             
     e(  3 -  3) =    -10.77383  eV     1   --> A'             
     e(  4 -  4) =    -10.72912  eV     1   --> A'             
     e(  5 -  5) =     -6.51860  eV     1   --> A''            
     e(  6 -  6) =     -6.48365  eV     1   --> A''            
     e(  7 -  7) =     -4.33382  eV     1   --> A'             
     e(  8 -  8) =     -3.59977  eV     1   --> A'             
     e(  9 -  9) =      2.72242  eV     1   --> A'             
     e( 10 - 10) =      3.37171  eV     1   --> A'             
     e( 11 - 11) =      6.67424  eV     1   --> A'             
     e( 12 - 12) =      7.29879  eV     1   --> A'             
     e( 13 - 13) =      8.28252  eV     1   --> A'             
     e( 14 - 14) =      8.32399  eV     1   --> A'             
     e( 15 - 15) =      9.19559  eV     1   --> A'             
     e( 16 - 16) =     10.17423  eV     1   --> A'             
     e( 17 - 17) =     10.42801  eV     1   --> A'             
     e( 18 - 18) =     11.78720  eV     1   --> A'             
     e( 19 - 19) =     12.16620  eV     1   --> A'             
     e( 20 - 20) =     12.77837  eV     1   --> A'             

 **************************************************************************

 **************************************************************************

                    xk=(   0.00000,   0.44905,   0.00000  )

     Band symmetry, C_s (m)     point group:

     e(  1 -  1) =    -17.67416  eV     1   --> A'             
     e(  2 -  2) =    -17.58125  eV     1   --> A'             
     e(  3 -  3) =    -10.37130  eV     1   --> A'             
     e(  4 -  4) =    -10.32486  eV     1   --> A'             
     e(  5 -  5) =     -6.41077  eV     1   --> A''            
     e(  6 -  6) =     -6.37606  eV     1   --> A''            
     e(  7 -  7) =     -4.71499  eV     1   --> A'             
     e(  8 -  8) =     -3.90805  eV     1   --> A'             
     e(  9 -  9) =      3.22139  eV     1   --> A'             
     e( 10 - 10) =      3.80941  eV     1   --> A'             
     e( 11 - 11) =      6.27930  eV     1   --> A'             
     e( 12 - 12) =      7.07059  eV     1   --> A'             
     e( 13 - 13) =      7.91690  eV     1   --> A'             
     e( 14 - 14) =      7.95796  eV     1   --> A'             
     e( 15 - 15) =      8.58474  eV     1   --> A'             
     e( 16 - 16) =      9.52127  eV     1   --> A'             
     e( 17 - 17) =      9.97125  eV     1   --> A'             
     e( 18 - 18) =     11.36776  eV     1   --> A'             
     e( 19 - 19) =     12.02437  eV     1   --> A'             
     e( 20 - 20) =     13.07900  eV     1   --> A'             

 **************************************************************************

 **************************************************************************

                    xk=(   0.00000,   0.41698,   0.00000  )

     Band symmetry, C_s (m)     point group:

     e(  1 -  1) =    -17.93987  eV     1   --> A'             
     e(  2 -  2) =    -17.83491  eV     1   --> A'             
     e(  3 -  3) =     -9.89701  eV     1   --> A'             
     e(  4 -  4) =     -9.85109  eV     1   --> A'             
     e(  5 -  5) =     -6.27390  eV     1   --> A''            
     e(  6 -  6) =     -6.23958  eV     1   --> A''            
     e(  7 -  7) =     -5.11976  eV     1   --> A'             
     e(  8 -  8) =     -4.25215  eV     1   --> A'             
     e(  9 -  9) =      3.76968  eV     1   --> A'             
     e( 10 - 10) =      4.28153  eV     1   --> A'             
     e( 11 - 11) =      5.81280  eV     1   --> A'             
     e( 12 - 12) =      6.67560  eV     1   --> A'             
     e( 13 - 13) =      7.53431  eV     1   --> A'             
     e( 14 - 14) =      7.78476  eV     1   --> A'             
     e( 15 - 15) =      8.14571  eV     1   --> A'             
     e( 16 - 16) =      8.92734  eV     1   --> A'             
     e( 17 - 17) =      9.53985  eV     1   --> A'             
     e( 18 - 18) =     10.93677  eV     1   --> A'             
     e( 19 - 19) =     11.51183  eV     1   --> A'             
     e( 20 - 20) =     13.42780  eV     1   --> A'             

 **************************************************************************

 **************************************************************************

                    xk=(   0.00000,   0.38490,   0.00000  )

     Band symmetry, C_s (m)     point group:

     e(  1 -  1) =    -18.21554  eV     1   --> A'             
     e(  2 -  2) =    -18.10062  eV     1   --> A'             
     e(  3 -  3) =     -9.36915  eV     1   --> A'             
     e(  4 -  4) =     -9.32528  eV     1   --> A'             
     e(  5 -  5) =     -6.11027  eV     1   --> A''            
     e(  6 -  6) =     -6.07639  eV     1   --> A''            
     e(  7 -  7) =     -5.52811  eV     1   --> A'             
     e(  8 -  8) =     -4.61077  eV     1   --> A'             
     e(  9 -  9) =      4.30290  eV     1   --> A'             
     e( 10 - 10) =      4.73300  eV     1   --> A'             
     e( 11 - 11) =      5.33141  eV     1   --> A'             
     e( 12 - 12) =      6.28938  eV     1   --> A'             
     e( 13 - 13) =      7.03059  eV     1   --> A'             
     e( 14 - 14) =      7.70137  eV     1   --> A'             
     e( 15 - 15) =      7.86030  eV     1   --> A'             
     e( 16 - 16) =      8.43664  eV     1   --> A'             
     e( 17 - 17) =      9.17908  eV     1   --> A'             
     e( 18 - 18) =     10.53140  eV     1   --> A'             
     e( 19 - 19) =     10.98740  eV     1   --> A'             
     e( 20 - 20) =     13.24905  eV     1   --> A'             

 **************************************************************************

 **************************************************************************

                    xk=(   0.00000,   0.35283,   0.00000  )

     Band symmetry, C_s (m)     point group:

     e(  1 -  1) =    -18.49015  eV     1   --> A'             
     e(  2 -  2) =    -18.36673  eV     1   --> A'             
     e(  3 -  3) =     -8.80290  eV     1   --> A'             
     e(  4 -  4) =     -8.76198  eV     1   --> A'             
     e(  5 -  5) =     -5.92609  eV     1   --> A'             
     e(  6 -  6) =     -5.92272  eV     1   --> A''            
     e(  7 -  7) =     -5.88942  eV     1   --> A''            
     e(  8 -  8) =     -4.96868  eV     1   --> A'             
     e(  9 -  9) =      4.65269  eV     1   --> A'             
     e( 10 - 10) =      4.81562  eV     1   --> A'             
     e( 11 - 11) =      5.17355  eV     1   --> A'             
     e( 12 - 12) =      6.11546  eV     1   --> A'             
     e( 13 - 13) =      6.51840  eV     1   --> A'             
     e( 14 - 14) =      7.50858  eV     1   --> A'             
     e( 15 - 15) =      7.61580  eV     1   --> A'             
     e( 16 - 16) =      8.16150  eV     1   --> A'             
     e( 17 - 17) =      8.91286  eV     1   --> A'             
     e( 18 - 18) =     10.17127  eV     1   --> A'             
     e( 19 - 19) =     10.49477  eV     1   --> A'             
     e( 20 - 20) =     12.90174  eV     1   --> A'             

 **************************************************************************

 **************************************************************************

                    xk=(   0.00000,   0.32075,   0.00000  )

     Band symmetry, C_s (m)     point group:

     e(  1 -  1) =    -18.75559  eV     1   --> A'             
     e(  2 -  2) =    -18.62503  eV     1   --> A'             
     e(  3 -  3) =     -8.21157  eV     1   --> A'             
     e(  4 -  4) =     -8.17498  eV     1   --> A'             
     e(  5 -  5) =     -6.30414  eV     1   --> A'             
     e(  6 -  6) =     -5.71378  eV     1   --> A''            
     e(  7 -  7) =     -5.68143  eV     1   --> A''            
     e(  8 -  8) =     -5.31397  eV     1   --> A'             
     e(  9 -  9) =      4.36861  eV     1   --> A'             
     e( 10 - 10) =      4.60163  eV     1   --> A'             
     e( 11 - 11) =      5.50886  eV     1   --> A'             
     e( 12 - 12) =      6.04651  eV     1   --> A'             
     e( 13 - 13) =      6.26732  eV     1   --> A'             
     e( 14 - 14) =      7.22496  eV     1   --> A'             
     e( 15 - 15) =      7.39070  eV     1   --> A'             
     e( 16 - 16) =      8.10659  eV     1   --> A'             
     e( 17 - 17) =      8.73979  eV     1   --> A'             
     e( 18 - 18) =      9.87132  eV     1   --> A'             
     e( 19 - 19) =     10.05000  eV     1   --> A'             
     e( 20 - 20) =     12.57414  eV     1   --> A'             

 **************************************************************************

 **************************************************************************

                    xk=(   0.00000,   0.28868,   0.00000  )

     Band symmetry, C_s (m)     point group:

     e(  1 -  1) =    -19.00619  eV     1   --> A'             
     e(  2 -  2) =    -18.86942  eV     1   --> A'             
     e(  3 -  3) =     -7.60784  eV     1   --> A'             
     e(  4 -  4) =     -7.57828  eV     1   --> A'             
     e(  5 -  5) =     -6.65393  eV     1   --> A'             
     e(  6 -  6) =     -5.63898  eV     1   --> A'             
     e(  7 -  7) =     -5.48817  eV     1   --> A''            
     e(  8 -  8) =     -5.45661  eV     1   --> A''            
     e(  9 -  9) =      3.94851  eV     1   --> A'             
     e( 10 - 10) =      4.31267  eV     1   --> A'             
     e( 11 - 11) =      5.50041  eV     1   --> A'             
     e( 12 - 12) =      5.85332  eV     1   --> A'             
     e( 13 - 13) =      6.33413  eV     1   --> A'             
     e( 14 - 14) =      7.17351  eV     1   --> A'             
     e( 15 - 15) =      7.25720  eV     1   --> A'             
     e( 16 - 16) =      8.13110  eV     1   --> A'             
     e( 17 - 17) =      8.64512  eV     1   --> A'             
     e( 18 - 18) =      9.64103  eV     1   --> A'             
     e( 19 - 19) =      9.66905  eV     1   --> A'             
     e( 20 - 20) =     12.28389  eV     1   --> A'             

 **************************************************************************

 **************************************************************************

                    xk=(   0.00000,   0.25660,   0.00000  )

     Band symmetry, C_s (m)     point group:

     e(  1 -  1) =    -19.23762  eV     1   --> A'             
     e(  2 -  2) =    -19.09562  eV     1   --> A'             
     e(  3 -  3) =     -7.06572  eV     1   --> A'             
     e(  4 -  4) =     -7.00250  eV     1   --> A'             
     e(  5 -  5) =     -6.88973  eV     1   --> A'             
     e(  6 -  6) =     -5.93717  eV     1   --> A'             
     e(  7 -  7) =     -5.25005  eV     1   --> A''            
     e(  8 -  8) =     -5.21989  eV     1   --> A''            
     e(  9 -  9) =      3.56304  eV     1   --> A'             
     e( 10 - 10) =      3.98139  eV     1   --> A'             
     e( 11 - 11) =      5.13064  eV     1   --> A'             
     e( 12 - 12) =      5.85781  eV     1   --> A'             
     e( 13 - 13) =      6.09292  eV     1   --> A'             
     e( 14 - 14) =      7.12412  eV     1   --> A'             
     e( 15 - 15) =      7.56692  eV     1   --> A'             
     e( 16 - 16) =      8.18220  eV     1   --> A'             
     e( 17 - 17) =      8.62320  eV     1   --> A'             
     e( 18 - 18) =      9.37412  eV     1   --> A'             
     e( 19 - 19) =      9.48304  eV     1   --> A'             
     e( 20 - 20) =     11.97726  eV     1   --> A'             

 **************************************************************************

 **************************************************************************

                    xk=(   0.00000,   0.22453,   0.00000  )

     Band symmetry, C_s (m)     point group:

     e(  1 -  1) =    -19.44701  eV     1   --> A'             
     e(  2 -  2) =    -19.30058  eV     1   --> A'             
     e(  3 -  3) =     -7.28590  eV     1   --> A'             
     e(  4 -  4) =     -6.43338  eV     1   --> A'             
     e(  5 -  5) =     -6.36936  eV     1   --> A'             
     e(  6 -  6) =     -6.18461  eV     1   --> A'             
     e(  7 -  7) =     -5.00638  eV     1   --> A''            
     e(  8 -  8) =     -4.97770  eV     1   --> A''            
     e(  9 -  9) =      3.21653  eV     1   --> A'             
     e( 10 - 10) =      3.66335  eV     1   --> A'             
     e( 11 - 11) =      4.77643  eV     1   --> A'             
     e( 12 - 12) =      5.73230  eV     1   --> A'             
     e( 13 - 13) =      5.78692  eV     1   --> A'             
     e( 14 - 14) =      7.07461  eV     1   --> A'             
     e( 15 - 15) =      7.85301  eV     1   --> A'             
     e( 16 - 16) =      8.31636  eV     1   --> A'             
     e( 17 - 17) =      8.66999  eV     1   --> A'             
     e( 18 - 18) =      9.21286  eV     1   --> A'             
     e( 19 - 19) =      9.38087  eV     1   --> A'             
     e( 20 - 20) =     11.56416  eV     1   --> A'             

 **************************************************************************

 **************************************************************************

                    xk=(   0.00000,   0.19245,   0.00000  )

     Band symmetry, C_s (m)     point group:

     e(  1 -  1) =    -19.63193  eV     1   --> A'             
     e(  2 -  2) =    -19.48164  eV     1   --> A'             
     e(  3 -  3) =     -7.53760  eV     1   --> A'             
     e(  4 -  4) =     -6.46698  eV     1   --> A'             
     e(  5 -  5) =     -5.82282  eV     1   --> A'             
     e(  6 -  6) =     -5.80557  eV     1   --> A'             
     e(  7 -  7) =     -4.76426  eV     1   --> A''            
     e(  8 -  8) =     -4.73701  eV     1   --> A''            
     e(  9 -  9) =      2.91101  eV     1   --> A'             
     e( 10 - 10) =      3.37652  eV     1   --> A'             
     e( 11 - 11) =      4.46435  eV     1   --> A'             
     e( 12 - 12) =      5.49839  eV     1   --> A'             
     e( 13 - 13) =      5.54456  eV     1   --> A'             
     e( 14 - 14) =      7.00001  eV     1   --> A'             
     e( 15 - 15) =      7.85817  eV     1   --> A'             
     e( 16 - 16) =      8.57787  eV     1   --> A'             
     e( 17 - 17) =      8.76111  eV     1   --> A'             
     e( 18 - 18) =      9.24382  eV     1   --> A'             
     e( 19 - 19) =      9.31705  eV     1   --> A'             
     e( 20 - 20) =     11.17177  eV     1   --> A'             

 **************************************************************************

 **************************************************************************

                    xk=(   0.00000,   0.16038,   0.00000  )

     Band symmetry, C_s (m)     point group:

     e(  1 -  1) =    -19.79073  eV     1   --> A'             
     e(  2 -  2) =    -19.63712  eV     1   --> A'             
     e(  3 -  3) =     -7.75508  eV     1   --> A'             
     e(  4 -  4) =     -6.66754  eV     1   --> A'             
     e(  5 -  5) =     -5.29905  eV     1   --> A'             
     e(  6 -  6) =     -5.28072  eV     1   --> A'             
     e(  7 -  7) =     -4.53232  eV     1   --> A''            
     e(  8 -  8) =     -4.50684  eV     1   --> A''            
     e(  9 -  9) =      2.64786  eV     1   --> A'             
     e( 10 - 10) =      3.12796  eV     1   --> A'             
     e( 11 - 11) =      4.19798  eV     1   --> A'             
     e( 12 - 12) =      5.24614  eV     1   --> A'             
     e( 13 - 13) =      5.34744  eV     1   --> A'             
     e( 14 - 14) =      6.89851  eV     1   --> A'             
     e( 15 - 15) =      7.73419  eV     1   --> A'             
     e( 16 - 16) =      8.76542  eV     1   --> A'             
     e( 17 - 17) =      8.86308  eV     1   --> A'             
     e( 18 - 18) =      9.26719  eV     1   --> A'             
     e( 19 - 19) =      9.47588  eV     1   --> A'             
     e( 20 - 20) =     10.65370  eV     1   --> A''            

 **************************************************************************

 **************************************************************************

                    xk=(   0.00000,   0.12830,   0.00000  )

     Band symmetry, C_s (m)     point group:

     e(  1 -  1) =    -19.92227  eV     1   --> A'             
     e(  2 -  2) =    -19.76607  eV     1   --> A'             
     e(  3 -  3) =     -7.93503  eV     1   --> A'             
     e(  4 -  4) =     -6.83670  eV     1   --> A'             
     e(  5 -  5) =     -4.82976  eV     1   --> A'             
     e(  6 -  6) =     -4.81207  eV     1   --> A'             
     e(  7 -  7) =     -4.32205  eV     1   --> A''            
     e(  8 -  8) =     -4.29854  eV     1   --> A''            
     e(  9 -  9) =      2.42827  eV     1   --> A'             
     e( 10 - 10) =      2.92113  eV     1   --> A'             
     e( 11 - 11) =      3.97859  eV     1   --> A'             
     e( 12 - 12) =      5.03579  eV     1   --> A'             
     e( 13 - 13) =      5.16704  eV     1   --> A'             
     e( 14 - 14) =      6.78936  eV     1   --> A'             
     e( 15 - 15) =      7.58296  eV     1   --> A'             
     e( 16 - 16) =      8.88166  eV     1   --> A'             
     e( 17 - 17) =      8.95409  eV     1   --> A'             
     e( 18 - 18) =      9.22725  eV     1   --> A'             
     e( 19 - 19) =      9.76721  eV     1   --> A'             
     e( 20 - 20) =     10.12026  eV     1   --> A''            

 **************************************************************************

 **************************************************************************

                    xk=(   0.00000,   0.09623,   0.00000  )

     Band symmetry, C_s (m)     point group:

     e(  1 -  1) =    -20.02530  eV     1   --> A'             
     e(  2 -  2) =    -19.86707  eV     1   --> A'             
     e(  3 -  3) =     -8.07565  eV     1   --> A'             
     e(  4 -  4) =     -6.96967  eV     1   --> A'             
     e(  5 -  5) =     -4.43559  eV     1   --> A'             
     e(  6 -  6) =     -4.41816  eV     1   --> A'             
     e(  7 -  7) =     -4.14172  eV     1   --> A''            
     e(  8 -  8) =     -4.12003  eV     1   --> A''            
     e(  9 -  9) =      2.25388  eV     1   --> A'             
     e( 10 - 10) =      2.75825  eV     1   --> A'             
     e( 11 - 11) =      3.80695  eV     1   --> A'             
     e( 12 - 12) =      4.87017  eV     1   --> A'             
     e( 13 - 13) =      5.01674  eV     1   --> A'             
     e( 14 - 14) =      6.69026  eV     1   --> A'             
     e( 15 - 15) =      7.44395  eV     1   --> A'             
     e( 16 - 16) =      8.96980  eV     1   --> A'             
     e( 17 - 17) =      9.02994  eV     1   --> A'             
     e( 18 - 18) =      9.19059  eV     1   --> A'             
     e( 19 - 19) =      9.68704  eV     1   --> A''            
     e( 20 - 20) =      9.75483  eV     1   --> A''            

 **************************************************************************

 **************************************************************************

                    xk=(   0.00000,   0.06415,   0.00000  )

     Band symmetry, C_s (m)     point group:

     e(  1 -  1) =    -20.09943  eV     1   --> A'             
     e(  2 -  2) =    -19.93977  eV     1   --> A'             
     e(  3 -  3) =     -8.17662  eV     1   --> A'             
     e(  4 -  4) =     -7.06526  eV     1   --> A'             
     e(  5 -  5) =     -4.13736  eV     1   --> A'             
     e(  6 -  6) =     -4.11947  eV     1   --> A'             
     e(  7 -  7) =     -4.00420  eV     1   --> A''            
     e(  8 -  8) =     -3.98324  eV     1   --> A''            
     e(  9 -  9) =      2.12667  eV     1   --> A'             
     e( 10 - 10) =      2.64068  eV     1   --> A'             
     e( 11 - 11) =      3.68370  eV     1   --> A'             
     e( 12 - 12) =      4.75077  eV     1   --> A'             
     e( 13 - 13) =      4.90402  eV     1   --> A'             
     e( 14 - 14) =      6.61240  eV     1   --> A'             
     e( 15 - 15) =      7.33512  eV     1   --> A'             
     e( 16 - 16) =      9.03345  eV     1   --> A'             
     e( 17 - 17) =      9.09106  eV     1   --> A'             
     e( 18 - 18) =      9.16069  eV     1   --> A'             
     e( 19 - 19) =      9.36620  eV     1   --> A''            
     e( 20 - 20) =      9.43547  eV     1   --> A''            

 **************************************************************************

 **************************************************************************

                    xk=(   0.00000,   0.03208,   0.00000  )

     Band symmetry, C_s (m)     point group:

     e(  1 -  1) =    -20.14393  eV     1   --> A'             
     e(  2 -  2) =    -19.98345  eV     1   --> A'             
     e(  3 -  3) =     -8.23718  eV     1   --> A'             
     e(  4 -  4) =     -7.12273  eV     1   --> A'             
     e(  5 -  5) =     -3.95056  eV     1   --> A'             
     e(  6 -  6) =     -3.93127  eV     1   --> A'             
     e(  7 -  7) =     -3.91608  eV     1   --> A''            
     e(  8 -  8) =     -3.89578  eV     1   --> A''            
     e(  9 -  9) =      2.04903  eV     1   --> A'             
     e( 10 - 10) =      2.56964  eV     1   --> A'             
     e( 11 - 11) =      3.60945  eV     1   --> A'             
     e( 12 - 12) =      4.67871  eV     1   --> A'             
     e( 13 - 13) =      4.83433  eV     1   --> A'             
     e( 14 - 14) =      6.56323  eV     1   --> A'             
     e( 15 - 15) =      7.26638  eV     1   --> A'             
     e( 16 - 16) =      9.07323  eV     1   --> A'             
     e( 17 - 17) =      9.11527  eV     1   --> A'             
     e( 18 - 18) =      9.15930  eV     1   --> A'             
     e( 19 - 19) =      9.16915  eV     1   --> A''            
     e( 20 - 20) =      9.23927  eV     1   --> A''            

 **************************************************************************

 **************************************************************************

                    xk=(   0.00000,   0.00000,   0.00000  )

     point group C_3v (3m)  
     there are  3 classes
     the character table:

       E     2C3   3s_v 
A_1    1.00  1.00  1.00
A_2    1.00  1.00 -1.00
E      2.00 -1.00  0.00

     the symmetry operations in each class and the name of the first element:

     E        1
                                                                 
     2C3      2    3
                                                                 
     3s_v     4    5    6
                                                                 

     Band symmetry, C_3v (3m)   point group:

     e(  1 -  1) =    -20.15873  eV     1   --> A_1  L_1       
     e(  2 -  2) =    -19.99810  eV     1   --> A_1  L_1       
     e(  3 -  3) =     -8.25768  eV     1   --> A_1  L_1       
     e(  4 -  4) =     -7.14222  eV     1   --> A_1  L_1       
     e(  5 -  6) =     -3.88640  eV     2   --> E    L_3       
     e(  7 -  8) =     -3.86585  eV     2   --> E    L_3       
     e(  9 -  9) =      2.02289  eV     1   --> A_1  L_1       
     e( 10 - 10) =      2.54586  eV     1   --> A_1  L_1       
     e( 11 - 11) =      3.58465  eV     1   --> A_1  L_1       
     e( 12 - 12) =      4.65462  eV     1   --> A_1  L_1       
     e( 13 - 13) =      4.81071  eV     1   --> A_1  L_1       
     e( 14 - 14) =      6.54622  eV     1   --> A_1  L_1       
     e( 15 - 15) =      7.24294  eV     1   --> A_1  L_1       
     e( 16 - 16) =      9.09447  eV     1   --> A_1  L_1       
     e( 17 - 18) =      9.10221  eV     2   --> E    L_3       
     e( 19 - 20) =      9.17242  eV     2   --> E    L_3       

 **************************************************************************

     BANDS        :     12.54s CPU     12.84s WALL


   This run was terminated on:  15:37:16  17Apr2024            

=------------------------------------------------------------------------------=
   JOB DONE.
=------------------------------------------------------------------------------=
