
     Program BANDS v.7.2 starts on 12Apr2024 at 17: 5:35 

     This program is part of the open-source Quantum ESPRESSO suite
     for quantum simulation of materials; please cite
         "P. Giannozzi et al., J. Phys.:Condens. Matter 21 395502 (2009);
         "P. Giannozzi et al., J. Phys.:Condens. Matter 29 465901 (2017);
         "P. Giannozzi et al., J. Chem. Phys. 152 154105 (2020);
          URL http://www.quantum-espresso.org", 
     in publications or presentations arising from this work. More details at
     http://www.quantum-espresso.org/quote

     Parallel version (MPI & OpenMP), running on       8 processor cores
     Number of MPI processes:                 8
     Threads/MPI process:                     1

     MPI processes distributed on     1 nodes
     R & G space division:  proc/nbgrp/npool/nimage =       8
     0 MiB available memory on the printing compute node when the environment starts


     Reading xml data from directory:

     ./tmp/BN2L_AA1_PBE_vdW.save/

     IMPORTANT: XC functional enforced from input :
     Exchange-correlation= VDW-DF2-B86R
                           (   1   4  26   0   2   0   0)
     Any further DFT definition will be discarded
     Please, verify this is what you really want


     Parallelization info
     --------------------
     sticks:   dense  smooth     PW     G-vecs:    dense   smooth      PW
     Min          45      45     15                 5775     5775    1005
     Max          46      46     16                 5804     5804    1022
     Sum         367     367    121                46381    46381    8133

     Using Slab Decomposition



     %%%%%%%%%%%%%%%%%%%%%%%%%%%%%%%%%%%%%%%%%%%%%%%%%%%%%%%%%%%%%%%%%%%%%%%%
     %                                                                      %
     % You are using vdW-DF, which was implemented by the Thonhauser group. %
     % Please cite the following two papers that made this development      %
     % possible and the two reviews that describe the various versions:     %
     %                                                                      %
     %   T. Thonhauser et al., PRL 115, 136402 (2015).                      %
     %   T. Thonhauser et al., PRB 76, 125112 (2007).                       %
     %   K. Berland et al., Rep. Prog. Phys. 78, 066501 (2015).             %
     %   D.C. Langreth et al., J. Phys.: Condens. Matter 21, 084203 (2009). %
     %                                                                      %
     % If you are calculating stress with vdW-DF, please also cite:         %
     %                                                                      %
     %   R. Sabatini et al., J. Phys.: Condens. Matter 24, 424209 (2012).   %
     %                                                                      %
     %%%%%%%%%%%%%%%%%%%%%%%%%%%%%%%%%%%%%%%%%%%%%%%%%%%%%%%%%%%%%%%%%%%%%%%%

     %%%%%%%%%%%%%%%%%%%%%%%%%%%%%%%%%%%%%%%%%%%%%%%%%%%%%%%%%%%%%%%%%%%%%%%%
     %                                                                      %
     %  vdW-DF NEWS:                                                        %
     %                                                                      %
     %  * vdW-DF3 is now available. DOI: 10.1021/acs.jctc.0c00471           %
     %    use with input_dft = 'vdW-DF3-opt1' or 'vdW-DF3-opt2'             %
     %                                                                      %
     %  * Unscreened and range-separated hybrid vdW-DF-cx functionals       %
     %    DOI: 10.1063/1.4986522 and 10.1088/1361-648X/ac2ad2               %
     %    use with input_dft = 'vdW-DF-cx0'    and 'vdW-DF-ahcx'            %
     %  * Unscreened and range-separated hybrid vdW-DF2-b86r functionals    %
     %    DOI: 10.1063/1.4986522 and DOI: 10.1103/PhysRevX.12.041003        %
     %    use with input_dft = 'vdW-DF2-br0' and 'vdW-DF2-ahbr'             %
     %                                                                      %
     %%%%%%%%%%%%%%%%%%%%%%%%%%%%%%%%%%%%%%%%%%%%%%%%%%%%%%%%%%%%%%%%%%%%%%%%


     Reading collected, re-writing distributed wavefunctions
     high-symmetry point:  0.0000 0.0000 0.0000   x coordinate   0.0000
     high-symmetry point: -0.3333 0.5774 0.0000   x coordinate   0.6667
     high-symmetry point:  0.0000 0.5774 0.0000   x coordinate   1.0000
     high-symmetry point:  0.0000 0.0000 0.0000   x coordinate   1.5773

     Plottable bands (eV) written to file Bande_BN2L_AA1_PBE_vdW.dat.gnu
     Bands written to file Bande_BN2L_AA1_PBE_vdW.dat

 **************************************************************************

                    xk=(   0.00000,   0.00000,   0.00000  )

     point group C_3v (3m)  
     there are  3 classes
     the character table:

       E     2C3   3s_v 
A_1    1.00  1.00  1.00
A_2    1.00  1.00 -1.00
E      2.00 -1.00  0.00

     the symmetry operations in each class and the name of the first element:

     E        1
                                                                 
     2C3      2    3
                                                                 
     3s_v     4    5    6
                                                                 

     Band symmetry, C_3v (3m)   point group:

     e(  1 -  1) =    -20.15639  eV     1   --> A_1  L_1       
     e(  2 -  2) =    -20.01436  eV     1   --> A_1  L_1       
     e(  3 -  3) =     -8.22168  eV     1   --> A_1  L_1       
     e(  4 -  4) =     -7.18791  eV     1   --> A_1  L_1       
     e(  5 -  6) =     -3.85396  eV     2   --> E    L_3       
     e(  7 -  8) =     -3.83730  eV     2   --> E    L_3       
     e(  9 -  9) =      2.02439  eV     1   --> A_1  L_1       
     e( 10 - 10) =      2.55489  eV     1   --> A_1  L_1       
     e( 11 - 11) =      3.59497  eV     1   --> A_1  L_1       
     e( 12 - 12) =      4.68564  eV     1   --> A_1  L_1       
     e( 13 - 13) =      4.77465  eV     1   --> A_1  L_1       
     e( 14 - 14) =      6.54925  eV     1   --> A_1  L_1       
     e( 15 - 15) =      7.30027  eV     1   --> A_1  L_1       
     e( 16 - 16) =      9.16542  eV     1   --> A_1  L_1       
     e( 17 - 18) =      9.18073  eV     2   --> E    L_3       
     e( 19 - 20) =      9.24251  eV     2   --> E    L_3       

 **************************************************************************

 **************************************************************************

                    xk=(  -0.01587,   0.02749,   0.00000  )

     point group C_1 (1)    
     there are  1 classes
     the character table:

       E    
A      1.00

     the symmetry operations in each class and the name of the first element:

     E        1
                                                                 

     Band symmetry, C_1 (1)     point group:

     e(  1 -  1) =    -20.14184  eV     1   --> A              
     e(  2 -  2) =    -20.00006  eV     1   --> A              
     e(  3 -  3) =     -8.20188  eV     1   --> A              
     e(  4 -  4) =     -7.16909  eV     1   --> A              
     e(  5 -  5) =     -3.91659  eV     1   --> A              
     e(  6 -  6) =     -3.90116  eV     1   --> A              
     e(  7 -  7) =     -3.88340  eV     1   --> A              
     e(  8 -  8) =     -3.86671  eV     1   --> A              
     e(  9 -  9) =      2.05007  eV     1   --> A              
     e( 10 - 10) =      2.57830  eV     1   --> A              
     e( 11 - 11) =      3.61934  eV     1   --> A              
     e( 12 - 12) =      4.70935  eV     1   --> A              
     e( 13 - 13) =      4.79745  eV     1   --> A              
     e( 14 - 14) =      6.56590  eV     1   --> A              
     e( 15 - 15) =      7.32348  eV     1   --> A              
     e( 16 - 16) =      9.14716  eV     1   --> A              
     e( 17 - 17) =      9.19289  eV     1   --> A              
     e( 18 - 18) =      9.22625  eV     1   --> A              
     e( 19 - 19) =      9.24662  eV     1   --> A              
     e( 20 - 20) =      9.30788  eV     1   --> A              

 **************************************************************************

 **************************************************************************

                    xk=(  -0.03175,   0.05499,   0.00000  )

     Band symmetry, C_1 (1)     point group:

     e(  1 -  1) =    -20.09804  eV     1   --> A              
     e(  2 -  2) =    -19.95702  eV     1   --> A              
     e(  3 -  3) =     -8.14239  eV     1   --> A              
     e(  4 -  4) =     -7.11231  eV     1   --> A              
     e(  5 -  5) =     -4.09790  eV     1   --> A              
     e(  6 -  6) =     -4.08463  eV     1   --> A              
     e(  7 -  7) =     -3.97141  eV     1   --> A              
     e(  8 -  8) =     -3.95419  eV     1   --> A              
     e(  9 -  9) =      2.12642  eV     1   --> A              
     e( 10 - 10) =      2.64829  eV     1   --> A              
     e( 11 - 11) =      3.69230  eV     1   --> A              
     e( 12 - 12) =      4.78030  eV     1   --> A              
     e( 13 - 13) =      4.86493  eV     1   --> A              
     e( 14 - 14) =      6.61516  eV     1   --> A              
     e( 15 - 15) =      7.39173  eV     1   --> A              
     e( 16 - 16) =      9.11736  eV     1   --> A              
     e( 17 - 17) =      9.19505  eV     1   --> A              
     e( 18 - 18) =      9.20881  eV     1   --> A              
     e( 19 - 19) =      9.42616  eV     1   --> A              
     e( 20 - 20) =      9.49814  eV     1   --> A              

 **************************************************************************

 **************************************************************************

                    xk=(  -0.04762,   0.08248,   0.00000  )

     Band symmetry, C_1 (1)     point group:

     e(  1 -  1) =    -20.02519  eV     1   --> A              
     e(  2 -  2) =    -19.88551  eV     1   --> A              
     e(  3 -  3) =     -8.04320  eV     1   --> A              
     e(  4 -  4) =     -7.01786  eV     1   --> A              
     e(  5 -  5) =     -4.38406  eV     1   --> A              
     e(  6 -  6) =     -4.37277  eV     1   --> A              
     e(  7 -  7) =     -4.11421  eV     1   --> A              
     e(  8 -  8) =     -4.09654  eV     1   --> A              
     e(  9 -  9) =      2.25164  eV     1   --> A              
     e( 10 - 10) =      2.76417  eV     1   --> A              
     e( 11 - 11) =      3.81343  eV     1   --> A              
     e( 12 - 12) =      4.89791  eV     1   --> A              
     e( 13 - 13) =      4.97444  eV     1   --> A              
     e( 14 - 14) =      6.69394  eV     1   --> A              
     e( 15 - 15) =      7.50115  eV     1   --> A              
     e( 16 - 16) =      9.08704  eV     1   --> A              
     e( 17 - 17) =      9.16687  eV     1   --> A              
     e( 18 - 18) =      9.22275  eV     1   --> A              
     e( 19 - 19) =      9.66475  eV     1   --> A              
     e( 20 - 20) =      9.79504  eV     1   --> A              

 **************************************************************************

 **************************************************************************

                    xk=(  -0.06349,   0.10997,   0.00000  )

     Band symmetry, C_1 (1)     point group:

     e(  1 -  1) =    -19.92389  eV     1   --> A              
     e(  2 -  2) =    -19.78597  eV     1   --> A              
     e(  3 -  3) =     -7.90463  eV     1   --> A              
     e(  4 -  4) =     -6.88638  eV     1   --> A              
     e(  5 -  5) =     -4.75620  eV     1   --> A              
     e(  6 -  6) =     -4.74631  eV     1   --> A              
     e(  7 -  7) =     -4.30925  eV     1   --> A              
     e(  8 -  8) =     -4.29115  eV     1   --> A              
     e(  9 -  9) =      2.42372  eV     1   --> A              
     e( 10 - 10) =      2.92491  eV     1   --> A              
     e( 11 - 11) =      3.98221  eV     1   --> A              
     e( 12 - 12) =      5.06129  eV     1   --> A              
     e( 13 - 13) =      5.12166  eV     1   --> A              
     e( 14 - 14) =      6.79610  eV     1   --> A              
     e( 15 - 15) =      7.64556  eV     1   --> A              
     e( 16 - 16) =      9.06719  eV     1   --> A              
     e( 17 - 17) =      9.15818  eV     1   --> A              
     e( 18 - 18) =      9.23049  eV     1   --> A              
     e( 19 - 19) =      9.74427  eV     1   --> A              
     e( 20 - 20) =     10.05223  eV     1   --> A              

 **************************************************************************

 **************************************************************************

                    xk=(  -0.07936,   0.13746,   0.00000  )

     Band symmetry, C_1 (1)     point group:

     e(  1 -  1) =    -19.79468  eV     1   --> A              
     e(  2 -  2) =    -19.65901  eV     1   --> A              
     e(  3 -  3) =     -7.72761  eV     1   --> A              
     e(  4 -  4) =     -6.71916  eV     1   --> A              
     e(  5 -  5) =     -5.19176  eV     1   --> A              
     e(  6 -  6) =     -5.18369  eV     1   --> A              
     e(  7 -  7) =     -4.55041  eV     1   --> A              
     e(  8 -  8) =     -4.53135  eV     1   --> A              
     e(  9 -  9) =      2.64118  eV     1   --> A              
     e( 10 - 10) =      3.12930  eV     1   --> A              
     e( 11 - 11) =      4.19817  eV     1   --> A              
     e( 12 - 12) =      5.26924  eV     1   --> A              
     e( 13 - 13) =      5.30051  eV     1   --> A              
     e( 14 - 14) =      6.91175  eV     1   --> A              
     e( 15 - 15) =      7.81323  eV     1   --> A              
     e( 16 - 16) =      9.06284  eV     1   --> A              
     e( 17 - 17) =      9.16539  eV     1   --> A              
     e( 18 - 18) =      9.23275  eV     1   --> A              
     e( 19 - 19) =      9.49004  eV     1   --> A              
     e( 20 - 20) =     10.23846  eV     1   --> A              

 **************************************************************************

 **************************************************************************

                    xk=(  -0.09524,   0.16496,   0.00000  )

     Band symmetry, C_1 (1)     point group:

     e(  1 -  1) =    -19.63842  eV     1   --> A              
     e(  2 -  2) =    -19.50569  eV     1   --> A              
     e(  3 -  3) =     -7.51334  eV     1   --> A              
     e(  4 -  4) =     -6.51871  eV     1   --> A              
     e(  5 -  5) =     -5.67021  eV     1   --> A              
     e(  6 -  6) =     -5.66430  eV     1   --> A              
     e(  7 -  7) =     -4.83258  eV     1   --> A              
     e(  8 -  8) =     -4.81208  eV     1   --> A              
     e(  9 -  9) =      2.90301  eV     1   --> A              
     e( 10 - 10) =      3.37569  eV     1   --> A              
     e( 11 - 11) =      4.46075  eV     1   --> A              
     e( 12 - 12) =      5.50043  eV     1   --> A              
     e( 13 - 13) =      5.51971  eV     1   --> A              
     e( 14 - 14) =      7.02578  eV     1   --> A              
     e( 15 - 15) =      7.96803  eV     1   --> A              
     e( 16 - 16) =      9.05570  eV     1   --> A              
     e( 17 - 17) =      9.06962  eV     1   --> A              
     e( 18 - 18) =      9.24876  eV     1   --> A              
     e( 19 - 19) =      9.33370  eV     1   --> A              
     e( 20 - 20) =     10.45348  eV     1   --> A              

 **************************************************************************

 **************************************************************************

                    xk=(  -0.11111,   0.19245,   0.00000  )

     Band symmetry, C_1 (1)     point group:

     e(  1 -  1) =    -19.45623  eV     1   --> A              
     e(  2 -  2) =    -19.32672  eV     1   --> A              
     e(  3 -  3) =     -7.26389  eV     1   --> A              
     e(  4 -  4) =     -6.31820  eV     1   --> A              
     e(  5 -  5) =     -6.17067  eV     1   --> A              
     e(  6 -  6) =     -6.14113  eV     1   --> A              
     e(  7 -  7) =     -5.14731  eV     1   --> A              
     e(  8 -  8) =     -5.12563  eV     1   --> A              
     e(  9 -  9) =      3.20879  eV     1   --> A              
     e( 10 - 10) =      3.66149  eV     1   --> A              
     e( 11 - 11) =      4.76911  eV     1   --> A              
     e( 12 - 12) =      5.70113  eV     1   --> A              
     e( 13 - 13) =      5.80825  eV     1   --> A              
     e( 14 - 14) =      7.12290  eV     1   --> A              
     e( 15 - 15) =      7.98064  eV     1   --> A              
     e( 16 - 16) =      8.88108  eV     1   --> A              
     e( 17 - 17) =      9.08793  eV     1   --> A              
     e( 18 - 18) =      9.31106  eV     1   --> A              
     e( 19 - 19) =      9.41598  eV     1   --> A              
     e( 20 - 20) =     10.67683  eV     1   --> A              

 **************************************************************************

 **************************************************************************

                    xk=(  -0.12698,   0.21994,   0.00000  )

     Band symmetry, C_1 (1)     point group:

     e(  1 -  1) =    -19.24952  eV     1   --> A              
     e(  2 -  2) =    -19.12396  eV     1   --> A              
     e(  3 -  3) =     -6.99282  eV     1   --> A              
     e(  4 -  4) =     -6.71434  eV     1   --> A              
     e(  5 -  5) =     -6.67641  eV     1   --> A              
     e(  6 -  6) =     -5.99718  eV     1   --> A              
     e(  7 -  7) =     -5.48881  eV     1   --> A              
     e(  8 -  8) =     -5.46518  eV     1   --> A              
     e(  9 -  9) =      3.55808  eV     1   --> A              
     e( 10 - 10) =      3.98147  eV     1   --> A              
     e( 11 - 11) =      5.12066  eV     1   --> A              
     e( 12 - 12) =      5.85921  eV     1   --> A              
     e( 13 - 13) =      6.12131  eV     1   --> A              
     e( 14 - 14) =      7.20692  eV     1   --> A              
     e( 15 - 15) =      7.71433  eV     1   --> A              
     e( 16 - 16) =      8.98369  eV     1   --> A              
     e( 17 - 17) =      9.15309  eV     1   --> A              
     e( 18 - 18) =      9.42843  eV     1   --> A              
     e( 19 - 19) =      9.56946  eV     1   --> A              
     e( 20 - 20) =     10.91013  eV     1   --> A              

 **************************************************************************

 **************************************************************************

                    xk=(  -0.14286,   0.24744,   0.00000  )

     Band symmetry, C_1 (1)     point group:

     e(  1 -  1) =    -19.02050  eV     1   --> A              
     e(  2 -  2) =    -18.89946  eV     1   --> A              
     e(  3 -  3) =     -7.23249  eV     1   --> A              
     e(  4 -  4) =     -7.23195  eV     1   --> A              
     e(  5 -  5) =     -6.64050  eV     1   --> A              
     e(  6 -  6) =     -5.84952  eV     1   --> A              
     e(  7 -  7) =     -5.83334  eV     1   --> A              
     e(  8 -  8) =     -5.69458  eV     1   --> A              
     e(  9 -  9) =      3.95018  eV     1   --> A              
     e( 10 - 10) =      4.32312  eV     1   --> A              
     e( 11 - 11) =      5.49918  eV     1   --> A              
     e( 12 - 12) =      5.91356  eV     1   --> A              
     e( 13 - 13) =      6.39953  eV     1   --> A              
     e( 14 - 14) =      7.33313  eV     1   --> A              
     e( 15 - 15) =      7.37440  eV     1   --> A              
     e( 16 - 16) =      9.26353  eV     1   --> A              
     e( 17 - 17) =      9.30403  eV     1   --> A              
     e( 18 - 18) =      9.59441  eV     1   --> A              
     e( 19 - 19) =      9.77182  eV     1   --> A              
     e( 20 - 20) =     11.15465  eV     1   --> A              

 **************************************************************************

 **************************************************************************

                    xk=(  -0.15873,   0.27493,   0.00000  )

     Band symmetry, C_1 (1)     point group:

     e(  1 -  1) =    -18.77124  eV     1   --> A              
     e(  2 -  2) =    -18.65534  eV     1   --> A              
     e(  3 -  3) =     -7.74257  eV     1   --> A              
     e(  4 -  4) =     -7.73903  eV     1   --> A              
     e(  5 -  5) =     -6.30957  eV     1   --> A              
     e(  6 -  6) =     -6.20965  eV     1   --> A              
     e(  7 -  7) =     -6.20068  eV     1   --> A              
     e(  8 -  8) =     -5.37471  eV     1   --> A              
     e(  9 -  9) =      4.38384  eV     1   --> A              
     e( 10 - 10) =      4.65158  eV     1   --> A              
     e( 11 - 11) =      5.66054  eV     1   --> A              
     e( 12 - 12) =      6.05666  eV     1   --> A              
     e( 13 - 13) =      6.41653  eV     1   --> A              
     e( 14 - 14) =      7.33951  eV     1   --> A              
     e( 15 - 15) =      7.56658  eV     1   --> A              
     e( 16 - 16) =      9.54585  eV     1   --> A              
     e( 17 - 17) =      9.61831  eV     1   --> A              
     e( 18 - 18) =      9.80287  eV     1   --> A              
     e( 19 - 19) =     10.01594  eV     1   --> A              
     e( 20 - 20) =     11.41351  eV     1   --> A              

 **************************************************************************

 **************************************************************************

                    xk=(  -0.17460,   0.30242,   0.00000  )

     Band symmetry, C_1 (1)     point group:

     e(  1 -  1) =    -18.50521  eV     1   --> A              
     e(  2 -  2) =    -18.39520  eV     1   --> A              
     e(  3 -  3) =     -8.23571  eV     1   --> A              
     e(  4 -  4) =     -8.23249  eV     1   --> A              
     e(  5 -  5) =     -6.60763  eV     1   --> A              
     e(  6 -  6) =     -6.58016  eV     1   --> A              
     e(  7 -  7) =     -5.91547  eV     1   --> A              
     e(  8 -  8) =     -5.02700  eV     1   --> A              
     e(  9 -  9) =      4.85031  eV     1   --> A              
     e( 10 - 10) =      4.85249  eV     1   --> A              
     e( 11 - 11) =      5.41327  eV     1   --> A              
     e( 12 - 12) =      6.24648  eV     1   --> A              
     e( 13 - 13) =      6.51637  eV     1   --> A              
     e( 14 - 14) =      7.68935  eV     1   --> A              
     e( 15 - 15) =      7.90656  eV     1   --> A              
     e( 16 - 16) =      9.85670  eV     1   --> A              
     e( 17 - 17) =     10.01596  eV     1   --> A              
     e( 18 - 18) =     10.04799  eV     1   --> A              
     e( 19 - 19) =     10.29157  eV     1   --> A              
     e( 20 - 20) =     11.69000  eV     1   --> A              

 **************************************************************************

 **************************************************************************

                    xk=(  -0.19047,   0.32992,   0.00000  )

     Band symmetry, C_1 (1)     point group:

     e(  1 -  1) =    -18.22652  eV     1   --> A              
     e(  2 -  2) =    -18.12322  eV     1   --> A              
     e(  3 -  3) =     -8.70110  eV     1   --> A              
     e(  4 -  4) =     -8.69995  eV     1   --> A              
     e(  5 -  5) =     -6.98869  eV     1   --> A              
     e(  6 -  6) =     -6.96137  eV     1   --> A              
     e(  7 -  7) =     -5.51542  eV     1   --> A              
     e(  8 -  8) =     -4.66150  eV     1   --> A              
     e(  9 -  9) =      4.72973  eV     1   --> A              
     e( 10 - 10) =      4.98446  eV     1   --> A              
     e( 11 - 11) =      5.42244  eV     1   --> A              
     e( 12 - 12) =      6.35068  eV     1   --> A              
     e( 13 - 13) =      7.05206  eV     1   --> A              
     e( 14 - 14) =      8.17724  eV     1   --> A              
     e( 15 - 15) =      8.31898  eV     1   --> A              
     e( 16 - 16) =     10.19480  eV     1   --> A              
     e( 17 - 17) =     10.33218  eV     1   --> A              
     e( 18 - 18) =     10.44343  eV     1   --> A              
     e( 19 - 19) =     10.58404  eV     1   --> A              
     e( 20 - 20) =     11.99178  eV     1   --> A              

 **************************************************************************

 **************************************************************************

                    xk=(  -0.20635,   0.35741,   0.00000  )

     Band symmetry, C_1 (1)     point group:

     e(  1 -  1) =    -17.94043  eV     1   --> A              
     e(  2 -  2) =    -17.84492  eV     1   --> A              
     e(  3 -  3) =     -9.13276  eV     1   --> A              
     e(  4 -  4) =     -9.13082  eV     1   --> A              
     e(  5 -  5) =     -7.36658  eV     1   --> A              
     e(  6 -  6) =     -7.33926  eV     1   --> A              
     e(  7 -  7) =     -5.09696  eV     1   --> A              
     e(  8 -  8) =     -4.28557  eV     1   --> A              
     e(  9 -  9) =      4.35192  eV     1   --> A              
     e( 10 - 10) =      4.58054  eV     1   --> A              
     e( 11 - 11) =      5.96369  eV     1   --> A              
     e( 12 - 12) =      6.74331  eV     1   --> A              
     e( 13 - 13) =      7.63694  eV     1   --> A              
     e( 14 - 14) =      8.73090  eV     1   --> A              
     e( 15 - 15) =      8.77158  eV     1   --> A              
     e( 16 - 16) =     10.48865  eV     1   --> A              
     e( 17 - 17) =     10.66873  eV     1   --> A              
     e( 18 - 18) =     10.86515  eV     1   --> A              
     e( 19 - 19) =     10.89700  eV     1   --> A              
     e( 20 - 20) =     12.32691  eV     1   --> A              

 **************************************************************************

 **************************************************************************

                    xk=(  -0.22222,   0.38490,   0.00000  )

     Band symmetry, C_1 (1)     point group:

     e(  1 -  1) =    -17.65384  eV     1   --> A              
     e(  2 -  2) =    -17.56727  eV     1   --> A              
     e(  3 -  3) =     -9.52097  eV     1   --> A              
     e(  4 -  4) =     -9.51452  eV     1   --> A              
     e(  5 -  5) =     -7.73655  eV     1   --> A              
     e(  6 -  6) =     -7.70954  eV     1   --> A              
     e(  7 -  7) =     -4.66793  eV     1   --> A              
     e(  8 -  8) =     -3.90806  eV     1   --> A              
     e(  9 -  9) =      3.90226  eV     1   --> A              
     e( 10 - 10) =      4.14910  eV     1   --> A              
     e( 11 - 11) =      6.56023  eV     1   --> A              
     e( 12 - 12) =      7.26759  eV     1   --> A              
     e( 13 - 13) =      8.26418  eV     1   --> A              
     e( 14 - 14) =      9.22589  eV     1   --> A              
     e( 15 - 15) =      9.33162  eV     1   --> A              
     e( 16 - 16) =     10.69341  eV     1   --> A              
     e( 17 - 17) =     11.01797  eV     1   --> A              
     e( 18 - 18) =     11.11606  eV     1   --> A              
     e( 19 - 19) =     11.35984  eV     1   --> A              
     e( 20 - 20) =     12.48391  eV     1   --> A              

 **************************************************************************

 **************************************************************************

                    xk=(  -0.23809,   0.41239,   0.00000  )

     Band symmetry, C_1 (1)     point group:

     e(  1 -  1) =    -17.37546  eV     1   --> A              
     e(  2 -  2) =    -17.29923  eV     1   --> A              
     e(  3 -  3) =     -9.85532  eV     1   --> A              
     e(  4 -  4) =     -9.84324  eV     1   --> A              
     e(  5 -  5) =     -8.09471  eV     1   --> A              
     e(  6 -  6) =     -8.06884  eV     1   --> A              
     e(  7 -  7) =     -4.23813  eV     1   --> A              
     e(  8 -  8) =     -3.54128  eV     1   --> A              
     e(  9 -  9) =      3.45925  eV     1   --> A              
     e( 10 - 10) =      3.72687  eV     1   --> A              
     e( 11 - 11) =      7.19439  eV     1   --> A              
     e( 12 - 12) =      7.85665  eV     1   --> A              
     e( 13 - 13) =      8.91864  eV     1   --> A              
     e( 14 - 14) =      9.60752  eV     1   --> A              
     e( 15 - 15) =      9.96766  eV     1   --> A              
     e( 16 - 16) =     10.80953  eV     1   --> A              
     e( 17 - 17) =     11.29945  eV     1   --> A              
     e( 18 - 18) =     11.34869  eV     1   --> A              
     e( 19 - 19) =     11.83110  eV     1   --> A              
     e( 20 - 20) =     12.68948  eV     1   --> A              

 **************************************************************************

 **************************************************************************

                    xk=(  -0.25397,   0.43989,   0.00000  )

     Band symmetry, C_1 (1)     point group:

     e(  1 -  1) =    -17.11553  eV     1   --> A              
     e(  2 -  2) =    -17.05093  eV     1   --> A              
     e(  3 -  3) =    -10.12505  eV     1   --> A              
     e(  4 -  4) =    -10.10552  eV     1   --> A              
     e(  5 -  5) =     -8.43687  eV     1   --> A              
     e(  6 -  6) =     -8.41279  eV     1   --> A              
     e(  7 -  7) =     -3.82014  eV     1   --> A              
     e(  8 -  8) =     -3.20082  eV     1   --> A              
     e(  9 -  9) =      3.05852  eV     1   --> A              
     e( 10 - 10) =      3.33447  eV     1   --> A              
     e( 11 - 11) =      7.85956  eV     1   --> A              
     e( 12 - 12) =      8.48103  eV     1   --> A              
     e( 13 - 13) =      9.46467  eV     1   --> A              
     e( 14 - 14) =      9.89423  eV     1   --> A              
     e( 15 - 15) =     10.62056  eV     1   --> A              
     e( 16 - 16) =     10.98433  eV     1   --> A              
     e( 17 - 17) =     11.39744  eV     1   --> A              
     e( 18 - 18) =     11.68757  eV     1   --> A              
     e( 19 - 19) =     12.28426  eV     1   --> A              
     e( 20 - 20) =     13.08579  eV     1   --> A              

 **************************************************************************

 **************************************************************************

                    xk=(  -0.26984,   0.46738,   0.00000  )

     Band symmetry, C_1 (1)     point group:

     e(  1 -  1) =    -16.88589  eV     1   --> A              
     e(  2 -  2) =    -16.83419  eV     1   --> A              
     e(  3 -  3) =    -10.31977  eV     1   --> A              
     e(  4 -  4) =    -10.29106  eV     1   --> A              
     e(  5 -  5) =     -8.75970  eV     1   --> A              
     e(  6 -  6) =     -8.73800  eV     1   --> A              
     e(  7 -  7) =     -3.43039  eV     1   --> A              
     e(  8 -  8) =     -2.90622  eV     1   --> A              
     e(  9 -  9) =      2.72383  eV     1   --> A              
     e( 10 - 10) =      2.98881  eV     1   --> A              
     e( 11 - 11) =      8.54619  eV     1   --> A              
     e( 12 - 12) =      9.11382  eV     1   --> A              
     e( 13 - 13) =      9.46428  eV     1   --> A              
     e( 14 - 14) =     10.50435  eV     1   --> A              
     e( 15 - 15) =     11.20583  eV     1   --> A              
     e( 16 - 16) =     11.27646  eV     1   --> A              
     e( 17 - 17) =     11.44440  eV     1   --> A              
     e( 18 - 18) =     12.07791  eV     1   --> A              
     e( 19 - 19) =     12.66227  eV     1   --> A              
     e( 20 - 20) =     13.46370  eV     1   --> A              

 **************************************************************************

 **************************************************************************

                    xk=(  -0.28571,   0.49487,   0.00000  )

     Band symmetry, C_1 (1)     point group:

     e(  1 -  1) =    -16.69807  eV     1   --> A              
     e(  2 -  2) =    -16.66005  eV     1   --> A              
     e(  3 -  3) =    -10.43198  eV     1   --> A              
     e(  4 -  4) =    -10.39151  eV     1   --> A              
     e(  5 -  5) =     -9.05735  eV     1   --> A              
     e(  6 -  6) =     -9.03964  eV     1   --> A              
     e(  7 -  7) =     -3.08738  eV     1   --> A              
     e(  8 -  8) =     -2.67760  eV     1   --> A              
     e(  9 -  9) =      2.47350  eV     1   --> A              
     e( 10 - 10) =      2.70372  eV     1   --> A              
     e( 11 - 11) =      9.23550  eV     1   --> A              
     e( 12 - 12) =      9.25590  eV     1   --> A              
     e( 13 - 13) =      9.71348  eV     1   --> A              
     e( 14 - 14) =     11.19264  eV     1   --> A              
     e( 15 - 15) =     11.23540  eV     1   --> A              
     e( 16 - 16) =     11.61014  eV     1   --> A              
     e( 17 - 17) =     11.86115  eV     1   --> A              
     e( 18 - 18) =     12.53857  eV     1   --> A              
     e( 19 - 19) =     12.98985  eV     1   --> A              
     e( 20 - 20) =     13.81031  eV     1   --> A              

 **************************************************************************

 **************************************************************************

                    xk=(  -0.30158,   0.52237,   0.00000  )

     Band symmetry, C_1 (1)     point group:

     e(  1 -  1) =    -16.56130  eV     1   --> A              
     e(  2 -  2) =    -16.53716  eV     1   --> A              
     e(  3 -  3) =    -10.46121  eV     1   --> A              
     e(  4 -  4) =    -10.40771  eV     1   --> A              
     e(  5 -  5) =     -9.32116  eV     1   --> A              
     e(  6 -  6) =     -9.30915  eV     1   --> A              
     e(  7 -  7) =     -2.81092  eV     1   --> A              
     e(  8 -  8) =     -2.53290  eV     1   --> A              
     e(  9 -  9) =      2.31893  eV     1   --> A              
     e( 10 - 10) =      2.48967  eV     1   --> A              
     e( 11 - 11) =      9.04384  eV     1   --> A              
     e( 12 - 12) =      9.89485  eV     1   --> A              
     e( 13 - 13) =     10.20582  eV     1   --> A              
     e( 14 - 14) =     11.08500  eV     1   --> A              
     e( 15 - 15) =     11.54308  eV     1   --> A              
     e( 16 - 16) =     12.22536  eV     1   --> A              
     e( 17 - 17) =     12.24215  eV     1   --> A              
     e( 18 - 18) =     12.97690  eV     1   --> A              
     e( 19 - 19) =     13.43772  eV     1   --> A              
     e( 20 - 20) =     14.03800  eV     1   --> A              

 **************************************************************************

 **************************************************************************

                    xk=(  -0.31746,   0.54986,   0.00000  )

     Band symmetry, C_1 (1)     point group:

     e(  1 -  1) =    -16.47951  eV     1   --> A              
     e(  2 -  2) =    -16.46819  eV     1   --> A              
     e(  3 -  3) =    -10.42734  eV     1   --> A              
     e(  4 -  4) =    -10.35926  eV     1   --> A              
     e(  5 -  5) =     -9.52781  eV     1   --> A              
     e(  6 -  6) =     -9.52381  eV     1   --> A              
     e(  7 -  7) =     -2.61578  eV     1   --> A              
     e(  8 -  8) =     -2.47897  eV     1   --> A              
     e(  9 -  9) =      2.25867  eV     1   --> A              
     e( 10 - 10) =      2.34993  eV     1   --> A              
     e( 11 - 11) =      8.89468  eV     1   --> A              
     e( 12 - 12) =     10.44310  eV     1   --> A              
     e( 13 - 13) =     10.49723  eV     1   --> A              
     e( 14 - 14) =     10.92267  eV     1   --> A              
     e( 15 - 15) =     11.67062  eV     1   --> A              
     e( 16 - 16) =     12.54418  eV     1   --> A              
     e( 17 - 17) =     12.81593  eV     1   --> A              
     e( 18 - 18) =     13.30677  eV     1   --> A              
     e( 19 - 19) =     13.87062  eV     1   --> A              
     e( 20 - 20) =     14.12884  eV     1   --> A              

 **************************************************************************

 **************************************************************************

                    xk=(  -0.33333,   0.57735,   0.00000  )

     point group C_3 (3)    
     there are  3 classes
     the character table:

       E     C3    C3^2 
A      1.00  1.00  1.00
E      1.00 -0.50 -0.50
E*     1.00 -0.50 -0.50
     imaginary part
A      0.00  0.00  0.00
E      0.00  0.87 -0.87
E*     0.00 -0.87  0.87

     the symmetry operations in each class and the name of the first element:

     E        1
                                                                 
     C3       2
                                                                 
     C3^2     3
                                                                 

     Band symmetry, C_3 (3)     point group:

     e(  1 -  1) =    -16.45066  eV     1   --> E*             
     e(  2 -  2) =    -16.45036  eV     1   --> A              
     e(  3 -  3) =    -10.39326  eV     1   --> E              
     e(  4 -  4) =    -10.31697  eV     1   --> E              
     e(  5 -  5) =     -9.61885  eV     1   --> A              
     e(  6 -  6) =     -9.61859  eV     1   --> E*             
     e(  7 -  7) =     -2.50880  eV     1   -->   ?
     e(  8 -  8) =     -2.50850  eV     1   -->   ?
     e(  9 -  9) =      2.27568  eV     1   -->   ?
     e( 10 - 10) =      2.27585  eV     1   -->   ?
     e( 11 - 11) =      8.84011  eV     1   --> E              
     e( 12 - 12) =     10.57485  eV     1   --> E              
     e( 13 - 13) =     10.75886  eV     1   -->   ?
     e( 14 - 14) =     10.75909  eV     1   -->   ?
     e( 15 - 15) =     11.72995  eV     1   --> E              
     e( 16 - 16) =     12.77145  eV     1   -->   ?
     e( 17 - 17) =     12.77205  eV     1   -->   ?
     e( 18 - 18) =     13.88880  eV     1   -->   ?
     e( 19 - 19) =     13.88929  eV     1   -->   ?
     e( 20 - 20) =     14.11104  eV     1   --> E              

 **************************************************************************

 **************************************************************************

                    xk=(  -0.30303,   0.57735,   0.00000  )

     point group C_1 (1)    
     there are  1 classes
     the character table:

       E    
A      1.00

     the symmetry operations in each class and the name of the first element:

     E        1
                                                                 

     Band symmetry, C_1 (1)     point group:

     e(  1 -  1) =    -16.47317  eV     1   --> A              
     e(  2 -  2) =    -16.46429  eV     1   --> A              
     e(  3 -  3) =    -10.44178  eV     1   --> A              
     e(  4 -  4) =    -10.37356  eV     1   --> A              
     e(  5 -  5) =     -9.52597  eV     1   --> A              
     e(  6 -  6) =     -9.51497  eV     1   --> A              
     e(  7 -  7) =     -2.59679  eV     1   --> A              
     e(  8 -  8) =     -2.48032  eV     1   --> A              
     e(  9 -  9) =      2.24804  eV     1   --> A              
     e( 10 - 10) =      2.33930  eV     1   --> A              
     e( 11 - 11) =      8.89357  eV     1   --> A              
     e( 12 - 12) =     10.50720  eV     1   --> A              
     e( 13 - 13) =     10.60533  eV     1   --> A              
     e( 14 - 14) =     10.81365  eV     1   --> A              
     e( 15 - 15) =     11.62646  eV     1   --> A              
     e( 16 - 16) =     12.64279  eV     1   --> A              
     e( 17 - 17) =     12.80083  eV     1   --> A              
     e( 18 - 18) =     13.60506  eV     1   --> A              
     e( 19 - 19) =     13.62728  eV     1   --> A              
     e( 20 - 20) =     14.06372  eV     1   --> A              

 **************************************************************************

 **************************************************************************

                    xk=(  -0.27272,   0.57735,   0.00000  )

     Band symmetry, C_1 (1)     point group:

     e(  1 -  1) =    -16.52512  eV     1   --> A              
     e(  2 -  2) =    -16.50907  eV     1   --> A              
     e(  3 -  3) =    -10.56205  eV     1   --> A              
     e(  4 -  4) =    -10.50599  eV     1   --> A              
     e(  5 -  5) =     -9.27995  eV     1   --> A              
     e(  6 -  6) =     -9.25627  eV     1   --> A              
     e(  7 -  7) =     -2.72429  eV     1   --> A              
     e(  8 -  8) =     -2.51072  eV     1   --> A              
     e(  9 -  9) =      2.23962  eV     1   --> A              
     e( 10 - 10) =      2.42266  eV     1   --> A              
     e( 11 - 11) =      9.05510  eV     1   --> A              
     e( 12 - 12) =     10.26169  eV     1   --> A              
     e( 13 - 13) =     10.54720  eV     1   --> A              
     e( 14 - 14) =     10.71361  eV     1   --> A              
     e( 15 - 15) =     11.33355  eV     1   --> A              
     e( 16 - 16) =     12.45845  eV     1   --> A              
     e( 17 - 17) =     12.61310  eV     1   --> A              
     e( 18 - 18) =     13.25094  eV     1   --> A              
     e( 19 - 19) =     13.33228  eV     1   --> A              
     e( 20 - 20) =     13.64843  eV     1   --> A              

 **************************************************************************

 **************************************************************************

                    xk=(  -0.24242,   0.57735,   0.00000  )

     Band symmetry, C_1 (1)     point group:

     e(  1 -  1) =    -16.59593  eV     1   --> A              
     e(  2 -  2) =    -16.57456  eV     1   --> A              
     e(  3 -  3) =    -10.70473  eV     1   --> A              
     e(  4 -  4) =    -10.65671  eV     1   --> A              
     e(  5 -  5) =     -8.94629  eV     1   --> A              
     e(  6 -  6) =     -8.91505  eV     1   --> A              
     e(  7 -  7) =     -2.87239  eV     1   --> A              
     e(  8 -  8) =     -2.58119  eV     1   --> A              
     e(  9 -  9) =      2.23230  eV     1   --> A              
     e( 10 - 10) =      2.50562  eV     1   --> A              
     e( 11 - 11) =      9.31583  eV     1   --> A              
     e( 12 - 12) =      9.93335  eV     1   --> A              
     e( 13 - 13) =     10.51099  eV     1   --> A              
     e( 14 - 14) =     10.51427  eV     1   --> A              
     e( 15 - 15) =     10.95439  eV     1   --> A              
     e( 16 - 16) =     12.16276  eV     1   --> A              
     e( 17 - 17) =     12.26029  eV     1   --> A              
     e( 18 - 18) =     12.90210  eV     1   --> A              
     e( 19 - 19) =     13.04790  eV     1   --> A              
     e( 20 - 20) =     13.31012  eV     1   --> A              

 **************************************************************************

 **************************************************************************

                    xk=(  -0.21212,   0.57735,   0.00000  )

     Band symmetry, C_1 (1)     point group:

     e(  1 -  1) =    -16.67638  eV     1   --> A              
     e(  2 -  2) =    -16.65115  eV     1   --> A              
     e(  3 -  3) =    -10.84486  eV     1   --> A              
     e(  4 -  4) =    -10.80236  eV     1   --> A              
     e(  5 -  5) =     -8.56690  eV     1   --> A              
     e(  6 -  6) =     -8.53223  eV     1   --> A              
     e(  7 -  7) =     -3.02652  eV     1   --> A              
     e(  8 -  8) =     -2.67473  eV     1   --> A              
     e(  9 -  9) =      2.21567  eV     1   --> A              
     e( 10 - 10) =      2.57573  eV     1   --> A              
     e( 11 - 11) =      9.54713  eV     1   --> A              
     e( 12 - 12) =      9.64958  eV     1   --> A              
     e( 13 - 13) =     10.17672  eV     1   --> A              
     e( 14 - 14) =     10.47320  eV     1   --> A              
     e( 15 - 15) =     10.61191  eV     1   --> A              
     e( 16 - 16) =     11.83362  eV     1   --> A              
     e( 17 - 17) =     11.83451  eV     1   --> A              
     e( 18 - 18) =     12.59366  eV     1   --> A              
     e( 19 - 19) =     12.71110  eV     1   --> A              
     e( 20 - 20) =     13.08185  eV     1   --> A              

 **************************************************************************

 **************************************************************************

                    xk=(  -0.18182,   0.57735,   0.00000  )

     Band symmetry, C_1 (1)     point group:

     e(  1 -  1) =    -16.75886  eV     1   --> A              
     e(  2 -  2) =    -16.73067  eV     1   --> A              
     e(  3 -  3) =    -10.97271  eV     1   --> A              
     e(  4 -  4) =    -10.93405  eV     1   --> A              
     e(  5 -  5) =     -8.16921  eV     1   --> A              
     e(  6 -  6) =     -8.13352  eV     1   --> A              
     e(  7 -  7) =     -3.17501  eV     1   --> A              
     e(  8 -  8) =     -2.77674  eV     1   --> A              
     e(  9 -  9) =      2.18739  eV     1   --> A              
     e( 10 - 10) =      2.62773  eV     1   --> A              
     e( 11 - 11) =      9.11366  eV     1   --> A              
     e( 12 - 12) =      9.68108  eV     1   --> A              
     e( 13 - 13) =     10.00645  eV     1   --> A              
     e( 14 - 14) =     10.37881  eV     1   --> A              
     e( 15 - 15) =     10.42649  eV     1   --> A              
     e( 16 - 16) =     11.41537  eV     1   --> A              
     e( 17 - 17) =     11.56064  eV     1   --> A              
     e( 18 - 18) =     12.32861  eV     1   --> A              
     e( 19 - 19) =     12.40606  eV     1   --> A              
     e( 20 - 20) =     12.88815  eV     1   --> A              

 **************************************************************************

 **************************************************************************

                    xk=(  -0.15151,   0.57735,   0.00000  )

     Band symmetry, C_1 (1)     point group:

     e(  1 -  1) =    -16.83742  eV     1   --> A              
     e(  2 -  2) =    -16.80702  eV     1   --> A              
     e(  3 -  3) =    -11.08407  eV     1   --> A              
     e(  4 -  4) =    -11.04758  eV     1   --> A              
     e(  5 -  5) =     -7.77707  eV     1   --> A              
     e(  6 -  6) =     -7.74199  eV     1   --> A              
     e(  7 -  7) =     -3.31048  eV     1   --> A              
     e(  8 -  8) =     -2.87699  eV     1   --> A              
     e(  9 -  9) =      2.15040  eV     1   --> A              
     e( 10 - 10) =      2.66197  eV     1   --> A              
     e( 11 - 11) =      8.65368  eV     1   --> A              
     e( 12 - 12) =      9.13169  eV     1   --> A              
     e( 13 - 13) =     10.17033  eV     1   --> A              
     e( 14 - 14) =     10.33540  eV     1   --> A              
     e( 15 - 15) =     10.37102  eV     1   --> A              
     e( 16 - 16) =     11.05576  eV     1   --> A              
     e( 17 - 17) =     11.40669  eV     1   --> A              
     e( 18 - 18) =     12.11017  eV     1   --> A              
     e( 19 - 19) =     12.15320  eV     1   --> A              
     e( 20 - 20) =     12.71679  eV     1   --> A              

 **************************************************************************

 **************************************************************************

                    xk=(  -0.12121,   0.57735,   0.00000  )

     Band symmetry, C_1 (1)     point group:

     e(  1 -  1) =    -16.90718  eV     1   --> A              
     e(  2 -  2) =    -16.87534  eV     1   --> A              
     e(  3 -  3) =    -11.17649  eV     1   --> A              
     e(  4 -  4) =    -11.14193  eV     1   --> A              
     e(  5 -  5) =     -7.41228  eV     1   --> A              
     e(  6 -  6) =     -7.37805  eV     1   --> A              
     e(  7 -  7) =     -3.42739  eV     1   --> A              
     e(  8 -  8) =     -2.96741  eV     1   --> A              
     e(  9 -  9) =      2.11018  eV     1   --> A              
     e( 10 - 10) =      2.68125  eV     1   --> A              
     e( 11 - 11) =      8.20155  eV     1   --> A              
     e( 12 - 12) =      8.60267  eV     1   --> A              
     e( 13 - 13) =     10.03725  eV     1   --> A              
     e( 14 - 14) =     10.31184  eV     1   --> A              
     e( 15 - 15) =     10.46163  eV     1   --> A              
     e( 16 - 16) =     10.77211  eV     1   --> A              
     e( 17 - 17) =     11.41640  eV     1   --> A              
     e( 18 - 18) =     11.94756  eV     1   --> A              
     e( 19 - 19) =     11.95031  eV     1   --> A              
     e( 20 - 20) =     12.57235  eV     1   --> A              

 **************************************************************************

 **************************************************************************

                    xk=(  -0.09091,   0.57735,   0.00000  )

     Band symmetry, C_1 (1)     point group:

     e(  1 -  1) =    -16.96451  eV     1   --> A              
     e(  2 -  2) =    -16.93165  eV     1   --> A              
     e(  3 -  3) =    -11.24872  eV     1   --> A              
     e(  4 -  4) =    -11.21588  eV     1   --> A              
     e(  5 -  5) =     -7.09642  eV     1   --> A              
     e(  6 -  6) =     -7.06351  eV     1   --> A              
     e(  7 -  7) =     -3.52159  eV     1   --> A              
     e(  8 -  8) =     -3.04309  eV     1   --> A              
     e(  9 -  9) =      2.07243  eV     1   --> A              
     e( 10 - 10) =      2.69042  eV     1   --> A              
     e( 11 - 11) =      7.79744  eV     1   --> A              
     e( 12 - 12) =      8.14271  eV     1   --> A              
     e( 13 - 13) =      9.92402  eV     1   --> A              
     e( 14 - 14) =     10.25627  eV     1   --> A              
     e( 15 - 15) =     10.45309  eV     1   --> A              
     e( 16 - 16) =     10.56267  eV     1   --> A              
     e( 17 - 17) =     11.49609  eV     1   --> A              
     e( 18 - 18) =     11.79449  eV     1   --> A              
     e( 19 - 19) =     11.86657  eV     1   --> A              
     e( 20 - 20) =     12.45819  eV     1   --> A              

 **************************************************************************

 **************************************************************************

                    xk=(  -0.06061,   0.57735,   0.00000  )

     Band symmetry, C_1 (1)     point group:

     e(  1 -  1) =    -17.00714  eV     1   --> A              
     e(  2 -  2) =    -16.97370  eV     1   --> A              
     e(  3 -  3) =    -11.30076  eV     1   --> A              
     e(  4 -  4) =    -11.26915  eV     1   --> A              
     e(  5 -  5) =     -6.85108  eV     1   --> A              
     e(  6 -  6) =     -6.81952  eV     1   --> A              
     e(  7 -  7) =     -3.59102  eV     1   --> A              
     e(  8 -  8) =     -3.09888  eV     1   --> A              
     e(  9 -  9) =      2.04181  eV     1   --> A              
     e( 10 - 10) =      2.69340  eV     1   --> A              
     e( 11 - 11) =      7.47821  eV     1   --> A              
     e( 12 - 12) =      7.78701  eV     1   --> A              
     e( 13 - 13) =      9.84122  eV     1   --> A              
     e( 14 - 14) =     10.21044  eV     1   --> A              
     e( 15 - 15) =     10.40153  eV     1   --> A              
     e( 16 - 16) =     10.42039  eV     1   --> A              
     e( 17 - 17) =     11.50744  eV     1   --> A              
     e( 18 - 18) =     11.68400  eV     1   --> A              
     e( 19 - 19) =     11.87876  eV     1   --> A              
     e( 20 - 20) =     12.37578  eV     1   --> A              

 **************************************************************************

 **************************************************************************

                    xk=(  -0.03030,   0.57735,   0.00000  )

     Band symmetry, C_1 (1)     point group:

     e(  1 -  1) =    -17.03332  eV     1   --> A              
     e(  2 -  2) =    -16.99950  eV     1   --> A              
     e(  3 -  3) =    -11.33208  eV     1   --> A              
     e(  4 -  4) =    -11.30122  eV     1   --> A              
     e(  5 -  5) =     -6.69484  eV     1   --> A              
     e(  6 -  6) =     -6.66424  eV     1   --> A              
     e(  7 -  7) =     -3.63299  eV     1   --> A              
     e(  8 -  8) =     -3.13342  eV     1   --> A              
     e(  9 -  9) =      2.02198  eV     1   --> A              
     e( 10 - 10) =      2.69364  eV     1   --> A              
     e( 11 - 11) =      7.27380  eV     1   --> A              
     e( 12 - 12) =      7.56216  eV     1   --> A              
     e( 13 - 13) =      9.79095  eV     1   --> A              
     e( 14 - 14) =     10.17980  eV     1   --> A              
     e( 15 - 15) =     10.33868  eV     1   --> A              
     e( 16 - 16) =     10.35955  eV     1   --> A              
     e( 17 - 17) =     11.48177  eV     1   --> A              
     e( 18 - 18) =     11.61798  eV     1   --> A              
     e( 19 - 19) =     11.91259  eV     1   --> A              
     e( 20 - 20) =     12.32611  eV     1   --> A              

 **************************************************************************

 **************************************************************************

                    xk=(   0.00000,   0.57735,   0.00000  )

     point group C_s (m)    
     there are  2 classes
     the character table:

       E     s    
A'     1.00  1.00
A''    1.00 -1.00

     the symmetry operations in each class and the name of the first element:

     E        1
                                                                 
     s        2
                                                                 

     Band symmetry, C_s (m)     point group:

     e(  1 -  1) =    -17.04232  eV     1   --> A'             
     e(  2 -  2) =    -17.00844  eV     1   --> A'             
     e(  3 -  3) =    -11.34260  eV     1   --> A'             
     e(  4 -  4) =    -11.31196  eV     1   --> A'             
     e(  5 -  5) =     -6.64200  eV     1   --> A''            
     e(  6 -  6) =     -6.61139  eV     1   --> A''            
     e(  7 -  7) =     -3.64768  eV     1   --> A'             
     e(  8 -  8) =     -3.14540  eV     1   --> A'             
     e(  9 -  9) =      2.01496  eV     1   --> A'             
     e( 10 - 10) =      2.69310  eV     1   --> A'             
     e( 11 - 11) =      7.20343  eV     1   --> A'             
     e( 12 - 12) =      7.48520  eV     1   --> A'             
     e( 13 - 13) =      9.77402  eV     1   --> A'             
     e( 14 - 14) =     10.16872  eV     1   --> A'             
     e( 15 - 15) =     10.31221  eV     1   --> A'             
     e( 16 - 16) =     10.34416  eV     1   --> A'             
     e( 17 - 17) =     11.46934  eV     1   --> A'             
     e( 18 - 18) =     11.59600  eV     1   --> A'             
     e( 19 - 19) =     11.92518  eV     1   --> A'             
     e( 20 - 20) =     12.30940  eV     1   --> A'             

 **************************************************************************

 **************************************************************************

                    xk=(   0.00000,   0.54528,   0.00000  )

     Band symmetry, C_s (m)     point group:

     e(  1 -  1) =    -17.08991  eV     1   --> A'             
     e(  2 -  2) =    -17.04939  eV     1   --> A'             
     e(  3 -  3) =    -11.27457  eV     1   --> A'             
     e(  4 -  4) =    -11.24243  eV     1   --> A'             
     e(  5 -  5) =     -6.62593  eV     1   --> A''            
     e(  6 -  6) =     -6.59539  eV     1   --> A''            
     e(  7 -  7) =     -3.73138  eV     1   --> A'             
     e(  8 -  8) =     -3.20029  eV     1   --> A'             
     e(  9 -  9) =      2.10926  eV     1   --> A'             
     e( 10 - 10) =      2.77918  eV     1   --> A'             
     e( 11 - 11) =      7.15663  eV     1   --> A'             
     e( 12 - 12) =      7.47973  eV     1   --> A'             
     e( 13 - 13) =      9.33642  eV     1   --> A'             
     e( 14 - 14) =      9.57059  eV     1   --> A'             
     e( 15 - 15) =     10.57016  eV     1   --> A'             
     e( 16 - 16) =     10.86737  eV     1   --> A'             
     e( 17 - 17) =     10.92109  eV     1   --> A'             
     e( 18 - 18) =     11.60849  eV     1   --> A'             
     e( 19 - 19) =     11.95011  eV     1   --> A'             
     e( 20 - 20) =     12.44245  eV     1   --> A'             

 **************************************************************************

 **************************************************************************

                    xk=(   0.00000,   0.51320,   0.00000  )

     Band symmetry, C_s (m)     point group:

     e(  1 -  1) =    -17.22312  eV     1   --> A'             
     e(  2 -  2) =    -17.16856  eV     1   --> A'             
     e(  3 -  3) =    -11.07602  eV     1   --> A'             
     e(  4 -  4) =    -11.04048  eV     1   --> A'             
     e(  5 -  5) =     -6.57823  eV     1   --> A''            
     e(  6 -  6) =     -6.54797  eV     1   --> A''            
     e(  7 -  7) =     -3.96006  eV     1   --> A'             
     e(  8 -  8) =     -3.36116  eV     1   --> A'             
     e(  9 -  9) =      2.37767  eV     1   --> A'             
     e( 10 - 10) =      3.02225  eV     1   --> A'             
     e( 11 - 11) =      7.00271  eV     1   --> A'             
     e( 12 - 12) =      7.45481  eV     1   --> A'             
     e( 13 - 13) =      8.79321  eV     1   --> A'             
     e( 14 - 14) =      8.91387  eV     1   --> A'             
     e( 15 - 15) =      9.93101  eV     1   --> A'             
     e( 16 - 16) =     10.78981  eV     1   --> A'             
     e( 17 - 17) =     10.92262  eV     1   --> A'             
     e( 18 - 18) =     11.60234  eV     1   --> A'             
     e( 19 - 19) =     12.07689  eV     1   --> A'             
     e( 20 - 20) =     12.63278  eV     1   --> A'             

 **************************************************************************

 **************************************************************************

                    xk=(   0.00000,   0.48113,   0.00000  )

     Band symmetry, C_s (m)     point group:

     e(  1 -  1) =    -17.42141  eV     1   --> A'             
     e(  2 -  2) =    -17.35245  eV     1   --> A'             
     e(  3 -  3) =    -10.76360  eV     1   --> A'             
     e(  4 -  4) =    -10.72503  eV     1   --> A'             
     e(  5 -  5) =     -6.49956  eV     1   --> A''            
     e(  6 -  6) =     -6.46958  eV     1   --> A''            
     e(  7 -  7) =     -4.28614  eV     1   --> A'             
     e(  8 -  8) =     -3.61165  eV     1   --> A'             
     e(  9 -  9) =      2.78478  eV     1   --> A'             
     e( 10 - 10) =      3.38589  eV     1   --> A'             
     e( 11 - 11) =      6.71650  eV     1   --> A'             
     e( 12 - 12) =      7.36740  eV     1   --> A'             
     e( 13 - 13) =      8.33248  eV     1   --> A'             
     e( 14 - 14) =      8.37565  eV     1   --> A'             
     e( 15 - 15) =      9.23357  eV     1   --> A'             
     e( 16 - 16) =     10.22681  eV     1   --> A'             
     e( 17 - 17) =     10.40944  eV     1   --> A'             
     e( 18 - 18) =     11.83499  eV     1   --> A'             
     e( 19 - 19) =     12.21058  eV     1   --> A'             
     e( 20 - 20) =     12.84791  eV     1   --> A'             

 **************************************************************************

 **************************************************************************

                    xk=(   0.00000,   0.44905,   0.00000  )

     Band symmetry, C_s (m)     point group:

     e(  1 -  1) =    -17.66331  eV     1   --> A'             
     e(  2 -  2) =    -17.58171  eV     1   --> A'             
     e(  3 -  3) =    -10.35844  eV     1   --> A'             
     e(  4 -  4) =    -10.31884  eV     1   --> A'             
     e(  5 -  5) =     -6.39071  eV     1   --> A''            
     e(  6 -  6) =     -6.36091  eV     1   --> A''            
     e(  7 -  7) =     -4.66770  eV     1   --> A'             
     e(  8 -  8) =     -3.92521  eV     1   --> A'             
     e(  9 -  9) =      3.28692  eV     1   --> A'             
     e( 10 - 10) =      3.82718  eV     1   --> A'             
     e( 11 - 11) =      6.30842  eV     1   --> A'             
     e( 12 - 12) =      7.11447  eV     1   --> A'             
     e( 13 - 13) =      7.97908  eV     1   --> A'             
     e( 14 - 14) =      8.01565  eV     1   --> A'             
     e( 15 - 15) =      8.62970  eV     1   --> A'             
     e( 16 - 16) =      9.57352  eV     1   --> A'             
     e( 17 - 17) =      9.95938  eV     1   --> A'             
     e( 18 - 18) =     11.39068  eV     1   --> A'             
     e( 19 - 19) =     12.09277  eV     1   --> A'             
     e( 20 - 20) =     13.13896  eV     1   --> A'             

 **************************************************************************

 **************************************************************************

                    xk=(   0.00000,   0.41698,   0.00000  )

     Band symmetry, C_s (m)     point group:

     e(  1 -  1) =    -17.93013  eV     1   --> A'             
     e(  2 -  2) =    -17.83789  eV     1   --> A'             
     e(  3 -  3) =     -9.88221  eV     1   --> A'             
     e(  4 -  4) =     -9.84311  eV     1   --> A'             
     e(  5 -  5) =     -6.25355  eV     1   --> A''            
     e(  6 -  6) =     -6.22396  eV     1   --> A''            
     e(  7 -  7) =     -5.07371  eV     1   --> A'             
     e(  8 -  8) =     -4.27427  eV     1   --> A'             
     e(  9 -  9) =      3.83672  eV     1   --> A'             
     e( 10 - 10) =      4.30163  eV     1   --> A'             
     e( 11 - 11) =      5.83252  eV     1   --> A'             
     e( 12 - 12) =      6.70461  eV     1   --> A'             
     e( 13 - 13) =      7.57024  eV     1   --> A'             
     e( 14 - 14) =      7.86422  eV     1   --> A'             
     e( 15 - 15) =      8.20001  eV     1   --> A'             
     e( 16 - 16) =      8.98069  eV     1   --> A'             
     e( 17 - 17) =      9.54374  eV     1   --> A'             
     e( 18 - 18) =     10.94113  eV     1   --> A'             
     e( 19 - 19) =     11.58265  eV     1   --> A'             
     e( 20 - 20) =     13.49909  eV     1   --> A'             

 **************************************************************************

 **************************************************************************

                    xk=(   0.00000,   0.38490,   0.00000  )

     Band symmetry, C_s (m)     point group:

     e(  1 -  1) =    -18.20678  eV     1   --> A'             
     e(  2 -  2) =    -18.10571  eV     1   --> A'             
     e(  3 -  3) =     -9.35192  eV     1   --> A'             
     e(  4 -  4) =     -9.31474  eV     1   --> A'             
     e(  5 -  5) =     -6.08927  eV     1   --> A''            
     e(  6 -  6) =     -6.06004  eV     1   --> A''            
     e(  7 -  7) =     -5.48323  eV     1   --> A'             
     e(  8 -  8) =     -4.63715  eV     1   --> A'             
     e(  9 -  9) =      4.37024  eV     1   --> A'             
     e( 10 - 10) =      4.75421  eV     1   --> A'             
     e( 11 - 11) =      5.34282  eV     1   --> A'             
     e( 12 - 12) =      6.31623  eV     1   --> A'             
     e( 13 - 13) =      7.05946  eV     1   --> A'             
     e( 14 - 14) =      7.77257  eV     1   --> A'             
     e( 15 - 15) =      7.91126  eV     1   --> A'             
     e( 16 - 16) =      8.49806  eV     1   --> A'             
     e( 17 - 17) =      9.20507  eV     1   --> A'             
     e( 18 - 18) =     10.52434  eV     1   --> A'             
     e( 19 - 19) =     11.05719  eV     1   --> A'             
     e( 20 - 20) =     13.32218  eV     1   --> A'             

 **************************************************************************

 **************************************************************************

                    xk=(   0.00000,   0.35283,   0.00000  )

     Band symmetry, C_s (m)     point group:

     e(  1 -  1) =    -18.48224  eV     1   --> A'             
     e(  2 -  2) =    -18.37373  eV     1   --> A'             
     e(  3 -  3) =     -8.78337  eV     1   --> A'             
     e(  4 -  4) =     -8.74896  eV     1   --> A'             
     e(  5 -  5) =     -5.90067  eV     1   --> A''            
     e(  6 -  6) =     -5.88259  eV     1   --> A'             
     e(  7 -  7) =     -5.87198  eV     1   --> A''            
     e(  8 -  8) =     -4.99833  eV     1   --> A'             
     e(  9 -  9) =      4.70930  eV     1   --> A'             
     e( 10 - 10) =      4.83620  eV     1   --> A'             
     e( 11 - 11) =      5.17439  eV     1   --> A'             
     e( 12 - 12) =      6.15368  eV     1   --> A'             
     e( 13 - 13) =      6.54562  eV     1   --> A'             
     e( 14 - 14) =      7.55983  eV     1   --> A'             
     e( 15 - 15) =      7.65838  eV     1   --> A'             
     e( 16 - 16) =      8.24012  eV     1   --> A'             
     e( 17 - 17) =      8.96141  eV     1   --> A'             
     e( 18 - 18) =     10.16018  eV     1   --> A'             
     e( 19 - 19) =     10.56317  eV     1   --> A'             
     e( 20 - 20) =     12.96346  eV     1   --> A'             

 **************************************************************************

 **************************************************************************

                    xk=(   0.00000,   0.32075,   0.00000  )

     Band symmetry, C_s (m)     point group:

     e(  1 -  1) =    -18.74868  eV     1   --> A'             
     e(  2 -  2) =    -18.63375  eV     1   --> A'             
     e(  3 -  3) =     -8.19016  eV     1   --> A'             
     e(  4 -  4) =     -8.15944  eV     1   --> A'             
     e(  5 -  5) =     -6.26213  eV     1   --> A'             
     e(  6 -  6) =     -5.69079  eV     1   --> A''            
     e(  7 -  7) =     -5.66278  eV     1   --> A''            
     e(  8 -  8) =     -5.34714  eV     1   --> A'             
     e(  9 -  9) =      4.38170  eV     1   --> A'             
     e( 10 - 10) =      4.63588  eV     1   --> A'             
     e( 11 - 11) =      5.50149  eV     1   --> A'             
     e( 12 - 12) =      6.07627  eV     1   --> A'             
     e( 13 - 13) =      6.32220  eV     1   --> A'             
     e( 14 - 14) =      7.26929  eV     1   --> A'             
     e( 15 - 15) =      7.43197  eV     1   --> A'             
     e( 16 - 16) =      8.19100  eV     1   --> A'             
     e( 17 - 17) =      8.80380  eV     1   --> A'             
     e( 18 - 18) =      9.86489  eV     1   --> A'             
     e( 19 - 19) =     10.11708  eV     1   --> A'             
     e( 20 - 20) =     12.62778  eV     1   --> A'             

 **************************************************************************

 **************************************************************************

                    xk=(   0.00000,   0.28868,   0.00000  )

     Band symmetry, C_s (m)     point group:

     e(  1 -  1) =    -19.00020  eV     1   --> A'             
     e(  2 -  2) =    -18.87975  eV     1   --> A'             
     e(  3 -  3) =     -7.58436  eV     1   --> A'             
     e(  4 -  4) =     -7.55973  eV     1   --> A'             
     e(  5 -  5) =     -6.61428  eV     1   --> A'             
     e(  6 -  6) =     -5.67517  eV     1   --> A'             
     e(  7 -  7) =     -5.46435  eV     1   --> A''            
     e(  8 -  8) =     -5.43733  eV     1   --> A''            
     e(  9 -  9) =      3.95820  eV     1   --> A'             
     e( 10 - 10) =      4.33648  eV     1   --> A'             
     e( 11 - 11) =      5.49882  eV     1   --> A'             
     e( 12 - 12) =      5.85361  eV     1   --> A'             
     e( 13 - 13) =      6.38400  eV     1   --> A'             
     e( 14 - 14) =      7.22935  eV     1   --> A'             
     e( 15 - 15) =      7.30934  eV     1   --> A'             
     e( 16 - 16) =      8.21348  eV     1   --> A'             
     e( 17 - 17) =      8.71584  eV     1   --> A'             
     e( 18 - 18) =      9.64848  eV     1   --> A'             
     e( 19 - 19) =      9.73487  eV     1   --> A'             
     e( 20 - 20) =     12.33331  eV     1   --> A'             

 **************************************************************************

 **************************************************************************

                    xk=(   0.00000,   0.25660,   0.00000  )

     Band symmetry, C_s (m)     point group:

     e(  1 -  1) =    -19.23234  eV     1   --> A'             
     e(  2 -  2) =    -19.10722  eV     1   --> A'             
     e(  3 -  3) =     -7.02886  eV     1   --> A'             
     e(  4 -  4) =     -6.97670  eV     1   --> A'             
     e(  5 -  5) =     -6.86720  eV     1   --> A'             
     e(  6 -  6) =     -5.97581  eV     1   --> A'             
     e(  7 -  7) =     -5.22482  eV     1   --> A''            
     e(  8 -  8) =     -5.19933  eV     1   --> A''            
     e(  9 -  9) =      3.57062  eV     1   --> A'             
     e( 10 - 10) =      4.00032  eV     1   --> A'             
     e( 11 - 11) =      5.14116  eV     1   --> A'             
     e( 12 - 12) =      5.82622  eV     1   --> A'             
     e( 13 - 13) =      6.13396  eV     1   --> A'             
     e( 14 - 14) =      7.17706  eV     1   --> A'             
     e( 15 - 15) =      7.64073  eV     1   --> A'             
     e( 16 - 16) =      8.25954  eV     1   --> A'             
     e( 17 - 17) =      8.69644  eV     1   --> A'             
     e( 18 - 18) =      9.44005  eV     1   --> A'             
     e( 19 - 19) =      9.51033  eV     1   --> A'             
     e( 20 - 20) =     12.06223  eV     1   --> A'             

 **************************************************************************

 **************************************************************************

                    xk=(   0.00000,   0.22453,   0.00000  )

     Band symmetry, C_s (m)     point group:

     e(  1 -  1) =    -19.44244  eV     1   --> A'             
     e(  2 -  2) =    -19.31328  eV     1   --> A'             
     e(  3 -  3) =     -7.24565  eV     1   --> A'             
     e(  4 -  4) =     -6.41223  eV     1   --> A'             
     e(  5 -  5) =     -6.34890  eV     1   --> A'             
     e(  6 -  6) =     -6.21868  eV     1   --> A'             
     e(  7 -  7) =     -4.98003  eV     1   --> A''            
     e(  8 -  8) =     -4.95570  eV     1   --> A''            
     e(  9 -  9) =      3.22246  eV     1   --> A'             
     e( 10 - 10) =      3.67934  eV     1   --> A'             
     e( 11 - 11) =      4.78857  eV     1   --> A'             
     e( 12 - 12) =      5.69118  eV     1   --> A'             
     e( 13 - 13) =      5.82427  eV     1   --> A'             
     e( 14 - 14) =      7.11736  eV     1   --> A'             
     e( 15 - 15) =      7.93151  eV     1   --> A'             
     e( 16 - 16) =      8.39070  eV     1   --> A'             
     e( 17 - 17) =      8.74402  eV     1   --> A'             
     e( 18 - 18) =      9.28025  eV     1   --> A'             
     e( 19 - 19) =      9.42822  eV     1   --> A'             
     e( 20 - 20) =     11.64919  eV     1   --> A'             

 **************************************************************************

 **************************************************************************

                    xk=(   0.00000,   0.19245,   0.00000  )

     Band symmetry, C_s (m)     point group:

     e(  1 -  1) =    -19.62790  eV     1   --> A'             
     e(  2 -  2) =    -19.49523  eV     1   --> A'             
     e(  3 -  3) =     -7.49891  eV     1   --> A'             
     e(  4 -  4) =     -6.50632  eV     1   --> A'             
     e(  5 -  5) =     -5.79685  eV     1   --> A'             
     e(  6 -  6) =     -5.78264  eV     1   --> A'             
     e(  7 -  7) =     -4.73590  eV     1   --> A''            
     e(  8 -  8) =     -4.71338  eV     1   --> A''            
     e(  9 -  9) =      2.91570  eV     1   --> A'             
     e( 10 - 10) =      3.39042  eV     1   --> A'             
     e( 11 - 11) =      4.47655  eV     1   --> A'             
     e( 12 - 12) =      5.50181  eV     1   --> A'             
     e( 13 - 13) =      5.53394  eV     1   --> A'             
     e( 14 - 14) =      7.02909  eV     1   --> A'             
     e( 15 - 15) =      7.92923  eV     1   --> A'             
     e( 16 - 16) =      8.65809  eV     1   --> A'             
     e( 17 - 17) =      8.83483  eV     1   --> A'             
     e( 18 - 18) =      9.31223  eV     1   --> A'             
     e( 19 - 19) =      9.38102  eV     1   --> A'             
     e( 20 - 20) =     11.25776  eV     1   --> A'             

 **************************************************************************

 **************************************************************************

                    xk=(   0.00000,   0.16038,   0.00000  )

     Band symmetry, C_s (m)     point group:

     e(  1 -  1) =    -19.78719  eV     1   --> A'             
     e(  2 -  2) =    -19.65169  eV     1   --> A'             
     e(  3 -  3) =     -7.71739  eV     1   --> A'             
     e(  4 -  4) =     -6.70980  eV     1   --> A'             
     e(  5 -  5) =     -5.27024  eV     1   --> A'             
     e(  6 -  6) =     -5.25555  eV     1   --> A'             
     e(  7 -  7) =     -4.50308  eV     1   --> A''            
     e(  8 -  8) =     -4.48191  eV     1   --> A''            
     e(  9 -  9) =      2.65149  eV     1   --> A'             
     e( 10 - 10) =      3.14024  eV     1   --> A'             
     e( 11 - 11) =      4.20981  eV     1   --> A'             
     e( 12 - 12) =      5.28009  eV     1   --> A'             
     e( 13 - 13) =      5.30572  eV     1   --> A'             
     e( 14 - 14) =      6.91660  eV     1   --> A'             
     e( 15 - 15) =      7.79930  eV     1   --> A'             
     e( 16 - 16) =      8.84783  eV     1   --> A'             
     e( 17 - 17) =      8.93528  eV     1   --> A'             
     e( 18 - 18) =      9.34109  eV     1   --> A'             
     e( 19 - 19) =      9.54543  eV     1   --> A'             
     e( 20 - 20) =     10.74068  eV     1   --> A''            

 **************************************************************************

 **************************************************************************

                    xk=(   0.00000,   0.12830,   0.00000  )

     Band symmetry, C_s (m)     point group:

     e(  1 -  1) =    -19.91907  eV     1   --> A'             
     e(  2 -  2) =    -19.78125  eV     1   --> A'             
     e(  3 -  3) =     -7.89812  eV     1   --> A'             
     e(  4 -  4) =     -6.88024  eV     1   --> A'             
     e(  5 -  5) =     -4.79957  eV     1   --> A'             
     e(  6 -  6) =     -4.78569  eV     1   --> A'             
     e(  7 -  7) =     -4.29144  eV     1   --> A''            
     e(  8 -  8) =     -4.27128  eV     1   --> A''            
     e(  9 -  9) =      2.43113  eV     1   --> A'             
     e( 10 - 10) =      2.93226  eV     1   --> A'             
     e( 11 - 11) =      3.98997  eV     1   --> A'             
     e( 12 - 12) =      5.06868  eV     1   --> A'             
     e( 13 - 13) =      5.12695  eV     1   --> A'             
     e( 14 - 14) =      6.80023  eV     1   --> A'             
     e( 15 - 15) =      7.64467  eV     1   --> A'             
     e( 16 - 16) =      8.96215  eV     1   --> A'             
     e( 17 - 17) =      9.02516  eV     1   --> A'             
     e( 18 - 18) =      9.30476  eV     1   --> A'             
     e( 19 - 19) =      9.83687  eV     1   --> A'             
     e( 20 - 20) =     10.20390  eV     1   --> A''            

 **************************************************************************

 **************************************************************************

                    xk=(   0.00000,   0.09623,   0.00000  )

     Band symmetry, C_s (m)     point group:

     e(  1 -  1) =    -20.02253  eV     1   --> A'             
     e(  2 -  2) =    -19.88278  eV     1   --> A'             
     e(  3 -  3) =     -8.03935  eV     1   --> A'             
     e(  4 -  4) =     -7.01436  eV     1   --> A'             
     e(  5 -  5) =     -4.40437  eV     1   --> A'             
     e(  6 -  6) =     -4.39102  eV     1   --> A'             
     e(  7 -  7) =     -4.11031  eV     1   --> A''            
     e(  8 -  8) =     -4.09253  eV     1   --> A''            
     e(  9 -  9) =      2.25613  eV     1   --> A'             
     e( 10 - 10) =      2.76843  eV     1   --> A'             
     e( 11 - 11) =      3.81790  eV     1   --> A'             
     e( 12 - 12) =      4.90222  eV     1   --> A'             
     e( 13 - 13) =      4.97814  eV     1   --> A'             
     e( 14 - 14) =      6.69673  eV     1   --> A'             
     e( 15 - 15) =      7.50351  eV     1   --> A'             
     e( 16 - 16) =      9.04747  eV     1   --> A'             
     e( 17 - 17) =      9.10103  eV     1   --> A'             
     e( 18 - 18) =      9.26760  eV     1   --> A'             
     e( 19 - 19) =      9.76829  eV     1   --> A''            
     e( 20 - 20) =      9.82750  eV     1   --> A''            

 **************************************************************************

 **************************************************************************

                    xk=(   0.00000,   0.06415,   0.00000  )

     Band symmetry, C_s (m)     point group:

     e(  1 -  1) =    -20.09682  eV     1   --> A'             
     e(  2 -  2) =    -19.95580  eV     1   --> A'             
     e(  3 -  3) =     -8.14076  eV     1   --> A'             
     e(  4 -  4) =     -7.11078  eV     1   --> A'             
     e(  5 -  5) =     -4.10526  eV     1   --> A'             
     e(  6 -  6) =     -4.09057  eV     1   --> A'             
     e(  7 -  7) =     -3.97149  eV     1   --> A''            
     e(  8 -  8) =     -3.95455  eV     1   --> A''            
     e(  9 -  9) =      2.12851  eV     1   --> A'             
     e( 10 - 10) =      2.65022  eV     1   --> A'             
     e( 11 - 11) =      3.69432  eV     1   --> A'             
     e( 12 - 12) =      4.78226  eV     1   --> A'             
     e( 13 - 13) =      4.86675  eV     1   --> A'             
     e( 14 - 14) =      6.61650  eV     1   --> A'             
     e( 15 - 15) =      7.39343  eV     1   --> A'             
     e( 16 - 16) =      9.10856  eV     1   --> A'             
     e( 17 - 17) =      9.16388  eV     1   --> A'             
     e( 18 - 18) =      9.23536  eV     1   --> A'             
     e( 19 - 19) =      9.44572  eV     1   --> A''            
     e( 20 - 20) =      9.50623  eV     1   --> A''            

 **************************************************************************

 **************************************************************************

                    xk=(   0.00000,   0.03208,   0.00000  )

     Band symmetry, C_s (m)     point group:

     e(  1 -  1) =    -20.14150  eV     1   --> A'             
     e(  2 -  2) =    -19.99977  eV     1   --> A'             
     e(  3 -  3) =     -8.20161  eV     1   --> A'             
     e(  4 -  4) =     -7.16870  eV     1   --> A'             
     e(  5 -  5) =     -3.91815  eV     1   --> A'             
     e(  6 -  6) =     -3.90216  eV     1   --> A'             
     e(  7 -  7) =     -3.88403  eV     1   --> A''            
     e(  8 -  8) =     -3.86701  eV     1   --> A''            
     e(  9 -  9) =      2.05061  eV     1   --> A'             
     e( 10 - 10) =      2.57880  eV     1   --> A'             
     e( 11 - 11) =      3.61985  eV     1   --> A'             
     e( 12 - 12) =      4.70985  eV     1   --> A'             
     e( 13 - 13) =      4.79792  eV     1   --> A'             
     e( 14 - 14) =      6.56623  eV     1   --> A'             
     e( 15 - 15) =      7.32398  eV     1   --> A'             
     e( 16 - 16) =      9.14653  eV     1   --> A'             
     e( 17 - 17) =      9.19090  eV     1   --> A'             
     e( 18 - 18) =      9.22899  eV     1   --> A'             
     e( 19 - 19) =      9.24751  eV     1   --> A''            
     e( 20 - 20) =      9.30871  eV     1   --> A''            

 **************************************************************************

 **************************************************************************

                    xk=(   0.00000,   0.00000,   0.00000  )

     point group C_3v (3m)  
     there are  3 classes
     the character table:

       E     2C3   3s_v 
A_1    1.00  1.00  1.00
A_2    1.00  1.00 -1.00
E      2.00 -1.00  0.00

     the symmetry operations in each class and the name of the first element:

     E        1
                                                                 
     2C3      2    3
                                                                 
     3s_v     4    5    6
                                                                 

     Band symmetry, C_3v (3m)   point group:

     e(  1 -  1) =    -20.15639  eV     1   --> A_1  L_1       
     e(  2 -  2) =    -20.01436  eV     1   --> A_1  L_1       
     e(  3 -  3) =     -8.22168  eV     1   --> A_1  L_1       
     e(  4 -  4) =     -7.18791  eV     1   --> A_1  L_1       
     e(  5 -  6) =     -3.85396  eV     2   --> E    L_3       
     e(  7 -  8) =     -3.83730  eV     2   --> E    L_3       
     e(  9 -  9) =      2.02439  eV     1   --> A_1  L_1       
     e( 10 - 10) =      2.55489  eV     1   --> A_1  L_1       
     e( 11 - 11) =      3.59497  eV     1   --> A_1  L_1       
     e( 12 - 12) =      4.68564  eV     1   --> A_1  L_1       
     e( 13 - 13) =      4.77465  eV     1   --> A_1  L_1       
     e( 14 - 14) =      6.54925  eV     1   --> A_1  L_1       
     e( 15 - 15) =      7.30027  eV     1   --> A_1  L_1       
     e( 16 - 16) =      9.16542  eV     1   --> A_1  L_1       
     e( 17 - 18) =      9.18073  eV     2   --> E    L_3       
     e( 19 - 20) =      9.24251  eV     2   --> E    L_3       

 **************************************************************************

     BANDS        :     11.24s CPU     11.47s WALL


   This run was terminated on:  17: 5:47  12Apr2024            

=------------------------------------------------------------------------------=
   JOB DONE.
=------------------------------------------------------------------------------=
