
     Program BANDS v.7.0 starts on 14Apr2025 at  6: 0:28 

     This program is part of the open-source Quantum ESPRESSO suite
     for quantum simulation of materials; please cite
         "P. Giannozzi et al., J. Phys.:Condens. Matter 21 395502 (2009);
         "P. Giannozzi et al., J. Phys.:Condens. Matter 29 465901 (2017);
         "P. Giannozzi et al., J. Chem. Phys. 152 154105 (2020);
          URL http://www.quantum-espresso.org", 
     in publications or presentations arising from this work. More details at
     http://www.quantum-espresso.org/quote

     Parallel version (MPI & OpenMP), running on       8 processor cores
     Number of MPI processes:                 8
     Threads/MPI process:                     1

     MPI processes distributed on     1 nodes
     R & G space division:  proc/nbgrp/npool/nimage =       8
     0 MiB available memory on the printing compute node when the environment starts


     Reading xml data from directory:

     ./tmp/BN2L_AA1_PBE_vdW.save/

     IMPORTANT: XC functional enforced from input :
     Exchange-correlation= VDW-DF2-B86R
                           (   1   4  26   0   2   0   0)
     Any further DFT definition will be discarded
     Please, verify this is what you really want


     Parallelization info
     --------------------
     sticks:   dense  smooth     PW     G-vecs:    dense   smooth      PW
     Min          45      45     14                 5791     5791    1010
     Max          46      46     16                 5824     5824    1027
     Sum         367     367    121                46525    46525    8181

     Using Slab Decomposition



     %%%%%%%%%%%%%%%%%%%%%%%%%%%%%%%%%%%%%%%%%%%%%%%%%%%%%%%%%%%%%%%%%%%%%%%%
     %                                                                      %
     % You are using vdW-DF, which was implemented by the Thonhauser group. %
     % Please cite the following two papers that made this development      %
     % possible and the two reviews that describe the various versions:     %
     %                                                                      %
     %   T. Thonhauser et al., PRL 115, 136402 (2015).                      %
     %   T. Thonhauser et al., PRB 76, 125112 (2007).                       %
     %   K. Berland et al., Rep. Prog. Phys. 78, 066501 (2015).             %
     %   D.C. Langreth et al., J. Phys.: Condens. Matter 21, 084203 (2009). %
     %                                                                      %
     %                                                                      %
     % If you are calculating the stress with vdW-DF, please also cite:     %
     %                                                                      %
     %   R. Sabatini et al., J. Phys.: Condens. Matter 24, 424209 (2012).   %
     %                                                                      %
     %%%%%%%%%%%%%%%%%%%%%%%%%%%%%%%%%%%%%%%%%%%%%%%%%%%%%%%%%%%%%%%%%%%%%%%%


     Reading collected, re-writing distributed wavefunctions
     high-symmetry point:  0.0000 0.0000 0.0000   x coordinate   0.0000
     high-symmetry point: -0.3333 0.5774 0.0000   x coordinate   0.6667
     high-symmetry point:  0.0000 0.5774 0.0000   x coordinate   1.0000
     high-symmetry point:  0.0000 0.0000 0.0000   x coordinate   1.5773

     Plottable bands (eV) written to file Bande_BN2L_AA1_PBE_vdW.dat.gnu
     Bands written to file Bande_BN2L_AA1_PBE_vdW.dat

 **************************************************************************

                    xk=(   0.00000,   0.00000,   0.00000  )

     point group C_3v (3m)  
     there are  3 classes
     the character table:

       E     2C3   3s_v 
A_1    1.00  1.00  1.00
A_2    1.00  1.00 -1.00
E      2.00 -1.00  0.00

     the symmetry operations in each class and the name of the first element:

     E        1
                                                                 
     2C3      2    3
                                                                 
     3s_v     4    5    6
                                                                 

     Band symmetry, C_3v (3m)   point group:

     e(  1 -  1) =    -20.15819  eV     1   --> A_1  L_1       
     e(  2 -  2) =    -19.99750  eV     1   --> A_1  L_1       
     e(  3 -  3) =     -8.25771  eV     1   --> A_1  L_1       
     e(  4 -  4) =     -7.14198  eV     1   --> A_1  L_1       
     e(  5 -  6) =     -3.88544  eV     2   --> E    L_3       
     e(  7 -  8) =     -3.86487  eV     2   --> E    L_3       
     e(  9 -  9) =      2.02302  eV     1   --> A_1  L_1       
     e( 10 - 10) =      2.54625  eV     1   --> A_1  L_1       
     e( 11 - 11) =      3.58481  eV     1   --> A_1  L_1       
     e( 12 - 12) =      4.65490  eV     1   --> A_1  L_1       
     e( 13 - 13) =      4.81057  eV     1   --> A_1  L_1       
     e( 14 - 14) =      6.54636  eV     1   --> A_1  L_1       
     e( 15 - 15) =      7.24332  eV     1   --> A_1  L_1       
     e( 16 - 16) =      9.09507  eV     1   --> A_1  L_1       
     e( 17 - 18) =      9.10224  eV     2   --> E    L_3       
     e( 19 - 20) =      9.17248  eV     2   --> E    L_3       

 **************************************************************************

 **************************************************************************

                    xk=(  -0.01587,   0.02749,   0.00000  )

     point group C_1 (1)    
     there are  1 classes
     the character table:

       E    
A      1.00

     the symmetry operations in each class and the name of the first element:

     E        1
                                                                 

     Band symmetry, C_1 (1)     point group:

     e(  1 -  1) =    -20.14372  eV     1   --> A              
     e(  2 -  2) =    -19.98320  eV     1   --> A              
     e(  3 -  3) =     -8.23773  eV     1   --> A              
     e(  4 -  4) =     -7.12289  eV     1   --> A              
     e(  5 -  5) =     -3.94819  eV     1   --> A              
     e(  6 -  6) =     -3.92897  eV     1   --> A              
     e(  7 -  7) =     -3.91507  eV     1   --> A              
     e(  8 -  8) =     -3.89450  eV     1   --> A              
     e(  9 -  9) =      2.04862  eV     1   --> A              
     e( 10 - 10) =      2.56953  eV     1   --> A              
     e( 11 - 11) =      3.60910  eV     1   --> A              
     e( 12 - 12) =      4.67848  eV     1   --> A              
     e( 13 - 13) =      4.83364  eV     1   --> A              
     e( 14 - 14) =      6.56287  eV     1   --> A              
     e( 15 - 15) =      7.26625  eV     1   --> A              
     e( 16 - 16) =      9.07416  eV     1   --> A              
     e( 17 - 17) =      9.11706  eV     1   --> A              
     e( 18 - 18) =      9.15564  eV     1   --> A              
     e( 19 - 19) =      9.16925  eV     1   --> A              
     e( 20 - 20) =      9.23790  eV     1   --> A              

 **************************************************************************

 **************************************************************************

                    xk=(  -0.03175,   0.05499,   0.00000  )

     Band symmetry, C_1 (1)     point group:

     e(  1 -  1) =    -20.10010  eV     1   --> A              
     e(  2 -  2) =    -19.94033  eV     1   --> A              
     e(  3 -  3) =     -8.17825  eV     1   --> A              
     e(  4 -  4) =     -7.06660  eV     1   --> A              
     e(  5 -  5) =     -4.12908  eV     1   --> A              
     e(  6 -  6) =     -4.11259  eV     1   --> A              
     e(  7 -  7) =     -4.00198  eV     1   --> A              
     e(  8 -  8) =     -3.98172  eV     1   --> A              
     e(  9 -  9) =      2.12472  eV     1   --> A              
     e( 10 - 10) =      2.63914  eV     1   --> A              
     e( 11 - 11) =      3.68185  eV     1   --> A              
     e( 12 - 12) =      4.74910  eV     1   --> A              
     e( 13 - 13) =      4.90203  eV     1   --> A              
     e( 14 - 14) =      6.61124  eV     1   --> A              
     e( 15 - 15) =      7.33382  eV     1   --> A              
     e( 16 - 16) =      9.04312  eV     1   --> A              
     e( 17 - 17) =      9.12418  eV     1   --> A              
     e( 18 - 18) =      9.13181  eV     1   --> A              
     e( 19 - 19) =      9.34674  eV     1   --> A              
     e( 20 - 20) =      9.42743  eV     1   --> A              

 **************************************************************************

 **************************************************************************

                    xk=(  -0.04762,   0.08248,   0.00000  )

     Band symmetry, C_1 (1)     point group:

     e(  1 -  1) =    -20.02742  eV     1   --> A              
     e(  2 -  2) =    -19.86911  eV     1   --> A              
     e(  3 -  3) =     -8.07924  eV     1   --> A              
     e(  4 -  4) =     -6.97279  eV     1   --> A              
     e(  5 -  5) =     -4.41436  eV     1   --> A              
     e(  6 -  6) =     -4.39915  eV     1   --> A              
     e(  7 -  7) =     -4.14408  eV     1   --> A              
     e(  8 -  8) =     -4.12302  eV     1   --> A              
     e(  9 -  9) =      2.24955  eV     1   --> A              
     e( 10 - 10) =      2.75440  eV     1   --> A              
     e( 11 - 11) =      3.80264  eV     1   --> A              
     e( 12 - 12) =      4.86615  eV     1   --> A              
     e( 13 - 13) =      5.01286  eV     1   --> A              
     e( 14 - 14) =      6.68781  eV     1   --> A              
     e( 15 - 15) =      7.44200  eV     1   --> A              
     e( 16 - 16) =      9.01163  eV     1   --> A              
     e( 17 - 17) =      9.09625  eV     1   --> A              
     e( 18 - 18) =      9.14347  eV     1   --> A              
     e( 19 - 19) =      9.58479  eV     1   --> A              
     e( 20 - 20) =      9.72290  eV     1   --> A              

 **************************************************************************

 **************************************************************************

                    xk=(  -0.06349,   0.10997,   0.00000  )

     Band symmetry, C_1 (1)     point group:

     e(  1 -  1) =    -19.92639  eV     1   --> A              
     e(  2 -  2) =    -19.77002  eV     1   --> A              
     e(  3 -  3) =     -7.94123  eV     1   --> A              
     e(  4 -  4) =     -6.84240  eV     1   --> A              
     e(  5 -  5) =     -4.78522  eV     1   --> A              
     e(  6 -  6) =     -4.77213  eV     1   --> A              
     e(  7 -  7) =     -4.33784  eV     1   --> A              
     e(  8 -  8) =     -4.31607  eV     1   --> A              
     e(  9 -  9) =      2.42107  eV     1   --> A              
     e( 10 - 10) =      2.91427  eV     1   --> A              
     e( 11 - 11) =      3.97101  eV     1   --> A              
     e( 12 - 12) =      5.02874  eV     1   --> A              
     e( 13 - 13) =      5.16181  eV     1   --> A              
     e( 14 - 14) =      6.78597  eV     1   --> A              
     e( 15 - 15) =      7.58448  eV     1   --> A              
     e( 16 - 16) =      8.98978  eV     1   --> A              
     e( 17 - 17) =      9.08748  eV     1   --> A              
     e( 18 - 18) =      9.14939  eV     1   --> A              
     e( 19 - 19) =      9.67545  eV     1   --> A              
     e( 20 - 20) =      9.96376  eV     1   --> A              

 **************************************************************************

 **************************************************************************

                    xk=(  -0.07936,   0.13746,   0.00000  )

     Band symmetry, C_1 (1)     point group:

     e(  1 -  1) =    -19.79758  eV     1   --> A              
     e(  2 -  2) =    -19.64382  eV     1   --> A              
     e(  3 -  3) =     -7.76497  eV     1   --> A              
     e(  4 -  4) =     -6.67643  eV     1   --> A              
     e(  5 -  5) =     -5.21981  eV     1   --> A              
     e(  6 -  6) =     -5.20824  eV     1   --> A              
     e(  7 -  7) =     -4.57840  eV     1   --> A              
     e(  8 -  8) =     -4.55524  eV     1   --> A              
     e(  9 -  9) =      2.63773  eV     1   --> A              
     e( 10 - 10) =      3.11749  eV     1   --> A              
     e( 11 - 11) =      4.18649  eV     1   --> A              
     e( 12 - 12) =      5.23563  eV     1   --> A              
     e( 13 - 13) =      5.34257  eV     1   --> A              
     e( 14 - 14) =      6.89466  eV     1   --> A              
     e( 15 - 15) =      7.74877  eV     1   --> A              
     e( 16 - 16) =      8.98287  eV     1   --> A              
     e( 17 - 17) =      9.09513  eV     1   --> A              
     e( 18 - 18) =      9.15172  eV     1   --> A              
     e( 19 - 19) =      9.42362  eV     1   --> A              
     e( 20 - 20) =     10.14498  eV     1   --> A              

 **************************************************************************

 **************************************************************************

                    xk=(  -0.09524,   0.16496,   0.00000  )

     Band symmetry, C_1 (1)     point group:

     e(  1 -  1) =    -19.64175  eV     1   --> A              
     e(  2 -  2) =    -19.49118  eV     1   --> A              
     e(  3 -  3) =     -7.55160  eV     1   --> A              
     e(  4 -  4) =     -6.47838  eV     1   --> A              
     e(  5 -  5) =     -5.69554  eV     1   --> A              
     e(  6 -  6) =     -5.68760  eV     1   --> A              
     e(  7 -  7) =     -4.85865  eV     1   --> A              
     e(  8 -  8) =     -4.83418  eV     1   --> A              
     e(  9 -  9) =      2.89863  eV     1   --> A              
     e( 10 - 10) =      3.36240  eV     1   --> A              
     e( 11 - 11) =      4.44866  eV     1   --> A              
     e( 12 - 12) =      5.48471  eV     1   --> A              
     e( 13 - 13) =      5.54459  eV     1   --> A              
     e( 14 - 14) =      6.99836  eV     1   --> A              
     e( 15 - 15) =      7.89756  eV     1   --> A              
     e( 16 - 16) =      8.98873  eV     1   --> A              
     e( 17 - 17) =      8.99252  eV     1   --> A              
     e( 18 - 18) =      9.17073  eV     1   --> A              
     e( 19 - 19) =      9.26611  eV     1   --> A              
     e( 20 - 20) =     10.35832  eV     1   --> A              

 **************************************************************************

 **************************************************************************

                    xk=(  -0.11111,   0.19245,   0.00000  )

     Band symmetry, C_1 (1)     point group:

     e(  1 -  1) =    -19.46018  eV     1   --> A              
     e(  2 -  2) =    -19.31328  eV     1   --> A              
     e(  3 -  3) =     -7.30352  eV     1   --> A              
     e(  4 -  4) =     -6.30621  eV     1   --> A              
     e(  5 -  5) =     -6.19220  eV     1   --> A              
     e(  6 -  6) =     -6.13890  eV     1   --> A              
     e(  7 -  7) =     -5.17263  eV     1   --> A              
     e(  8 -  8) =     -5.14644  eV     1   --> A              
     e(  9 -  9) =      3.20316  eV     1   --> A              
     e( 10 - 10) =      3.64616  eV     1   --> A              
     e( 11 - 11) =      4.75688  eV     1   --> A              
     e( 12 - 12) =      5.74569  eV     1   --> A              
     e( 13 - 13) =      5.77124  eV     1   --> A              
     e( 14 - 14) =      7.08167  eV     1   --> A              
     e( 15 - 15) =      7.90222  eV     1   --> A              
     e( 16 - 16) =      8.82689  eV     1   --> A              
     e( 17 - 17) =      9.01277  eV     1   --> A              
     e( 18 - 18) =      9.23417  eV     1   --> A              
     e( 19 - 19) =      9.34738  eV     1   --> A              
     e( 20 - 20) =     10.57933  eV     1   --> A              

 **************************************************************************

 **************************************************************************

                    xk=(  -0.12698,   0.21994,   0.00000  )

     Band symmetry, C_1 (1)     point group:

     e(  1 -  1) =    -19.25419  eV     1   --> A              
     e(  2 -  2) =    -19.11160  eV     1   --> A              
     e(  3 -  3) =     -7.03487  eV     1   --> A              
     e(  4 -  4) =     -6.73924  eV     1   --> A              
     e(  5 -  5) =     -6.69553  eV     1   --> A              
     e(  6 -  6) =     -5.95850  eV     1   --> A              
     e(  7 -  7) =     -5.51254  eV     1   --> A              
     e(  8 -  8) =     -5.48427  eV     1   --> A              
     e(  9 -  9) =      3.55095  eV     1   --> A              
     e( 10 - 10) =      3.96328  eV     1   --> A              
     e( 11 - 11) =      5.10937  eV     1   --> A              
     e( 12 - 12) =      5.89805  eV     1   --> A              
     e( 13 - 13) =      6.08081  eV     1   --> A              
     e( 14 - 14) =      7.15575  eV     1   --> A              
     e( 15 - 15) =      7.63753  eV     1   --> A              
     e( 16 - 16) =      8.92903  eV     1   --> A              
     e( 17 - 17) =      9.09038  eV     1   --> A              
     e( 18 - 18) =      9.35111  eV     1   --> A              
     e( 19 - 19) =      9.50147  eV     1   --> A              
     e( 20 - 20) =     10.81007  eV     1   --> A              

 **************************************************************************

 **************************************************************************

                    xk=(  -0.14286,   0.24744,   0.00000  )

     Band symmetry, C_1 (1)     point group:

     e(  1 -  1) =    -19.02594  eV     1   --> A              
     e(  2 -  2) =    -18.88846  eV     1   --> A              
     e(  3 -  3) =     -7.25519  eV     1   --> A              
     e(  4 -  4) =     -7.25426  eV     1   --> A              
     e(  5 -  5) =     -6.67947  eV     1   --> A              
     e(  6 -  6) =     -5.87165  eV     1   --> A              
     e(  7 -  7) =     -5.85003  eV     1   --> A              
     e(  8 -  8) =     -5.65900  eV     1   --> A              
     e(  9 -  9) =      3.94111  eV     1   --> A              
     e( 10 - 10) =      4.30061  eV     1   --> A              
     e( 11 - 11) =      5.49504  eV     1   --> A              
     e( 12 - 12) =      5.92830  eV     1   --> A              
     e( 13 - 13) =      6.35055  eV     1   --> A              
     e( 14 - 14) =      7.28591  eV     1   --> A              
     e( 15 - 15) =      7.31014  eV     1   --> A              
     e( 16 - 16) =      9.20465  eV     1   --> A              
     e( 17 - 17) =      9.25282  eV     1   --> A              
     e( 18 - 18) =      9.51581  eV     1   --> A              
     e( 19 - 19) =      9.70424  eV     1   --> A              
     e( 20 - 20) =     11.05226  eV     1   --> A              

 **************************************************************************

 **************************************************************************

                    xk=(  -0.15873,   0.27493,   0.00000  )

     Band symmetry, C_1 (1)     point group:

     e(  1 -  1) =    -18.77760  eV     1   --> A              
     e(  2 -  2) =    -18.64588  eV     1   --> A              
     e(  3 -  3) =     -7.76403  eV     1   --> A              
     e(  4 -  4) =     -7.75792  eV     1   --> A              
     e(  5 -  5) =     -6.35058  eV     1   --> A              
     e(  6 -  6) =     -6.23115  eV     1   --> A              
     e(  7 -  7) =     -6.21764  eV     1   --> A              
     e(  8 -  8) =     -5.34100  eV     1   --> A              
     e(  9 -  9) =      4.37206  eV     1   --> A              
     e( 10 - 10) =      4.62061  eV     1   --> A              
     e( 11 - 11) =      5.67827  eV     1   --> A              
     e( 12 - 12) =      6.02738  eV     1   --> A              
     e( 13 - 13) =      6.35570  eV     1   --> A              
     e( 14 - 14) =      7.29437  eV     1   --> A              
     e( 15 - 15) =      7.53429  eV     1   --> A              
     e( 16 - 16) =      9.50071  eV     1   --> A              
     e( 17 - 17) =      9.55508  eV     1   --> A              
     e( 18 - 18) =      9.72346  eV     1   --> A              
     e( 19 - 19) =      9.94838  eV     1   --> A              
     e( 20 - 20) =     11.30868  eV     1   --> A              

 **************************************************************************

 **************************************************************************

                    xk=(  -0.17460,   0.30242,   0.00000  )

     Band symmetry, C_1 (1)     point group:

     e(  1 -  1) =    -18.51233  eV     1   --> A              
     e(  2 -  2) =    -18.38732  eV     1   --> A              
     e(  3 -  3) =     -8.25435  eV     1   --> A              
     e(  4 -  4) =     -8.24907  eV     1   --> A              
     e(  5 -  5) =     -6.62788  eV     1   --> A              
     e(  6 -  6) =     -6.59522  eV     1   --> A              
     e(  7 -  7) =     -5.95780  eV     1   --> A              
     e(  8 -  8) =     -4.99594  eV     1   --> A              
     e(  9 -  9) =      4.80358  eV     1   --> A              
     e( 10 - 10) =      4.83231  eV     1   --> A              
     e( 11 - 11) =      5.41598  eV     1   --> A              
     e( 12 - 12) =      6.19815  eV     1   --> A              
     e( 13 - 13) =      6.49005  eV     1   --> A              
     e( 14 - 14) =      7.64810  eV     1   --> A              
     e( 15 - 15) =      7.88738  eV     1   --> A              
     e( 16 - 16) =      9.80921  eV     1   --> A              
     e( 17 - 17) =      9.94850  eV     1   --> A              
     e( 18 - 18) =      9.97135  eV     1   --> A              
     e( 19 - 19) =     10.22445  eV     1   --> A              
     e( 20 - 20) =     11.58455  eV     1   --> A              

 **************************************************************************

 **************************************************************************

                    xk=(  -0.19047,   0.32992,   0.00000  )

     Band symmetry, C_1 (1)     point group:

     e(  1 -  1) =    -18.23473  eV     1   --> A              
     e(  2 -  2) =    -18.11725  eV     1   --> A              
     e(  3 -  3) =     -8.71746  eV     1   --> A              
     e(  4 -  4) =     -8.71470  eV     1   --> A              
     e(  5 -  5) =     -7.00762  eV     1   --> A              
     e(  6 -  6) =     -6.97539  eV     1   --> A              
     e(  7 -  7) =     -5.55980  eV     1   --> A              
     e(  8 -  8) =     -4.63429  eV     1   --> A              
     e(  9 -  9) =      4.66191  eV     1   --> A              
     e( 10 - 10) =      4.95930  eV     1   --> A              
     e( 11 - 11) =      5.41995  eV     1   --> A              
     e( 12 - 12) =      6.32020  eV     1   --> A              
     e( 13 - 13) =      7.02614  eV     1   --> A              
     e( 14 - 14) =      8.13470  eV     1   --> A              
     e( 15 - 15) =      8.30790  eV     1   --> A              
     e( 16 - 16) =     10.12998  eV     1   --> A              
     e( 17 - 17) =     10.26882  eV     1   --> A              
     e( 18 - 18) =     10.37143  eV     1   --> A              
     e( 19 - 19) =     10.51543  eV     1   --> A              
     e( 20 - 20) =     11.88729  eV     1   --> A              

 **************************************************************************

 **************************************************************************

                    xk=(  -0.20635,   0.35741,   0.00000  )

     Band symmetry, C_1 (1)     point group:

     e(  1 -  1) =    -17.94972  eV     1   --> A              
     e(  2 -  2) =    -17.84098  eV     1   --> A              
     e(  3 -  3) =     -9.14543  eV     1   --> A              
     e(  4 -  4) =     -9.14453  eV     1   --> A              
     e(  5 -  5) =     -7.38449  eV     1   --> A              
     e(  6 -  6) =     -7.35247  eV     1   --> A              
     e(  7 -  7) =     -5.14252  eV     1   --> A              
     e(  8 -  8) =     -4.26225  eV     1   --> A              
     e(  9 -  9) =      4.27966  eV     1   --> A              
     e( 10 - 10) =      4.55824  eV     1   --> A              
     e( 11 - 11) =      5.95233  eV     1   --> A              
     e( 12 - 12) =      6.71766  eV     1   --> A              
     e( 13 - 13) =      7.61056  eV     1   --> A              
     e( 14 - 14) =      8.68624  eV     1   --> A              
     e( 15 - 15) =      8.76513  eV     1   --> A              
     e( 16 - 16) =     10.40567  eV     1   --> A              
     e( 17 - 17) =     10.61592  eV     1   --> A              
     e( 18 - 18) =     10.79365  eV     1   --> A              
     e( 19 - 19) =     10.82042  eV     1   --> A              
     e( 20 - 20) =     12.22693  eV     1   --> A              

 **************************************************************************

 **************************************************************************

                    xk=(  -0.22222,   0.38490,   0.00000  )

     Band symmetry, C_1 (1)     point group:

     e(  1 -  1) =    -17.66420  eV     1   --> A              
     e(  2 -  2) =    -17.56561  eV     1   --> A              
     e(  3 -  3) =     -9.53173  eV     1   --> A              
     e(  4 -  4) =     -9.52619  eV     1   --> A              
     e(  5 -  5) =     -7.75323  eV     1   --> A              
     e(  6 -  6) =     -7.72220  eV     1   --> A              
     e(  7 -  7) =     -4.71450  eV     1   --> A              
     e(  8 -  8) =     -3.88953  eV     1   --> A              
     e(  9 -  9) =      3.83083  eV     1   --> A              
     e( 10 - 10) =      4.12632  eV     1   --> A              
     e( 11 - 11) =      6.54507  eV     1   --> A              
     e( 12 - 12) =      7.24102  eV     1   --> A              
     e( 13 - 13) =      8.23751  eV     1   --> A              
     e( 14 - 14) =      9.22047  eV     1   --> A              
     e( 15 - 15) =      9.28449  eV     1   --> A              
     e( 16 - 16) =     10.60544  eV     1   --> A              
     e( 17 - 17) =     10.95782  eV     1   --> A              
     e( 18 - 18) =     11.04068  eV     1   --> A              
     e( 19 - 19) =     11.27916  eV     1   --> A              
     e( 20 - 20) =     12.39852  eV     1   --> A              

 **************************************************************************

 **************************************************************************

                    xk=(  -0.23809,   0.41239,   0.00000  )

     Band symmetry, C_1 (1)     point group:

     e(  1 -  1) =    -17.38683  eV     1   --> A              
     e(  2 -  2) =    -17.29984  eV     1   --> A              
     e(  3 -  3) =     -9.86394  eV     1   --> A              
     e(  4 -  4) =     -9.85166  eV     1   --> A              
     e(  5 -  5) =     -8.11040  eV     1   --> A              
     e(  6 -  6) =     -8.08041  eV     1   --> A              
     e(  7 -  7) =     -4.28529  eV     1   --> A              
     e(  8 -  8) =     -3.52830  eV     1   --> A              
     e(  9 -  9) =      3.39103  eV     1   --> A              
     e( 10 - 10) =      3.70490  eV     1   --> A              
     e( 11 - 11) =      7.17594  eV     1   --> A              
     e( 12 - 12) =      7.82768  eV     1   --> A              
     e( 13 - 13) =      8.89380  eV     1   --> A              
     e( 14 - 14) =      9.59316  eV     1   --> A              
     e( 15 - 15) =      9.91791  eV     1   --> A              
     e( 16 - 16) =     10.72003  eV     1   --> A              
     e( 17 - 17) =     11.22156  eV     1   --> A              
     e( 18 - 18) =     11.27782  eV     1   --> A              
     e( 19 - 19) =     11.74794  eV     1   --> A              
     e( 20 - 20) =     12.60067  eV     1   --> A              

 **************************************************************************

 **************************************************************************

                    xk=(  -0.25397,   0.43989,   0.00000  )

     Band symmetry, C_1 (1)     point group:

     e(  1 -  1) =    -17.12791  eV     1   --> A              
     e(  2 -  2) =    -17.05422  eV     1   --> A              
     e(  3 -  3) =    -10.13209  eV     1   --> A              
     e(  4 -  4) =    -10.11084  eV     1   --> A              
     e(  5 -  5) =     -8.45227  eV     1   --> A              
     e(  6 -  6) =     -8.42391  eV     1   --> A              
     e(  7 -  7) =     -3.86759  eV     1   --> A              
     e(  8 -  8) =     -3.19389  eV     1   --> A              
     e(  9 -  9) =      2.99430  eV     1   --> A              
     e( 10 - 10) =      3.31310  eV     1   --> A              
     e( 11 - 11) =      7.83764  eV     1   --> A              
     e( 12 - 12) =      8.44901  eV     1   --> A              
     e( 13 - 13) =      9.44659  eV     1   --> A              
     e( 14 - 14) =      9.84788  eV     1   --> A              
     e( 15 - 15) =     10.56767  eV     1   --> A              
     e( 16 - 16) =     10.90469  eV     1   --> A              
     e( 17 - 17) =     11.32152  eV     1   --> A              
     e( 18 - 18) =     11.61452  eV     1   --> A              
     e( 19 - 19) =     12.20080  eV     1   --> A              
     e( 20 - 20) =     12.99847  eV     1   --> A              

 **************************************************************************

 **************************************************************************

                    xk=(  -0.26984,   0.46738,   0.00000  )

     Band symmetry, C_1 (1)     point group:

     e(  1 -  1) =    -16.89896  eV     1   --> A              
     e(  2 -  2) =    -16.83994  eV     1   --> A              
     e(  3 -  3) =    -10.32527  eV     1   --> A              
     e(  4 -  4) =    -10.29333  eV     1   --> A              
     e(  5 -  5) =     -8.77474  eV     1   --> A              
     e(  6 -  6) =     -8.74916  eV     1   --> A              
     e(  7 -  7) =     -3.47670  eV     1   --> A              
     e(  8 -  8) =     -2.90603  eV     1   --> A              
     e(  9 -  9) =      2.66485  eV     1   --> A              
     e( 10 - 10) =      2.96715  eV     1   --> A              
     e( 11 - 11) =      8.52031  eV     1   --> A              
     e( 12 - 12) =      9.07884  eV     1   --> A              
     e( 13 - 13) =      9.42109  eV     1   --> A              
     e( 14 - 14) =     10.45806  eV     1   --> A              
     e( 15 - 15) =     11.14243  eV     1   --> A              
     e( 16 - 16) =     11.20528  eV     1   --> A              
     e( 17 - 17) =     11.38467  eV     1   --> A              
     e( 18 - 18) =     12.01181  eV     1   --> A              
     e( 19 - 19) =     12.58863  eV     1   --> A              
     e( 20 - 20) =     13.44833  eV     1   --> A              

 **************************************************************************

 **************************************************************************

                    xk=(  -0.28571,   0.49487,   0.00000  )

     Band symmetry, C_1 (1)     point group:

     e(  1 -  1) =    -16.71166  eV     1   --> A              
     e(  2 -  2) =    -16.66839  eV     1   --> A              
     e(  3 -  3) =    -10.43561  eV     1   --> A              
     e(  4 -  4) =    -10.39075  eV     1   --> A              
     e(  5 -  5) =     -9.07281  eV     1   --> A              
     e(  6 -  6) =     -9.05153  eV     1   --> A              
     e(  7 -  7) =     -3.13179  eV     1   --> A              
     e(  8 -  8) =     -2.68505  eV     1   --> A              
     e(  9 -  9) =      2.42040  eV     1   --> A              
     e( 10 - 10) =      2.68059  eV     1   --> A              
     e( 11 - 11) =      9.18908  eV     1   --> A              
     e( 12 - 12) =      9.21432  eV     1   --> A              
     e( 13 - 13) =      9.67632  eV     1   --> A              
     e( 14 - 14) =     11.14056  eV     1   --> A              
     e( 15 - 15) =     11.17165  eV     1   --> A              
     e( 16 - 16) =     11.54709  eV     1   --> A              
     e( 17 - 17) =     11.81399  eV     1   --> A              
     e( 18 - 18) =     12.47950  eV     1   --> A              
     e( 19 - 19) =     12.92988  eV     1   --> A              
     e( 20 - 20) =     13.78663  eV     1   --> A              

 **************************************************************************

 **************************************************************************

                    xk=(  -0.30158,   0.52237,   0.00000  )

     Band symmetry, C_1 (1)     point group:

     e(  1 -  1) =    -16.57508  eV     1   --> A              
     e(  2 -  2) =    -16.54731  eV     1   --> A              
     e(  3 -  3) =    -10.46325  eV     1   --> A              
     e(  4 -  4) =    -10.40264  eV     1   --> A              
     e(  5 -  5) =     -9.33684  eV     1   --> A              
     e(  6 -  6) =     -9.32241  eV     1   --> A              
     e(  7 -  7) =     -2.85164  eV     1   --> A              
     e(  8 -  8) =     -2.54858  eV     1   --> A              
     e(  9 -  9) =      2.27229  eV     1   --> A              
     e( 10 - 10) =      2.46392  eV     1   --> A              
     e( 11 - 11) =      8.97995  eV     1   --> A              
     e( 12 - 12) =      9.85819  eV     1   --> A              
     e( 13 - 13) =     10.16962  eV     1   --> A              
     e( 14 - 14) =     11.02901  eV     1   --> A              
     e( 15 - 15) =     11.48247  eV     1   --> A              
     e( 16 - 16) =     12.17598  eV     1   --> A              
     e( 17 - 17) =     12.19974  eV     1   --> A              
     e( 18 - 18) =     12.91977  eV     1   --> A              
     e( 19 - 19) =     13.37884  eV     1   --> A              
     e( 20 - 20) =     13.99009  eV     1   --> A              

 **************************************************************************

 **************************************************************************

                    xk=(  -0.31746,   0.54986,   0.00000  )

     Band symmetry, C_1 (1)     point group:

     e(  1 -  1) =    -16.49312  eV     1   --> A              
     e(  2 -  2) =    -16.48008  eV     1   --> A              
     e(  3 -  3) =    -10.42775  eV     1   --> A              
     e(  4 -  4) =    -10.35022  eV     1   --> A              
     e(  5 -  5) =     -9.54515  eV     1   --> A              
     e(  6 -  6) =     -9.54012  eV     1   --> A              
     e(  7 -  7) =     -2.65179  eV     1   --> A              
     e(  8 -  8) =     -2.50254  eV     1   --> A              
     e(  9 -  9) =      2.21828  eV     1   --> A              
     e( 10 - 10) =      2.32010  eV     1   --> A              
     e( 11 - 11) =      8.82829  eV     1   --> A              
     e( 12 - 12) =     10.39738  eV     1   --> A              
     e( 13 - 13) =     10.46669  eV     1   --> A              
     e( 14 - 14) =     10.86878  eV     1   --> A              
     e( 15 - 15) =     11.61720  eV     1   --> A              
     e( 16 - 16) =     12.50076  eV     1   --> A              
     e( 17 - 17) =     12.76607  eV     1   --> A              
     e( 18 - 18) =     13.25463  eV     1   --> A              
     e( 19 - 19) =     13.81499  eV     1   --> A              
     e( 20 - 20) =     14.07555  eV     1   --> A              

 **************************************************************************

 **************************************************************************

                    xk=(  -0.33333,   0.57735,   0.00000  )

     point group C_3 (3)    
     there are  3 classes
     the character table:

       E     C3    C3^2 
A      1.00  1.00  1.00
E      1.00 -0.50 -0.50
E*     1.00 -0.50 -0.50
     imaginary part
A      0.00  0.00  0.00
E      0.00  0.87 -0.87
E*     0.00 -0.87  0.87

     the symmetry operations in each class and the name of the first element:

     E        1
                                                                 
     C3       2
                                                                 
     C3^2     3
                                                                 

     Band symmetry, C_3 (3)     point group:

     e(  1 -  1) =    -16.46365  eV     1   --> A              
     e(  2 -  2) =    -16.46294  eV     1   --> E*             
     e(  3 -  3) =    -10.39241  eV     1   --> E              
     e(  4 -  4) =    -10.30459  eV     1   --> E              
     e(  5 -  5) =     -9.63739  eV     1   --> E*             
     e(  6 -  6) =     -9.63685  eV     1   --> A              
     e(  7 -  7) =     -2.53898  eV     1   -->   ?
     e(  8 -  8) =     -2.53823  eV     1   -->   ?
     e(  9 -  9) =      2.24098  eV     1   -->   ?
     e( 10 - 10) =      2.24124  eV     1   -->   ?
     e( 11 - 11) =      8.77308  eV     1   --> E              
     e( 12 - 12) =     10.54888  eV     1   --> E              
     e( 13 - 13) =     10.70657  eV     1   -->   ?
     e( 14 - 14) =     10.70694  eV     1   -->   ?
     e( 15 - 15) =     11.68147  eV     1   --> E              
     e( 16 - 16) =     12.72456  eV     1   -->   ?
     e( 17 - 17) =     12.72536  eV     1   -->   ?
     e( 18 - 18) =     13.83487  eV     1   -->   ?
     e( 19 - 19) =     13.83532  eV     1   -->   ?
     e( 20 - 20) =     14.05462  eV     1   --> E              

 **************************************************************************

 **************************************************************************

                    xk=(  -0.30303,   0.57735,   0.00000  )

     point group C_1 (1)    
     there are  1 classes
     the character table:

       E    
A      1.00

     the symmetry operations in each class and the name of the first element:

     E        1
                                                                 

     Band symmetry, C_1 (1)     point group:

     e(  1 -  1) =    -16.48667  eV     1   --> A              
     e(  2 -  2) =    -16.47638  eV     1   --> A              
     e(  3 -  3) =    -10.44250  eV     1   --> A              
     e(  4 -  4) =    -10.36444  eV     1   --> A              
     e(  5 -  5) =     -9.54363  eV     1   --> A              
     e(  6 -  6) =     -9.53048  eV     1   --> A              
     e(  7 -  7) =     -2.63205  eV     1   --> A              
     e(  8 -  8) =     -2.50494  eV     1   --> A              
     e(  9 -  9) =      2.20835  eV     1   --> A              
     e( 10 - 10) =      2.30908  eV     1   --> A              
     e( 11 - 11) =      8.82701  eV     1   --> A              
     e( 12 - 12) =     10.46830  eV     1   --> A              
     e( 13 - 13) =     10.56676  eV     1   --> A              
     e( 14 - 14) =     10.76059  eV     1   --> A              
     e( 15 - 15) =     11.57542  eV     1   --> A              
     e( 16 - 16) =     12.59358  eV     1   --> A              
     e( 17 - 17) =     12.75193  eV     1   --> A              
     e( 18 - 18) =     13.55919  eV     1   --> A              
     e( 19 - 19) =     13.57366  eV     1   --> A              
     e( 20 - 20) =     14.01292  eV     1   --> A              

 **************************************************************************

 **************************************************************************

                    xk=(  -0.27272,   0.57735,   0.00000  )

     Band symmetry, C_1 (1)     point group:

     e(  1 -  1) =    -16.53860  eV     1   --> A              
     e(  2 -  2) =    -16.52021  eV     1   --> A              
     e(  3 -  3) =    -10.56445  eV     1   --> A              
     e(  4 -  4) =    -10.50065  eV     1   --> A              
     e(  5 -  5) =     -9.29632  eV     1   --> A              
     e(  6 -  6) =     -9.26805  eV     1   --> A              
     e(  7 -  7) =     -2.76335  eV     1   --> A              
     e(  8 -  8) =     -2.52970  eV     1   --> A              
     e(  9 -  9) =      2.19558  eV     1   --> A              
     e( 10 - 10) =      2.39627  eV     1   --> A              
     e( 11 - 11) =      8.98992  eV     1   --> A              
     e( 12 - 12) =     10.21619  eV     1   --> A              
     e( 13 - 13) =     10.51255  eV     1   --> A              
     e( 14 - 14) =     10.66207  eV     1   --> A              
     e( 15 - 15) =     11.28039  eV     1   --> A              
     e( 16 - 16) =     12.40172  eV     1   --> A              
     e( 17 - 17) =     12.55937  eV     1   --> A              
     e( 18 - 18) =     13.19865  eV     1   --> A              
     e( 19 - 19) =     13.28750  eV     1   --> A              
     e( 20 - 20) =     13.60221  eV     1   --> A              

 **************************************************************************

 **************************************************************************

                    xk=(  -0.24242,   0.57735,   0.00000  )

     Band symmetry, C_1 (1)     point group:

     e(  1 -  1) =    -16.60929  eV     1   --> A              
     e(  2 -  2) =    -16.58475  eV     1   --> A              
     e(  3 -  3) =    -10.70838  eV     1   --> A              
     e(  4 -  4) =    -10.65399  eV     1   --> A              
     e(  5 -  5) =     -8.96212  eV     1   --> A              
     e(  6 -  6) =     -8.92520  eV     1   --> A              
     e(  7 -  7) =     -2.91409  eV     1   --> A              
     e(  8 -  8) =     -2.59540  eV     1   --> A              
     e(  9 -  9) =      2.18461  eV     1   --> A              
     e( 10 - 10) =      2.48256  eV     1   --> A              
     e( 11 - 11) =      9.25297  eV     1   --> A              
     e( 12 - 12) =      9.88570  eV     1   --> A              
     e( 13 - 13) =     10.45871  eV     1   --> A              
     e( 14 - 14) =     10.47283  eV     1   --> A              
     e( 15 - 15) =     10.90347  eV     1   --> A              
     e( 16 - 16) =     12.10380  eV     1   --> A              
     e( 17 - 17) =     12.20265  eV     1   --> A              
     e( 18 - 18) =     12.85090  eV     1   --> A              
     e( 19 - 19) =     12.99538  eV     1   --> A              
     e( 20 - 20) =     13.26961  eV     1   --> A              

 **************************************************************************

 **************************************************************************

                    xk=(  -0.21212,   0.57735,   0.00000  )

     Band symmetry, C_1 (1)     point group:

     e(  1 -  1) =    -16.68954  eV     1   --> A              
     e(  2 -  2) =    -16.66052  eV     1   --> A              
     e(  3 -  3) =    -10.84950  eV     1   --> A              
     e(  4 -  4) =    -10.80130  eV     1   --> A              
     e(  5 -  5) =     -8.58300  eV     1   --> A              
     e(  6 -  6) =     -8.54214  eV     1   --> A              
     e(  7 -  7) =     -3.07000  eV     1   --> A              
     e(  8 -  8) =     -2.68505  eV     1   --> A              
     e(  9 -  9) =      2.16514  eV     1   --> A              
     e( 10 - 10) =      2.55552  eV     1   --> A              
     e( 11 - 11) =      9.49557  eV     1   --> A              
     e( 12 - 12) =      9.58969  eV     1   --> A              
     e( 13 - 13) =     10.10786  eV     1   --> A              
     e( 14 - 14) =     10.43230  eV     1   --> A              
     e( 15 - 15) =     10.57110  eV     1   --> A              
     e( 16 - 16) =     11.77583  eV     1   --> A              
     e( 17 - 17) =     11.77949  eV     1   --> A              
     e( 18 - 18) =     12.54321  eV     1   --> A              
     e( 19 - 19) =     12.66047  eV     1   --> A              
     e( 20 - 20) =     13.03704  eV     1   --> A              

 **************************************************************************

 **************************************************************************

                    xk=(  -0.18182,   0.57735,   0.00000  )

     Band symmetry, C_1 (1)     point group:

     e(  1 -  1) =    -16.77155  eV     1   --> A              
     e(  2 -  2) =    -16.73908  eV     1   --> A              
     e(  3 -  3) =    -10.97770  eV     1   --> A              
     e(  4 -  4) =    -10.93363  eV     1   --> A              
     e(  5 -  5) =     -8.18581  eV     1   --> A              
     e(  6 -  6) =     -8.14370  eV     1   --> A              
     e(  7 -  7) =     -3.21943  eV     1   --> A              
     e(  8 -  8) =     -2.78376  eV     1   --> A              
     e(  9 -  9) =      2.13494  eV     1   --> A              
     e( 10 - 10) =      2.61030  eV     1   --> A              
     e( 11 - 11) =      9.05746  eV     1   --> A              
     e( 12 - 12) =      9.59787  eV     1   --> A              
     e( 13 - 13) =      9.95866  eV     1   --> A              
     e( 14 - 14) =     10.34197  eV     1   --> A              
     e( 15 - 15) =     10.38474  eV     1   --> A              
     e( 16 - 16) =     11.36057  eV     1   --> A              
     e( 17 - 17) =     11.51275  eV     1   --> A              
     e( 18 - 18) =     12.27849  eV     1   --> A              
     e( 19 - 19) =     12.35902  eV     1   --> A              
     e( 20 - 20) =     12.84116  eV     1   --> A              

 **************************************************************************

 **************************************************************************

                    xk=(  -0.15151,   0.57735,   0.00000  )

     Band symmetry, C_1 (1)     point group:

     e(  1 -  1) =    -16.84956  eV     1   --> A              
     e(  2 -  2) =    -16.81461  eV     1   --> A              
     e(  3 -  3) =    -11.08913  eV     1   --> A              
     e(  4 -  4) =    -11.04772  eV     1   --> A              
     e(  5 -  5) =     -7.79391  eV     1   --> A              
     e(  6 -  6) =     -7.75256  eV     1   --> A              
     e(  7 -  7) =     -3.35540  eV     1   --> A              
     e(  8 -  8) =     -2.88137  eV     1   --> A              
     e(  9 -  9) =      2.09662  eV     1   --> A              
     e( 10 - 10) =      2.64680  eV     1   --> A              
     e( 11 - 11) =      8.59302  eV     1   --> A              
     e( 12 - 12) =      9.04648  eV     1   --> A              
     e( 13 - 13) =     10.14860  eV     1   --> A              
     e( 14 - 14) =     10.27807  eV     1   --> A              
     e( 15 - 15) =     10.32975  eV     1   --> A              
     e( 16 - 16) =     11.00531  eV     1   --> A              
     e( 17 - 17) =     11.36811  eV     1   --> A              
     e( 18 - 18) =     12.05972  eV     1   --> A              
     e( 19 - 19) =     12.10858  eV     1   --> A              
     e( 20 - 20) =     12.67057  eV     1   --> A              

 **************************************************************************

 **************************************************************************

                    xk=(  -0.12121,   0.57735,   0.00000  )

     Band symmetry, C_1 (1)     point group:

     e(  1 -  1) =    -16.91903  eV     1   --> A              
     e(  2 -  2) =    -16.88231  eV     1   --> A              
     e(  3 -  3) =    -11.18184  eV     1   --> A              
     e(  4 -  4) =    -11.14250  eV     1   --> A              
     e(  5 -  5) =     -7.42951  eV     1   --> A              
     e(  6 -  6) =     -7.38924  eV     1   --> A              
     e(  7 -  7) =     -3.47323  eV     1   --> A              
     e(  8 -  8) =     -2.97033  eV     1   --> A              
     e(  9 -  9) =      2.05541  eV     1   --> A              
     e( 10 - 10) =      2.66806  eV     1   --> A              
     e( 11 - 11) =      8.13723  eV     1   --> A              
     e( 12 - 12) =      8.51587  eV     1   --> A              
     e( 13 - 13) =     10.01179  eV     1   --> A              
     e( 14 - 14) =     10.27193  eV     1   --> A              
     e( 15 - 15) =     10.41185  eV     1   --> A              
     e( 16 - 16) =     10.72553  eV     1   --> A              
     e( 17 - 17) =     11.39016  eV     1   --> A              
     e( 18 - 18) =     11.89625  eV     1   --> A              
     e( 19 - 19) =     11.90728  eV     1   --> A              
     e( 20 - 20) =     12.52797  eV     1   --> A              

 **************************************************************************

 **************************************************************************

                    xk=(  -0.09091,   0.57735,   0.00000  )

     Band symmetry, C_1 (1)     point group:

     e(  1 -  1) =    -16.97610  eV     1   --> A              
     e(  2 -  2) =    -16.93820  eV     1   --> A              
     e(  3 -  3) =    -11.25442  eV     1   --> A              
     e(  4 -  4) =    -11.21658  eV     1   --> A              
     e(  5 -  5) =     -7.11392  eV     1   --> A              
     e(  6 -  6) =     -7.07540  eV     1   --> A              
     e(  7 -  7) =     -3.56803  eV     1   --> A              
     e(  8 -  8) =     -3.04411  eV     1   --> A              
     e(  9 -  9) =      2.01691  eV     1   --> A              
     e( 10 - 10) =      2.67873  eV     1   --> A              
     e( 11 - 11) =      7.73076  eV     1   --> A              
     e( 12 - 12) =      8.05506  eV     1   --> A              
     e( 13 - 13) =      9.89841  eV     1   --> A              
     e( 14 - 14) =     10.21789  eV     1   --> A              
     e( 15 - 15) =     10.40564  eV     1   --> A              
     e( 16 - 16) =     10.51877  eV     1   --> A              
     e( 17 - 17) =     11.47743  eV     1   --> A              
     e( 18 - 18) =     11.75247  eV     1   --> A              
     e( 19 - 19) =     11.81817  eV     1   --> A              
     e( 20 - 20) =     12.41562  eV     1   --> A              

 **************************************************************************

 **************************************************************************

                    xk=(  -0.06061,   0.57735,   0.00000  )

     Band symmetry, C_1 (1)     point group:

     e(  1 -  1) =    -17.01845  eV     1   --> A              
     e(  2 -  2) =    -16.97977  eV     1   --> A              
     e(  3 -  3) =    -11.30643  eV     1   --> A              
     e(  4 -  4) =    -11.26993  eV     1   --> A              
     e(  5 -  5) =     -6.86874  eV     1   --> A              
     e(  6 -  6) =     -6.83180  eV     1   --> A              
     e(  7 -  7) =     -3.63697  eV     1   --> A              
     e(  8 -  8) =     -3.09886  eV     1   --> A              
     e(  9 -  9) =      1.98607  eV     1   --> A              
     e( 10 - 10) =      2.68318  eV     1   --> A              
     e( 11 - 11) =      7.41028  eV     1   --> A              
     e( 12 - 12) =      7.69912  eV     1   --> A              
     e( 13 - 13) =      9.81600  eV     1   --> A              
     e( 14 - 14) =     10.17373  eV     1   --> A              
     e( 15 - 15) =     10.35566  eV     1   --> A              
     e( 16 - 16) =     10.37803  eV     1   --> A              
     e( 17 - 17) =     11.48334  eV     1   --> A              
     e( 18 - 18) =     11.64263  eV     1   --> A              
     e( 19 - 19) =     11.84239  eV     1   --> A              
     e( 20 - 20) =     12.33473  eV     1   --> A              

 **************************************************************************

 **************************************************************************

                    xk=(  -0.03030,   0.57735,   0.00000  )

     Band symmetry, C_1 (1)     point group:

     e(  1 -  1) =    -17.04448  eV     1   --> A              
     e(  2 -  2) =    -17.00542  eV     1   --> A              
     e(  3 -  3) =    -11.33758  eV     1   --> A              
     e(  4 -  4) =    -11.30204  eV     1   --> A              
     e(  5 -  5) =     -6.71277  eV     1   --> A              
     e(  6 -  6) =     -6.67713  eV     1   --> A              
     e(  7 -  7) =     -3.67909  eV     1   --> A              
     e(  8 -  8) =     -3.13251  eV     1   --> A              
     e(  9 -  9) =      1.96602  eV     1   --> A              
     e( 10 - 10) =      2.68441  eV     1   --> A              
     e( 11 - 11) =      7.20531  eV     1   --> A              
     e( 12 - 12) =      7.47447  eV     1   --> A              
     e( 13 - 13) =      9.76601  eV     1   --> A              
     e( 14 - 14) =     10.14435  eV     1   --> A              
     e( 15 - 15) =     10.29696  eV     1   --> A              
     e( 16 - 16) =     10.31450  eV     1   --> A              
     e( 17 - 17) =     11.45276  eV     1   --> A              
     e( 18 - 18) =     11.57698  eV     1   --> A              
     e( 19 - 19) =     11.88349  eV     1   --> A              
     e( 20 - 20) =     12.28595  eV     1   --> A              

 **************************************************************************

 **************************************************************************

                    xk=(   0.00000,   0.57735,   0.00000  )

     point group C_s (m)    
     there are  2 classes
     the character table:

       E     s    
A'     1.00  1.00
A''    1.00 -1.00

     the symmetry operations in each class and the name of the first element:

     E        1
                                                                 
     s        2
                                                                 

     Band symmetry, C_s (m)     point group:

     e(  1 -  1) =    -17.05332  eV     1   --> A'             
     e(  2 -  2) =    -17.01408  eV     1   --> A'             
     e(  3 -  3) =    -11.34807  eV     1   --> A'             
     e(  4 -  4) =    -11.31267  eV     1   --> A'             
     e(  5 -  5) =     -6.65959  eV     1   --> A''            
     e(  6 -  6) =     -6.62392  eV     1   --> A''            
     e(  7 -  7) =     -3.69335  eV     1   --> A'             
     e(  8 -  8) =     -3.14420  eV     1   --> A'             
     e(  9 -  9) =      1.95908  eV     1   --> A'             
     e( 10 - 10) =      2.68431  eV     1   --> A'             
     e( 11 - 11) =      7.13477  eV     1   --> A'             
     e( 12 - 12) =      7.39753  eV     1   --> A'             
     e( 13 - 13) =      9.74921  eV     1   --> A'             
     e( 14 - 14) =     10.13386  eV     1   --> A'             
     e( 15 - 15) =     10.27063  eV     1   --> A'             
     e( 16 - 16) =     10.29945  eV     1   --> A'             
     e( 17 - 17) =     11.43904  eV     1   --> A'             
     e( 18 - 18) =     11.55512  eV     1   --> A'             
     e( 19 - 19) =     11.89803  eV     1   --> A'             
     e( 20 - 20) =     12.26964  eV     1   --> A'             

 **************************************************************************

 **************************************************************************

                    xk=(   0.00000,   0.54528,   0.00000  )

     Band symmetry, C_s (m)     point group:

     e(  1 -  1) =    -17.10104  eV     1   --> A'             
     e(  2 -  2) =    -17.05444  eV     1   --> A'             
     e(  3 -  3) =    -11.28076  eV     1   --> A'             
     e(  4 -  4) =    -11.24370  eV     1   --> A'             
     e(  5 -  5) =     -6.64365  eV     1   --> A''            
     e(  6 -  6) =     -6.60819  eV     1   --> A''            
     e(  7 -  7) =     -3.77789  eV     1   --> A'             
     e(  8 -  8) =     -3.19731  eV     1   --> A'             
     e(  9 -  9) =      2.05223  eV     1   --> A'             
     e( 10 - 10) =      2.76949  eV     1   --> A'             
     e( 11 - 11) =      7.09080  eV     1   --> A'             
     e( 12 - 12) =      7.39320  eV     1   --> A'             
     e( 13 - 13) =      9.30269  eV     1   --> A'             
     e( 14 - 14) =      9.53015  eV     1   --> A'             
     e( 15 - 15) =     10.54687  eV     1   --> A'             
     e( 16 - 16) =     10.83022  eV     1   --> A'             
     e( 17 - 17) =     10.87906  eV     1   --> A'             
     e( 18 - 18) =     11.56057  eV     1   --> A'             
     e( 19 - 19) =     11.93370  eV     1   --> A'             
     e( 20 - 20) =     12.40245  eV     1   --> A'             

 **************************************************************************

 **************************************************************************

                    xk=(   0.00000,   0.51320,   0.00000  )

     Band symmetry, C_s (m)     point group:

     e(  1 -  1) =    -17.23415  eV     1   --> A'             
     e(  2 -  2) =    -17.17179  eV     1   --> A'             
     e(  3 -  3) =    -11.08374  eV     1   --> A'             
     e(  4 -  4) =    -11.04253  eV     1   --> A'             
     e(  5 -  5) =     -6.59634  eV     1   --> A''            
     e(  6 -  6) =     -6.56101  eV     1   --> A''            
     e(  7 -  7) =     -4.00715  eV     1   --> A'             
     e(  8 -  8) =     -3.35398  eV     1   --> A'             
     e(  9 -  9) =      2.31799  eV     1   --> A'             
     e( 10 - 10) =      3.01060  eV     1   --> A'             
     e( 11 - 11) =      6.94636  eV     1   --> A'             
     e( 12 - 12) =      7.37297  eV     1   --> A'             
     e( 13 - 13) =      8.75175  eV     1   --> A'             
     e( 14 - 14) =      8.87125  eV     1   --> A'             
     e( 15 - 15) =      9.89649  eV     1   --> A'             
     e( 16 - 16) =     10.79157  eV     1   --> A'             
     e( 17 - 17) =     10.87628  eV     1   --> A'             
     e( 18 - 18) =     11.56218  eV     1   --> A'             
     e( 19 - 19) =     12.01924  eV     1   --> A'             
     e( 20 - 20) =     12.59595  eV     1   --> A'             

 **************************************************************************

 **************************************************************************

                    xk=(   0.00000,   0.48113,   0.00000  )

     Band symmetry, C_s (m)     point group:

     e(  1 -  1) =    -17.43203  eV     1   --> A'             
     e(  2 -  2) =    -17.35337  eV     1   --> A'             
     e(  3 -  3) =    -10.77340  eV     1   --> A'             
     e(  4 -  4) =    -10.72867  eV     1   --> A'             
     e(  5 -  5) =     -6.51786  eV     1   --> A''            
     e(  6 -  6) =     -6.48289  eV     1   --> A''            
     e(  7 -  7) =     -4.33350  eV     1   --> A'             
     e(  8 -  8) =     -3.59918  eV     1   --> A'             
     e(  9 -  9) =      2.72198  eV     1   --> A'             
     e( 10 - 10) =      3.37154  eV     1   --> A'             
     e( 11 - 11) =      6.67423  eV     1   --> A'             
     e( 12 - 12) =      7.29880  eV     1   --> A'             
     e( 13 - 13) =      8.28268  eV     1   --> A'             
     e( 14 - 14) =      8.32420  eV     1   --> A'             
     e( 15 - 15) =      9.19576  eV     1   --> A'             
     e( 16 - 16) =     10.17444  eV     1   --> A'             
     e( 17 - 17) =     10.42780  eV     1   --> A'             
     e( 18 - 18) =     11.78731  eV     1   --> A'             
     e( 19 - 19) =     12.16630  eV     1   --> A'             
     e( 20 - 20) =     12.77865  eV     1   --> A'             

 **************************************************************************

 **************************************************************************

                    xk=(   0.00000,   0.44905,   0.00000  )

     Band symmetry, C_s (m)     point group:

     e(  1 -  1) =    -17.67343  eV     1   --> A'             
     e(  2 -  2) =    -17.58048  eV     1   --> A'             
     e(  3 -  3) =    -10.37083  eV     1   --> A'             
     e(  4 -  4) =    -10.32438  eV     1   --> A'             
     e(  5 -  5) =     -6.41002  eV     1   --> A''            
     e(  6 -  6) =     -6.37530  eV     1   --> A''            
     e(  7 -  7) =     -4.71473  eV     1   --> A'             
     e(  8 -  8) =     -3.90752  eV     1   --> A'             
     e(  9 -  9) =      3.22105  eV     1   --> A'             
     e( 10 - 10) =      3.80932  eV     1   --> A'             
     e( 11 - 11) =      6.27930  eV     1   --> A'             
     e( 12 - 12) =      7.07069  eV     1   --> A'             
     e( 13 - 13) =      7.91700  eV     1   --> A'             
     e( 14 - 14) =      7.95811  eV     1   --> A'             
     e( 15 - 15) =      8.58492  eV     1   --> A'             
     e( 16 - 16) =      9.52148  eV     1   --> A'             
     e( 17 - 17) =      9.97107  eV     1   --> A'             
     e( 18 - 18) =     11.36772  eV     1   --> A'             
     e( 19 - 19) =     12.02460  eV     1   --> A'             
     e( 20 - 20) =     13.07916  eV     1   --> A'             

 **************************************************************************

 **************************************************************************

                    xk=(   0.00000,   0.41698,   0.00000  )

     Band symmetry, C_s (m)     point group:

     e(  1 -  1) =    -17.93917  eV     1   --> A'             
     e(  2 -  2) =    -17.83416  eV     1   --> A'             
     e(  3 -  3) =     -9.89650  eV     1   --> A'             
     e(  4 -  4) =     -9.85057  eV     1   --> A'             
     e(  5 -  5) =     -6.27313  eV     1   --> A''            
     e(  6 -  6) =     -6.23881  eV     1   --> A''            
     e(  7 -  7) =     -5.11955  eV     1   --> A'             
     e(  8 -  8) =     -4.25167  eV     1   --> A'             
     e(  9 -  9) =      3.76947  eV     1   --> A'             
     e( 10 - 10) =      4.28154  eV     1   --> A'             
     e( 11 - 11) =      5.81280  eV     1   --> A'             
     e( 12 - 12) =      6.67572  eV     1   --> A'             
     e( 13 - 13) =      7.53448  eV     1   --> A'             
     e( 14 - 14) =      7.78478  eV     1   --> A'             
     e( 15 - 15) =      8.14588  eV     1   --> A'             
     e( 16 - 16) =      8.92754  eV     1   --> A'             
     e( 17 - 17) =      9.53974  eV     1   --> A'             
     e( 18 - 18) =     10.93666  eV     1   --> A'             
     e( 19 - 19) =     11.51208  eV     1   --> A'             
     e( 20 - 20) =     13.42794  eV     1   --> A'             

 **************************************************************************

 **************************************************************************

                    xk=(   0.00000,   0.38490,   0.00000  )

     Band symmetry, C_s (m)     point group:

     e(  1 -  1) =    -18.21486  eV     1   --> A'             
     e(  2 -  2) =    -18.09990  eV     1   --> A'             
     e(  3 -  3) =     -9.36861  eV     1   --> A'             
     e(  4 -  4) =     -9.32472  eV     1   --> A'             
     e(  5 -  5) =     -6.10950  eV     1   --> A''            
     e(  6 -  6) =     -6.07561  eV     1   --> A''            
     e(  7 -  7) =     -5.52795  eV     1   --> A'             
     e(  8 -  8) =     -4.61034  eV     1   --> A'             
     e(  9 -  9) =      4.30289  eV     1   --> A'             
     e( 10 - 10) =      4.73314  eV     1   --> A'             
     e( 11 - 11) =      5.33137  eV     1   --> A'             
     e( 12 - 12) =      6.28941  eV     1   --> A'             
     e( 13 - 13) =      7.03078  eV     1   --> A'             
     e( 14 - 14) =      7.70140  eV     1   --> A'             
     e( 15 - 15) =      7.86045  eV     1   --> A'             
     e( 16 - 16) =      8.43680  eV     1   --> A'             
     e( 17 - 17) =      9.17904  eV     1   --> A'             
     e( 18 - 18) =     10.53124  eV     1   --> A'             
     e( 19 - 19) =     10.98764  eV     1   --> A'             
     e( 20 - 20) =     13.24913  eV     1   --> A'             

 **************************************************************************

 **************************************************************************

                    xk=(   0.00000,   0.35283,   0.00000  )

     Band symmetry, C_s (m)     point group:

     e(  1 -  1) =    -18.48950  eV     1   --> A'             
     e(  2 -  2) =    -18.36603  eV     1   --> A'             
     e(  3 -  3) =     -8.80231  eV     1   --> A'             
     e(  4 -  4) =     -8.76139  eV     1   --> A'             
     e(  5 -  5) =     -5.92597  eV     1   --> A'             
     e(  6 -  6) =     -5.92194  eV     1   --> A''            
     e(  7 -  7) =     -5.88863  eV     1   --> A''            
     e(  8 -  8) =     -4.96829  eV     1   --> A'             
     e(  9 -  9) =      4.65300  eV     1   --> A'             
     e( 10 - 10) =      4.81590  eV     1   --> A'             
     e( 11 - 11) =      5.17335  eV     1   --> A'             
     e( 12 - 12) =      6.11535  eV     1   --> A'             
     e( 13 - 13) =      6.51860  eV     1   --> A'             
     e( 14 - 14) =      7.50864  eV     1   --> A'             
     e( 15 - 15) =      7.61596  eV     1   --> A'             
     e( 16 - 16) =      8.16158  eV     1   --> A'             
     e( 17 - 17) =      8.91289  eV     1   --> A'             
     e( 18 - 18) =     10.17108  eV     1   --> A'             
     e( 19 - 19) =     10.49499  eV     1   --> A'             
     e( 20 - 20) =     12.90179  eV     1   --> A'             

 **************************************************************************

 **************************************************************************

                    xk=(   0.00000,   0.32075,   0.00000  )

     Band symmetry, C_s (m)     point group:

     e(  1 -  1) =    -18.75496  eV     1   --> A'             
     e(  2 -  2) =    -18.62434  eV     1   --> A'             
     e(  3 -  3) =     -8.21094  eV     1   --> A'             
     e(  4 -  4) =     -8.17435  eV     1   --> A'             
     e(  5 -  5) =     -6.30404  eV     1   --> A'             
     e(  6 -  6) =     -5.71299  eV     1   --> A''            
     e(  7 -  7) =     -5.68062  eV     1   --> A''            
     e(  8 -  8) =     -5.31361  eV     1   --> A'             
     e(  9 -  9) =      4.36878  eV     1   --> A'             
     e( 10 - 10) =      4.60209  eV     1   --> A'             
     e( 11 - 11) =      5.50871  eV     1   --> A'             
     e( 12 - 12) =      6.04675  eV     1   --> A'             
     e( 13 - 13) =      6.26730  eV     1   --> A'             
     e( 14 - 14) =      7.22493  eV     1   --> A'             
     e( 15 - 15) =      7.39092  eV     1   --> A'             
     e( 16 - 16) =      8.10663  eV     1   --> A'             
     e( 17 - 17) =      8.73988  eV     1   --> A'             
     e( 18 - 18) =      9.87115  eV     1   --> A'             
     e( 19 - 19) =     10.05020  eV     1   --> A'             
     e( 20 - 20) =     12.57416  eV     1   --> A'             

 **************************************************************************

 **************************************************************************

                    xk=(   0.00000,   0.28868,   0.00000  )

     Band symmetry, C_s (m)     point group:

     e(  1 -  1) =    -19.00558  eV     1   --> A'             
     e(  2 -  2) =    -18.86875  eV     1   --> A'             
     e(  3 -  3) =     -7.60717  eV     1   --> A'             
     e(  4 -  4) =     -7.57762  eV     1   --> A'             
     e(  5 -  5) =     -6.65384  eV     1   --> A'             
     e(  6 -  6) =     -5.63864  eV     1   --> A'             
     e(  7 -  7) =     -5.48735  eV     1   --> A''            
     e(  8 -  8) =     -5.45578  eV     1   --> A''            
     e(  9 -  9) =      3.94866  eV     1   --> A'             
     e( 10 - 10) =      4.31313  eV     1   --> A'             
     e( 11 - 11) =      5.50042  eV     1   --> A'             
     e( 12 - 12) =      5.85337  eV     1   --> A'             
     e( 13 - 13) =      6.33439  eV     1   --> A'             
     e( 14 - 14) =      7.17351  eV     1   --> A'             
     e( 15 - 15) =      7.25732  eV     1   --> A'             
     e( 16 - 16) =      8.13113  eV     1   --> A'             
     e( 17 - 17) =      8.64525  eV     1   --> A'             
     e( 18 - 18) =      9.64093  eV     1   --> A'             
     e( 19 - 19) =      9.66918  eV     1   --> A'             
     e( 20 - 20) =     12.28389  eV     1   --> A'             

 **************************************************************************

 **************************************************************************

                    xk=(   0.00000,   0.25660,   0.00000  )

     Band symmetry, C_s (m)     point group:

     e(  1 -  1) =    -19.23702  eV     1   --> A'             
     e(  2 -  2) =    -19.09497  eV     1   --> A'             
     e(  3 -  3) =     -7.06544  eV     1   --> A'             
     e(  4 -  4) =     -7.00180  eV     1   --> A'             
     e(  5 -  5) =     -6.88924  eV     1   --> A'             
     e(  6 -  6) =     -5.93686  eV     1   --> A'             
     e(  7 -  7) =     -5.24922  eV     1   --> A''            
     e(  8 -  8) =     -5.21905  eV     1   --> A''            
     e(  9 -  9) =      3.56319  eV     1   --> A'             
     e( 10 - 10) =      3.98183  eV     1   --> A'             
     e( 11 - 11) =      5.13076  eV     1   --> A'             
     e( 12 - 12) =      5.85768  eV     1   --> A'             
     e( 13 - 13) =      6.09323  eV     1   --> A'             
     e( 14 - 14) =      7.12451  eV     1   --> A'             
     e( 15 - 15) =      7.56689  eV     1   --> A'             
     e( 16 - 16) =      8.18216  eV     1   --> A'             
     e( 17 - 17) =      8.62338  eV     1   --> A'             
     e( 18 - 18) =      9.37422  eV     1   --> A'             
     e( 19 - 19) =      9.48300  eV     1   --> A'             
     e( 20 - 20) =     11.97760  eV     1   --> A'             

 **************************************************************************

 **************************************************************************

                    xk=(   0.00000,   0.22453,   0.00000  )

     Band symmetry, C_s (m)     point group:

     e(  1 -  1) =    -19.44643  eV     1   --> A'             
     e(  2 -  2) =    -19.29993  eV     1   --> A'             
     e(  3 -  3) =     -7.28588  eV     1   --> A'             
     e(  4 -  4) =     -6.43267  eV     1   --> A'             
     e(  5 -  5) =     -6.36859  eV     1   --> A'             
     e(  6 -  6) =     -6.18427  eV     1   --> A'             
     e(  7 -  7) =     -5.00553  eV     1   --> A''            
     e(  8 -  8) =     -4.97684  eV     1   --> A''            
     e(  9 -  9) =      3.21668  eV     1   --> A'             
     e( 10 - 10) =      3.66377  eV     1   --> A'             
     e( 11 - 11) =      4.77657  eV     1   --> A'             
     e( 12 - 12) =      5.73213  eV     1   --> A'             
     e( 13 - 13) =      5.78722  eV     1   --> A'             
     e( 14 - 14) =      7.07499  eV     1   --> A'             
     e( 15 - 15) =      7.85334  eV     1   --> A'             
     e( 16 - 16) =      8.31610  eV     1   --> A'             
     e( 17 - 17) =      8.67022  eV     1   --> A'             
     e( 18 - 18) =      9.21288  eV     1   --> A'             
     e( 19 - 19) =      9.38093  eV     1   --> A'             
     e( 20 - 20) =     11.56451  eV     1   --> A'             

 **************************************************************************

 **************************************************************************

                    xk=(   0.00000,   0.19245,   0.00000  )

     Band symmetry, C_s (m)     point group:

     e(  1 -  1) =    -19.63136  eV     1   --> A'             
     e(  2 -  2) =    -19.48100  eV     1   --> A'             
     e(  3 -  3) =     -7.53760  eV     1   --> A'             
     e(  4 -  4) =     -6.46669  eV     1   --> A'             
     e(  5 -  5) =     -5.82204  eV     1   --> A'             
     e(  6 -  6) =     -5.80476  eV     1   --> A'             
     e(  7 -  7) =     -4.76339  eV     1   --> A''            
     e(  8 -  8) =     -4.73613  eV     1   --> A''            
     e(  9 -  9) =      2.91116  eV     1   --> A'             
     e( 10 - 10) =      3.37693  eV     1   --> A'             
     e( 11 - 11) =      4.46450  eV     1   --> A'             
     e( 12 - 12) =      5.49868  eV     1   --> A'             
     e( 13 - 13) =      5.54437  eV     1   --> A'             
     e( 14 - 14) =      7.00033  eV     1   --> A'             
     e( 15 - 15) =      7.85861  eV     1   --> A'             
     e( 16 - 16) =      8.57767  eV     1   --> A'             
     e( 17 - 17) =      8.76140  eV     1   --> A'             
     e( 18 - 18) =      9.24375  eV     1   --> A'             
     e( 19 - 19) =      9.31721  eV     1   --> A'             
     e( 20 - 20) =     11.17211  eV     1   --> A'             

 **************************************************************************

 **************************************************************************

                    xk=(   0.00000,   0.16038,   0.00000  )

     Band symmetry, C_s (m)     point group:

     e(  1 -  1) =    -19.79016  eV     1   --> A'             
     e(  2 -  2) =    -19.63649  eV     1   --> A'             
     e(  3 -  3) =     -7.75508  eV     1   --> A'             
     e(  4 -  4) =     -6.66727  eV     1   --> A'             
     e(  5 -  5) =     -5.29822  eV     1   --> A'             
     e(  6 -  6) =     -5.27987  eV     1   --> A'             
     e(  7 -  7) =     -4.53143  eV     1   --> A''            
     e(  8 -  8) =     -4.50594  eV     1   --> A''            
     e(  9 -  9) =      2.64800  eV     1   --> A'             
     e( 10 - 10) =      3.12836  eV     1   --> A'             
     e( 11 - 11) =      4.19814  eV     1   --> A'             
     e( 12 - 12) =      5.24643  eV     1   --> A'             
     e( 13 - 13) =      5.34726  eV     1   --> A'             
     e( 14 - 14) =      6.89877  eV     1   --> A'             
     e( 15 - 15) =      7.73463  eV     1   --> A'             
     e( 16 - 16) =      8.76536  eV     1   --> A'             
     e( 17 - 17) =      8.86337  eV     1   --> A'             
     e( 18 - 18) =      9.26744  eV     1   --> A'             
     e( 19 - 19) =      9.47573  eV     1   --> A'             
     e( 20 - 20) =     10.65382  eV     1   --> A''            

 **************************************************************************

 **************************************************************************

                    xk=(   0.00000,   0.12830,   0.00000  )

     Band symmetry, C_s (m)     point group:

     e(  1 -  1) =    -19.92171  eV     1   --> A'             
     e(  2 -  2) =    -19.76545  eV     1   --> A'             
     e(  3 -  3) =     -7.93504  eV     1   --> A'             
     e(  4 -  4) =     -6.83644  eV     1   --> A'             
     e(  5 -  5) =     -4.82889  eV     1   --> A'             
     e(  6 -  6) =     -4.81119  eV     1   --> A'             
     e(  7 -  7) =     -4.32113  eV     1   --> A''            
     e(  8 -  8) =     -4.29762  eV     1   --> A''            
     e(  9 -  9) =      2.42841  eV     1   --> A'             
     e( 10 - 10) =      2.92153  eV     1   --> A'             
     e( 11 - 11) =      3.97874  eV     1   --> A'             
     e( 12 - 12) =      5.03608  eV     1   --> A'             
     e( 13 - 13) =      5.16688  eV     1   --> A'             
     e( 14 - 14) =      6.78956  eV     1   --> A'             
     e( 15 - 15) =      7.58338  eV     1   --> A'             
     e( 16 - 16) =      8.88169  eV     1   --> A'             
     e( 17 - 17) =      8.95436  eV     1   --> A'             
     e( 18 - 18) =      9.22755  eV     1   --> A'             
     e( 19 - 19) =      9.76702  eV     1   --> A'             
     e( 20 - 20) =     10.12036  eV     1   --> A''            

 **************************************************************************

 **************************************************************************

                    xk=(   0.00000,   0.09623,   0.00000  )

     Band symmetry, C_s (m)     point group:

     e(  1 -  1) =    -20.02475  eV     1   --> A'             
     e(  2 -  2) =    -19.86646  eV     1   --> A'             
     e(  3 -  3) =     -8.07567  eV     1   --> A'             
     e(  4 -  4) =     -6.96942  eV     1   --> A'             
     e(  5 -  5) =     -4.43468  eV     1   --> A'             
     e(  6 -  6) =     -4.41724  eV     1   --> A'             
     e(  7 -  7) =     -4.14079  eV     1   --> A''            
     e(  8 -  8) =     -4.11908  eV     1   --> A''            
     e(  9 -  9) =      2.25402  eV     1   --> A'             
     e( 10 - 10) =      2.75864  eV     1   --> A'             
     e( 11 - 11) =      3.80711  eV     1   --> A'             
     e( 12 - 12) =      4.87045  eV     1   --> A'             
     e( 13 - 13) =      5.01658  eV     1   --> A'             
     e( 14 - 14) =      6.69044  eV     1   --> A'             
     e( 15 - 15) =      7.44435  eV     1   --> A'             
     e( 16 - 16) =      8.96990  eV     1   --> A'             
     e( 17 - 17) =      9.03018  eV     1   --> A'             
     e( 18 - 18) =      9.19091  eV     1   --> A'             
     e( 19 - 19) =      9.68711  eV     1   --> A''            
     e( 20 - 20) =      9.75492  eV     1   --> A''            

 **************************************************************************

 **************************************************************************

                    xk=(   0.00000,   0.06415,   0.00000  )

     Band symmetry, C_s (m)     point group:

     e(  1 -  1) =    -20.09889  eV     1   --> A'             
     e(  2 -  2) =    -19.93916  eV     1   --> A'             
     e(  3 -  3) =     -8.17664  eV     1   --> A'             
     e(  4 -  4) =     -7.06502  eV     1   --> A'             
     e(  5 -  5) =     -4.13642  eV     1   --> A'             
     e(  6 -  6) =     -4.11852  eV     1   --> A'             
     e(  7 -  7) =     -4.00325  eV     1   --> A''            
     e(  8 -  8) =     -3.98228  eV     1   --> A''            
     e(  9 -  9) =      2.12681  eV     1   --> A'             
     e( 10 - 10) =      2.64107  eV     1   --> A'             
     e( 11 - 11) =      3.68386  eV     1   --> A'             
     e( 12 - 12) =      4.75105  eV     1   --> A'             
     e( 13 - 13) =      4.90387  eV     1   --> A'             
     e( 14 - 14) =      6.61256  eV     1   --> A'             
     e( 15 - 15) =      7.33551  eV     1   --> A'             
     e( 16 - 16) =      9.03365  eV     1   --> A'             
     e( 17 - 17) =      9.09129  eV     1   --> A'             
     e( 18 - 18) =      9.16094  eV     1   --> A'             
     e( 19 - 19) =      9.36625  eV     1   --> A''            
     e( 20 - 20) =      9.43554  eV     1   --> A''            

 **************************************************************************

 **************************************************************************

                    xk=(   0.00000,   0.03208,   0.00000  )

     Band symmetry, C_s (m)     point group:

     e(  1 -  1) =    -20.14339  eV     1   --> A'             
     e(  2 -  2) =    -19.98284  eV     1   --> A'             
     e(  3 -  3) =     -8.23720  eV     1   --> A'             
     e(  4 -  4) =     -7.12249  eV     1   --> A'             
     e(  5 -  5) =     -3.94960  eV     1   --> A'             
     e(  6 -  6) =     -3.93030  eV     1   --> A'             
     e(  7 -  7) =     -3.91512  eV     1   --> A''            
     e(  8 -  8) =     -3.89481  eV     1   --> A''            
     e(  9 -  9) =      2.04916  eV     1   --> A'             
     e( 10 - 10) =      2.57003  eV     1   --> A'             
     e( 11 - 11) =      3.60961  eV     1   --> A'             
     e( 12 - 12) =      4.67899  eV     1   --> A'             
     e( 13 - 13) =      4.83419  eV     1   --> A'             
     e( 14 - 14) =      6.56338  eV     1   --> A'             
     e( 15 - 15) =      7.26677  eV     1   --> A'             
     e( 16 - 16) =      9.07352  eV     1   --> A'             
     e( 17 - 17) =      9.11559  eV     1   --> A'             
     e( 18 - 18) =      9.15936  eV     1   --> A'             
     e( 19 - 19) =      9.16919  eV     1   --> A''            
     e( 20 - 20) =      9.23933  eV     1   --> A''            

 **************************************************************************

 **************************************************************************

                    xk=(   0.00000,   0.00000,   0.00000  )

     point group C_3v (3m)  
     there are  3 classes
     the character table:

       E     2C3   3s_v 
A_1    1.00  1.00  1.00
A_2    1.00  1.00 -1.00
E      2.00 -1.00  0.00

     the symmetry operations in each class and the name of the first element:

     E        1
                                                                 
     2C3      2    3
                                                                 
     3s_v     4    5    6
                                                                 

     Band symmetry, C_3v (3m)   point group:

     e(  1 -  1) =    -20.15819  eV     1   --> A_1  L_1       
     e(  2 -  2) =    -19.99750  eV     1   --> A_1  L_1       
     e(  3 -  3) =     -8.25771  eV     1   --> A_1  L_1       
     e(  4 -  4) =     -7.14198  eV     1   --> A_1  L_1       
     e(  5 -  6) =     -3.88544  eV     2   --> E    L_3       
     e(  7 -  8) =     -3.86487  eV     2   --> E    L_3       
     e(  9 -  9) =      2.02302  eV     1   --> A_1  L_1       
     e( 10 - 10) =      2.54625  eV     1   --> A_1  L_1       
     e( 11 - 11) =      3.58481  eV     1   --> A_1  L_1       
     e( 12 - 12) =      4.65490  eV     1   --> A_1  L_1       
     e( 13 - 13) =      4.81057  eV     1   --> A_1  L_1       
     e( 14 - 14) =      6.54636  eV     1   --> A_1  L_1       
     e( 15 - 15) =      7.24332  eV     1   --> A_1  L_1       
     e( 16 - 16) =      9.09507  eV     1   --> A_1  L_1       
     e( 17 - 18) =      9.10224  eV     2   --> E    L_3       
     e( 19 - 20) =      9.17248  eV     2   --> E    L_3       

 **************************************************************************

     BANDS        :     10.25s CPU     10.35s WALL


   This run was terminated on:   6: 0:38  14Apr2025            

=------------------------------------------------------------------------------=
   JOB DONE.
=------------------------------------------------------------------------------=
