
     Program PWSCF v.7.0 starts on 14Apr2025 at  5:59:38 

     This program is part of the open-source Quantum ESPRESSO suite
     for quantum simulation of materials; please cite
         "P. Giannozzi et al., J. Phys.:Condens. Matter 21 395502 (2009);
         "P. Giannozzi et al., J. Phys.:Condens. Matter 29 465901 (2017);
         "P. Giannozzi et al., J. Chem. Phys. 152 154105 (2020);
          URL http://www.quantum-espresso.org", 
     in publications or presentations arising from this work. More details at
     http://www.quantum-espresso.org/quote

     Parallel version (MPI & OpenMP), running on       8 processor cores
     Number of MPI processes:                 8
     Threads/MPI process:                     1

     MPI processes distributed on     1 nodes
     R & G space division:  proc/nbgrp/npool/nimage =       8
     0 MiB available memory on the printing compute node when the environment starts

     Waiting for input...
     Reading input from standard input
Warning: card &CELL ignored
Warning: card CELL_DOFREE = 'Z' ignored
Warning: card / ignored

     Current dimensions of program PWSCF are:
     Max number of different atomic species (ntypx) = 10
     Max number of k-points (npk) =  40000
     Max angular momentum in pseudopotentials (lmaxx) =  4

     IMPORTANT: XC functional enforced from input :
     Exchange-correlation= VDW-DF2-B86R
                           (   1   4  26   0   2   0   0)
     Any further DFT definition will be discarded
     Please, verify this is what you really want


     Subspace diagonalization in iterative solution of the eigenvalue problem:
     one sub-group per band group will be used
     scalapack distributed-memory algorithm (size of sub-group:  2*  2 procs)


     Parallelization info
     --------------------
     sticks:   dense  smooth     PW     G-vecs:    dense   smooth      PW
     Min          45      45     14                 5791     5791    1010
     Max          46      46     16                 5824     5824    1027
     Sum         367     367    121                46525    46525    8181

     Using Slab Decomposition



     bravais-lattice index     =            4
     lattice parameter (alat)  =       4.7489  a.u.
     unit-cell volume          =     741.9928 (a.u.)^3
     number of atoms/cell      =            4
     number of atomic types    =            2
     number of electrons       =        16.00
     number of Kohn-Sham states=            8
     kinetic-energy cutoff     =      60.0000  Ry
     charge density cutoff     =     240.0000  Ry
     scf convergence threshold =      1.0E-06
     mixing beta               =       0.7000
     number of iterations used =            8  plain     mixing
     Exchange-correlation= VDW-DF2-B86R
                           (   1   4  26   0   2   0   0)

     celldm(1)=   4.748900  celldm(2)=   0.000000  celldm(3)=   8.000000
     celldm(4)=   0.000000  celldm(5)=   0.000000  celldm(6)=   0.000000

     crystal axes: (cart. coord. in units of alat)
               a(1) = (   1.000000   0.000000   0.000000 )  
               a(2) = (  -0.500000   0.866025   0.000000 )  
               a(3) = (   0.000000   0.000000   8.000000 )  

     reciprocal axes: (cart. coord. in units 2 pi/alat)
               b(1) = (  1.000000  0.577350 -0.000000 )  
               b(2) = (  0.000000  1.154701  0.000000 )  
               b(3) = (  0.000000 -0.000000  0.125000 )  


     PseudoPot. # 1 for B  read from file:
     ../../../../Pseudo/PBE/B.upf
     MD5 check sum: 72f82fc31bc892420d0cab7e25c88ab8
     Pseudo is Norm-conserving + core correction, Zval =  3.0
     Generated using ONCVPSP code by D. R. Hamann
     Using radial grid of 1534 points,  4 beta functions with: 
                l(1) =   0
                l(2) =   0
                l(3) =   1
                l(4) =   1

     PseudoPot. # 2 for N  read from file:
     ../../../../Pseudo/PBE/N.upf
     MD5 check sum: d34365f73bb0e2ee98afc20ec3e87676
     Pseudo is Norm-conserving + core correction, Zval =  5.0
     Generated using ONCVPSP code by D. R. Hamann
     Using radial grid of 1058 points,  4 beta functions with: 
                l(1) =   0
                l(2) =   0
                l(3) =   1
                l(4) =   1

     atomic species   valence    mass     pseudopotential
        B              3.00    10.00000     B ( 1.00)
        N              5.00    14.01100     N ( 1.00)

      6 Sym. Ops. (no inversion) found


                                    s                        frac. trans.

      isym =  1     identity                                     

 cryst.   s( 1) = (     1          0          0      )
                  (     0          1          0      )
                  (     0          0          1      )

 cart.    s( 1) = (  1.0000000  0.0000000  0.0000000 )
                  (  0.0000000  1.0000000  0.0000000 )
                  (  0.0000000  0.0000000  1.0000000 )


      isym =  2     120 deg rotation - cryst. axis [0,0,1]       

 cryst.   s( 2) = (     0          1          0      )
                  (    -1         -1          0      )
                  (     0          0          1      )

 cart.    s( 2) = ( -0.5000000 -0.8660254  0.0000000 )
                  (  0.8660254 -0.5000000  0.0000000 )
                  (  0.0000000  0.0000000  1.0000000 )


      isym =  3     120 deg rotation - cryst. axis [0,0,-1]      

 cryst.   s( 3) = (    -1         -1          0      )
                  (     1          0          0      )
                  (     0          0          1      )

 cart.    s( 3) = ( -0.5000000  0.8660254  0.0000000 )
                  ( -0.8660254 -0.5000000  0.0000000 )
                  (  0.0000000  0.0000000  1.0000000 )


      isym =  4     inv. 180 deg rotation - cart. axis [1,0,0]   

 cryst.   s( 4) = (    -1          0          0      )
                  (     1          1          0      )
                  (     0          0          1      )

 cart.    s( 4) = ( -1.0000000  0.0000000  0.0000000 )
                  (  0.0000000  1.0000000  0.0000000 )
                  (  0.0000000  0.0000000  1.0000000 )


      isym =  5     inv. 180 deg rotation - cryst. axis [0,1,0]  

 cryst.   s( 5) = (     1          1          0      )
                  (     0         -1          0      )
                  (     0          0          1      )

 cart.    s( 5) = (  0.5000000  0.8660254  0.0000000 )
                  (  0.8660254 -0.5000000  0.0000000 )
                  (  0.0000000  0.0000000  1.0000000 )


      isym =  6     inv. 180 deg rotation - cryst. axis [1,1,0]  

 cryst.   s( 6) = (     0         -1          0      )
                  (    -1          0          0      )
                  (     0          0          1      )

 cart.    s( 6) = (  0.5000000 -0.8660254  0.0000000 )
                  ( -0.8660254 -0.5000000  0.0000000 )
                  (  0.0000000  0.0000000  1.0000000 )


     point group C_3v (3m)  
     there are  3 classes
     the character table:

       E     2C3   3s_v 
A_1    1.00  1.00  1.00
A_2    1.00  1.00 -1.00
E      2.00 -1.00  0.00

     the symmetry operations in each class and the name of the first element:

     E        1
          identity                                               
     2C3      2    3
          120 deg rotation - cryst. axis [0,0,1]                 
     3s_v     4    5    6
          inv. 180 deg rotation - cart. axis [1,0,0]             

   Cartesian axes

     site n.     atom                  positions (alat units)
         1           B   tau(   1) = (   0.0000000   0.0000000   0.0000000  )
         2           N   tau(   2) = (   0.5000005   0.2886748   0.0000000  )
         3           N   tau(   3) = (   0.0000000   0.0000000   1.3119520  )
         4           B   tau(   4) = (   0.5000005   0.2886748   1.3119520  )

   Crystallographic axes

     site n.     atom                  positions (cryst. coord.)
         1           B   tau(   1) = (  0.0000000  0.0000000  0.0000000  )
         2           N   tau(   2) = (  0.6666670  0.3333330  0.0000000  )
         3           N   tau(   3) = (  0.0000000  0.0000000  0.1639940  )
         4           B   tau(   4) = (  0.6666670  0.3333330  0.1639940  )

     number of k points=    19
                       cart. coord. in units 2pi/alat
        k(    1) = (   0.0000000   0.0000000   0.0000000), wk =   0.0138889
        k(    2) = (   0.0000000   0.0962250   0.0000000), wk =   0.0833333
        k(    3) = (   0.0000000   0.1924501   0.0000000), wk =   0.0833333
        k(    4) = (   0.0000000   0.2886751   0.0000000), wk =   0.0833333
        k(    5) = (   0.0000000   0.3849002   0.0000000), wk =   0.0833333
        k(    6) = (   0.0000000   0.4811252   0.0000000), wk =   0.0833333
        k(    7) = (   0.0000000  -0.5773503   0.0000000), wk =   0.0416667
        k(    8) = (   0.0833333   0.1443376   0.0000000), wk =   0.0833333
        k(    9) = (   0.0833333   0.2405626   0.0000000), wk =   0.1666667
        k(   10) = (   0.0833333   0.3367877   0.0000000), wk =   0.1666667
        k(   11) = (   0.0833333   0.4330127   0.0000000), wk =   0.1666667
        k(   12) = (   0.0833333   0.5292377   0.0000000), wk =   0.1666667
        k(   13) = (   0.1666667   0.2886751   0.0000000), wk =   0.0833333
        k(   14) = (   0.1666667   0.3849002   0.0000000), wk =   0.1666667
        k(   15) = (   0.1666667   0.4811252   0.0000000), wk =   0.1666667
        k(   16) = (   0.1666667   0.5773503   0.0000000), wk =   0.0833333
        k(   17) = (   0.2500000   0.4330127   0.0000000), wk =   0.0833333
        k(   18) = (   0.2500000   0.5292377   0.0000000), wk =   0.1666667
        k(   19) = (   0.3333333   0.5773503   0.0000000), wk =   0.0277778

                       cryst. coord.
        k(    1) = (   0.0000000   0.0000000   0.0000000), wk =   0.0138889
        k(    2) = (   0.0000000   0.0833333   0.0000000), wk =   0.0833333
        k(    3) = (   0.0000000   0.1666667   0.0000000), wk =   0.0833333
        k(    4) = (   0.0000000   0.2500000   0.0000000), wk =   0.0833333
        k(    5) = (   0.0000000   0.3333333   0.0000000), wk =   0.0833333
        k(    6) = (   0.0000000   0.4166667   0.0000000), wk =   0.0833333
        k(    7) = (   0.0000000  -0.5000000   0.0000000), wk =   0.0416667
        k(    8) = (   0.0833333   0.0833333   0.0000000), wk =   0.0833333
        k(    9) = (   0.0833333   0.1666667   0.0000000), wk =   0.1666667
        k(   10) = (   0.0833333   0.2500000   0.0000000), wk =   0.1666667
        k(   11) = (   0.0833333   0.3333333   0.0000000), wk =   0.1666667
        k(   12) = (   0.0833333   0.4166667   0.0000000), wk =   0.1666667
        k(   13) = (   0.1666667   0.1666667   0.0000000), wk =   0.0833333
        k(   14) = (   0.1666667   0.2500000   0.0000000), wk =   0.1666667
        k(   15) = (   0.1666667   0.3333333   0.0000000), wk =   0.1666667
        k(   16) = (   0.1666667   0.4166667   0.0000000), wk =   0.0833333
        k(   17) = (   0.2500000   0.2500000   0.0000000), wk =   0.0833333
        k(   18) = (   0.2500000   0.3333333   0.0000000), wk =   0.1666667
        k(   19) = (   0.3333333   0.3333333   0.0000000), wk =   0.0277778

     Dense  grid:    46525 G-vectors     FFT dimensions: (  24,  24, 192)

     Dynamical RAM for                 wfc:       0.09 MB

     Dynamical RAM for     wfc (w. buffer):       1.77 MB

     Dynamical RAM for           str. fact:       0.18 MB

     Dynamical RAM for           local pot:       0.00 MB

     Dynamical RAM for          nlocal pot:       0.35 MB

     Dynamical RAM for                qrad:       0.71 MB

     Dynamical RAM for          rho,v,vnew:       0.58 MB

     Dynamical RAM for               rhoin:       0.19 MB

     Dynamical RAM for            rho*nmix:       1.42 MB

     Dynamical RAM for           G-vectors:       0.38 MB

     Dynamical RAM for          h,s,v(r/c):       0.00 MB

     Dynamical RAM for          <psi|beta>:       0.00 MB

     Dynamical RAM for                 psi:       0.18 MB

     Dynamical RAM for                hpsi:       0.18 MB

     Dynamical RAM for      wfcinit/wfcrot:       0.36 MB

     Estimated static dynamical RAM per process >       4.97 MB

     Estimated max dynamical RAM per process >       6.75 MB

     Estimated total dynamical RAM >      53.97 MB

     Initial potential from superposition of free atoms

     starting charge      15.9995, renormalised to      16.0000

     negative rho (up, down):  9.816E-05 0.000E+00


     %%%%%%%%%%%%%%%%%%%%%%%%%%%%%%%%%%%%%%%%%%%%%%%%%%%%%%%%%%%%%%%%%%%%%%%%
     %                                                                      %
     % You are using vdW-DF, which was implemented by the Thonhauser group. %
     % Please cite the following two papers that made this development      %
     % possible and the two reviews that describe the various versions:     %
     %                                                                      %
     %   T. Thonhauser et al., PRL 115, 136402 (2015).                      %
     %   T. Thonhauser et al., PRB 76, 125112 (2007).                       %
     %   K. Berland et al., Rep. Prog. Phys. 78, 066501 (2015).             %
     %   D.C. Langreth et al., J. Phys.: Condens. Matter 21, 084203 (2009). %
     %                                                                      %
     %                                                                      %
     % If you are calculating the stress with vdW-DF, please also cite:     %
     %                                                                      %
     %   R. Sabatini et al., J. Phys.: Condens. Matter 24, 424209 (2012).   %
     %                                                                      %
     %%%%%%%%%%%%%%%%%%%%%%%%%%%%%%%%%%%%%%%%%%%%%%%%%%%%%%%%%%%%%%%%%%%%%%%%


     Carrying out vdW-DF run using the following parameters:
     Nqs    =  20  Npoints =  1024  r_max =  100.000
     q_mesh =  0.00001000  0.04494208  0.09755937  0.15916263
               0.23128650  0.31572767  0.41458969  0.53033537
               0.66584808  0.82450364  1.01025438  1.22772762
               1.48234092  1.78043706  2.12944203  2.53805004
               3.01644009  3.57652955  4.23227104  5.00000000


     -----------------------------------------------
     Non-local corr. energy    =       0.17482996 Ry
     -----------------------------------------------

     Starting wfcs are   16 randomized atomic wfcs

     total cpu time spent up to now is        8.6 secs

     Self-consistent Calculation

     iteration #  1     ecut=    60.00 Ry     beta= 0.70
     Davidson diagonalization with overlap

---- Real-time Memory Report at c_bands before calling an iterative solver
             0 MiB given to the printing process from OS
             0 MiB allocation reported by mallinfo(arena+hblkhd)
             0 MiB available memory on the node where the printing process lives
------------------
     ethr =  1.00E-02,  avg # of iterations =  2.0

     negative rho (up, down):  7.355E-06 0.000E+00


     -----------------------------------------------
     Non-local corr. energy    =       0.20499292 Ry
     -----------------------------------------------


     total cpu time spent up to now is        8.9 secs

     total energy              =     -53.41803672 Ry
     estimated scf accuracy    <       0.77141586 Ry

     iteration #  2     ecut=    60.00 Ry     beta= 0.70
     Davidson diagonalization with overlap

---- Real-time Memory Report at c_bands before calling an iterative solver
             0 MiB given to the printing process from OS
             0 MiB allocation reported by mallinfo(arena+hblkhd)
             0 MiB available memory on the node where the printing process lives
------------------
     ethr =  4.82E-03,  avg # of iterations =  2.9

     negative rho (up, down):  1.387E-06 0.000E+00


     -----------------------------------------------
     Non-local corr. energy    =       0.19902156 Ry
     -----------------------------------------------


     total cpu time spent up to now is        9.4 secs

     total energy              =     -53.66426830 Ry
     estimated scf accuracy    <       0.25865778 Ry

     iteration #  3     ecut=    60.00 Ry     beta= 0.70
     Davidson diagonalization with overlap

---- Real-time Memory Report at c_bands before calling an iterative solver
             0 MiB given to the printing process from OS
             0 MiB allocation reported by mallinfo(arena+hblkhd)
             0 MiB available memory on the node where the printing process lives
------------------
     ethr =  1.62E-03,  avg # of iterations =  2.0


     -----------------------------------------------
     Non-local corr. energy    =       0.19957727 Ry
     -----------------------------------------------


     total cpu time spent up to now is        9.8 secs

     total energy              =     -53.67461836 Ry
     estimated scf accuracy    <       0.02311661 Ry

     iteration #  4     ecut=    60.00 Ry     beta= 0.70
     Davidson diagonalization with overlap

---- Real-time Memory Report at c_bands before calling an iterative solver
             0 MiB given to the printing process from OS
             0 MiB allocation reported by mallinfo(arena+hblkhd)
             0 MiB available memory on the node where the printing process lives
------------------
     ethr =  1.44E-04,  avg # of iterations =  5.1


     -----------------------------------------------
     Non-local corr. energy    =       0.20046381 Ry
     -----------------------------------------------


     total cpu time spent up to now is       10.3 secs

     total energy              =     -53.69433159 Ry
     estimated scf accuracy    <       0.04695376 Ry

     iteration #  5     ecut=    60.00 Ry     beta= 0.70
     Davidson diagonalization with overlap

---- Real-time Memory Report at c_bands before calling an iterative solver
             0 MiB given to the printing process from OS
             0 MiB allocation reported by mallinfo(arena+hblkhd)
             0 MiB available memory on the node where the printing process lives
------------------
     ethr =  1.44E-04,  avg # of iterations =  1.9


     -----------------------------------------------
     Non-local corr. energy    =       0.20045919 Ry
     -----------------------------------------------


     total cpu time spent up to now is       10.7 secs

     total energy              =     -53.69654696 Ry
     estimated scf accuracy    <       0.01507928 Ry

     iteration #  6     ecut=    60.00 Ry     beta= 0.70
     Davidson diagonalization with overlap

---- Real-time Memory Report at c_bands before calling an iterative solver
             0 MiB given to the printing process from OS
             0 MiB allocation reported by mallinfo(arena+hblkhd)
             0 MiB available memory on the node where the printing process lives
------------------
     ethr =  9.42E-05,  avg # of iterations =  1.0


     -----------------------------------------------
     Non-local corr. energy    =       0.20042310 Ry
     -----------------------------------------------


     total cpu time spent up to now is       10.9 secs

     total energy              =     -53.69750119 Ry
     estimated scf accuracy    <       0.01378421 Ry

     iteration #  7     ecut=    60.00 Ry     beta= 0.70
     Davidson diagonalization with overlap

---- Real-time Memory Report at c_bands before calling an iterative solver
             0 MiB given to the printing process from OS
             0 MiB allocation reported by mallinfo(arena+hblkhd)
             0 MiB available memory on the node where the printing process lives
------------------
     ethr =  8.62E-05,  avg # of iterations =  1.0

     negative rho (up, down):  5.101E-06 0.000E+00


     -----------------------------------------------
     Non-local corr. energy    =       0.20000982 Ry
     -----------------------------------------------


     total cpu time spent up to now is       11.2 secs

     total energy              =     -53.70590372 Ry
     estimated scf accuracy    <       0.01438552 Ry

     iteration #  8     ecut=    60.00 Ry     beta= 0.70
     Davidson diagonalization with overlap

---- Real-time Memory Report at c_bands before calling an iterative solver
             0 MiB given to the printing process from OS
             0 MiB allocation reported by mallinfo(arena+hblkhd)
             0 MiB available memory on the node where the printing process lives
------------------
     ethr =  8.62E-05,  avg # of iterations =  2.0

     negative rho (up, down):  5.044E-05 0.000E+00


     -----------------------------------------------
     Non-local corr. energy    =       0.19949097 Ry
     -----------------------------------------------


     total cpu time spent up to now is       11.5 secs

     total energy              =     -53.72769191 Ry
     estimated scf accuracy    <       0.03954427 Ry

     iteration #  9     ecut=    60.00 Ry     beta= 0.70
     Davidson diagonalization with overlap

---- Real-time Memory Report at c_bands before calling an iterative solver
             0 MiB given to the printing process from OS
             0 MiB allocation reported by mallinfo(arena+hblkhd)
             0 MiB available memory on the node where the printing process lives
------------------
     ethr =  8.62E-05,  avg # of iterations =  2.4

     negative rho (up, down):  5.734E-05 0.000E+00


     -----------------------------------------------
     Non-local corr. energy    =       0.19934481 Ry
     -----------------------------------------------


     total cpu time spent up to now is       12.0 secs

     total energy              =     -53.73983021 Ry
     estimated scf accuracy    <       0.11648186 Ry

     iteration # 10     ecut=    60.00 Ry     beta= 0.70
     Davidson diagonalization with overlap

---- Real-time Memory Report at c_bands before calling an iterative solver
             0 MiB given to the printing process from OS
             0 MiB allocation reported by mallinfo(arena+hblkhd)
             0 MiB available memory on the node where the printing process lives
------------------
     ethr =  8.62E-05,  avg # of iterations =  1.0

     negative rho (up, down):  3.949E-05 0.000E+00


     -----------------------------------------------
     Non-local corr. energy    =       0.19996558 Ry
     -----------------------------------------------


     total cpu time spent up to now is       12.3 secs

     total energy              =     -53.71186789 Ry
     estimated scf accuracy    <       0.14074655 Ry

     iteration # 11     ecut=    60.00 Ry     beta= 0.70
     Davidson diagonalization with overlap

---- Real-time Memory Report at c_bands before calling an iterative solver
             0 MiB given to the printing process from OS
             0 MiB allocation reported by mallinfo(arena+hblkhd)
             0 MiB available memory on the node where the printing process lives
------------------
     ethr =  8.62E-05,  avg # of iterations =  2.0

     negative rho (up, down):  2.709E-05 0.000E+00


     -----------------------------------------------
     Non-local corr. energy    =       0.20044335 Ry
     -----------------------------------------------


     total cpu time spent up to now is       12.7 secs

     total energy              =     -53.69922861 Ry
     estimated scf accuracy    <       0.07637417 Ry

     iteration # 12     ecut=    60.00 Ry     beta= 0.70
     Davidson diagonalization with overlap

---- Real-time Memory Report at c_bands before calling an iterative solver
             0 MiB given to the printing process from OS
             0 MiB allocation reported by mallinfo(arena+hblkhd)
             0 MiB available memory on the node where the printing process lives
------------------
     ethr =  8.62E-05,  avg # of iterations =  2.0


     -----------------------------------------------
     Non-local corr. energy    =       0.20132795 Ry
     -----------------------------------------------


     total cpu time spent up to now is       13.1 secs

     total energy              =     -53.68392773 Ry
     estimated scf accuracy    <       0.03379097 Ry

     iteration # 13     ecut=    60.00 Ry     beta= 0.70
     Davidson diagonalization with overlap

---- Real-time Memory Report at c_bands before calling an iterative solver
             0 MiB given to the printing process from OS
             0 MiB allocation reported by mallinfo(arena+hblkhd)
             0 MiB available memory on the node where the printing process lives
------------------
     ethr =  8.62E-05,  avg # of iterations =  3.1


     -----------------------------------------------
     Non-local corr. energy    =       0.20190411 Ry
     -----------------------------------------------


     total cpu time spent up to now is       13.6 secs

     total energy              =     -53.69683365 Ry
     estimated scf accuracy    <       0.00040318 Ry

     iteration # 14     ecut=    60.00 Ry     beta= 0.70
     Davidson diagonalization with overlap

---- Real-time Memory Report at c_bands before calling an iterative solver
             0 MiB given to the printing process from OS
             0 MiB allocation reported by mallinfo(arena+hblkhd)
             0 MiB available memory on the node where the printing process lives
------------------
     ethr =  2.52E-06,  avg # of iterations =  7.7


     -----------------------------------------------
     Non-local corr. energy    =       0.20103598 Ry
     -----------------------------------------------


     total cpu time spent up to now is       14.5 secs

     total energy              =     -53.68727212 Ry
     estimated scf accuracy    <       0.02708738 Ry

     iteration # 15     ecut=    60.00 Ry     beta= 0.70
     Davidson diagonalization with overlap

---- Real-time Memory Report at c_bands before calling an iterative solver
             0 MiB given to the printing process from OS
             0 MiB allocation reported by mallinfo(arena+hblkhd)
             0 MiB available memory on the node where the printing process lives
------------------
     ethr =  2.52E-06,  avg # of iterations =  6.8


     -----------------------------------------------
     Non-local corr. energy    =       0.20092836 Ry
     -----------------------------------------------


     total cpu time spent up to now is       15.4 secs

     total energy              =     -53.69394660 Ry
     estimated scf accuracy    <       0.00051381 Ry

     iteration # 16     ecut=    60.00 Ry     beta= 0.70
     Davidson diagonalization with overlap

---- Real-time Memory Report at c_bands before calling an iterative solver
             0 MiB given to the printing process from OS
             0 MiB allocation reported by mallinfo(arena+hblkhd)
             0 MiB available memory on the node where the printing process lives
------------------
     ethr =  2.52E-06,  avg # of iterations =  2.0


     -----------------------------------------------
     Non-local corr. energy    =       0.20084806 Ry
     -----------------------------------------------


     total cpu time spent up to now is       15.8 secs

     total energy              =     -53.69417271 Ry
     estimated scf accuracy    <       0.00138175 Ry

     iteration # 17     ecut=    60.00 Ry     beta= 0.70
     Davidson diagonalization with overlap

---- Real-time Memory Report at c_bands before calling an iterative solver
             0 MiB given to the printing process from OS
             0 MiB allocation reported by mallinfo(arena+hblkhd)
             0 MiB available memory on the node where the printing process lives
------------------
     ethr =  2.52E-06,  avg # of iterations =  1.1


     -----------------------------------------------
     Non-local corr. energy    =       0.20085879 Ry
     -----------------------------------------------


     total cpu time spent up to now is       16.1 secs

     total energy              =     -53.69433683 Ry
     estimated scf accuracy    <       0.00199757 Ry

     iteration # 18     ecut=    60.00 Ry     beta= 0.70
     Davidson diagonalization with overlap

---- Real-time Memory Report at c_bands before calling an iterative solver
             0 MiB given to the printing process from OS
             0 MiB allocation reported by mallinfo(arena+hblkhd)
             0 MiB available memory on the node where the printing process lives
------------------
     ethr =  2.52E-06,  avg # of iterations =  1.0


     -----------------------------------------------
     Non-local corr. energy    =       0.20089808 Ry
     -----------------------------------------------


     total cpu time spent up to now is       16.4 secs

     total energy              =     -53.69346183 Ry
     estimated scf accuracy    <       0.00237184 Ry

     iteration # 19     ecut=    60.00 Ry     beta= 0.70
     Davidson diagonalization with overlap

---- Real-time Memory Report at c_bands before calling an iterative solver
             0 MiB given to the printing process from OS
             0 MiB allocation reported by mallinfo(arena+hblkhd)
             0 MiB available memory on the node where the printing process lives
------------------
     ethr =  2.52E-06,  avg # of iterations =  2.4


     -----------------------------------------------
     Non-local corr. energy    =       0.20106411 Ry
     -----------------------------------------------


     total cpu time spent up to now is       16.8 secs

     total energy              =     -53.69336203 Ry
     estimated scf accuracy    <       0.00045754 Ry

     iteration # 20     ecut=    60.00 Ry     beta= 0.70
     Davidson diagonalization with overlap

---- Real-time Memory Report at c_bands before calling an iterative solver
             0 MiB given to the printing process from OS
             0 MiB allocation reported by mallinfo(arena+hblkhd)
             0 MiB available memory on the node where the printing process lives
------------------
     ethr =  2.52E-06,  avg # of iterations =  3.0


     -----------------------------------------------
     Non-local corr. energy    =       0.20106261 Ry
     -----------------------------------------------


     total cpu time spent up to now is       17.3 secs

     total energy              =     -53.69355886 Ry
     estimated scf accuracy    <       0.00004480 Ry

     iteration # 21     ecut=    60.00 Ry     beta= 0.70
     Davidson diagonalization with overlap

---- Real-time Memory Report at c_bands before calling an iterative solver
             0 MiB given to the printing process from OS
             0 MiB allocation reported by mallinfo(arena+hblkhd)
             0 MiB available memory on the node where the printing process lives
------------------
     ethr =  2.80E-07,  avg # of iterations =  3.4


     -----------------------------------------------
     Non-local corr. energy    =       0.20104868 Ry
     -----------------------------------------------


     total cpu time spent up to now is       17.7 secs

     total energy              =     -53.69355361 Ry
     estimated scf accuracy    <       0.00007755 Ry

     iteration # 22     ecut=    60.00 Ry     beta= 0.70
     Davidson diagonalization with overlap

---- Real-time Memory Report at c_bands before calling an iterative solver
             0 MiB given to the printing process from OS
             0 MiB allocation reported by mallinfo(arena+hblkhd)
             0 MiB available memory on the node where the printing process lives
------------------
     ethr =  2.80E-07,  avg # of iterations =  1.0


     -----------------------------------------------
     Non-local corr. energy    =       0.20102236 Ry
     -----------------------------------------------


     total cpu time spent up to now is       18.0 secs

     total energy              =     -53.69353113 Ry
     estimated scf accuracy    <       0.00004631 Ry

     iteration # 23     ecut=    60.00 Ry     beta= 0.70
     Davidson diagonalization with overlap

---- Real-time Memory Report at c_bands before calling an iterative solver
             0 MiB given to the printing process from OS
             0 MiB allocation reported by mallinfo(arena+hblkhd)
             0 MiB available memory on the node where the printing process lives
------------------
     ethr =  2.80E-07,  avg # of iterations =  2.1


     -----------------------------------------------
     Non-local corr. energy    =       0.20102192 Ry
     -----------------------------------------------


     total cpu time spent up to now is       18.4 secs

     End of self-consistent calculation

          k = 0.0000 0.0000 0.0000 (  5775 PWs)   bands (ev):

   -20.1578 -19.9971  -8.2574  -7.1417  -3.8849  -3.8849  -3.8644  -3.8643

     occupation numbers 
     1.0000   1.0000   1.0000   1.0000   1.0000   1.0000   1.0000   1.0000

          k = 0.0000 0.0962 0.0000 (  5782 PWs)   bands (ev):

   -20.0244 -19.8661  -8.0754  -6.9691  -4.4342  -4.4168  -4.1403  -4.1186

     occupation numbers 
     1.0000   1.0000   1.0000   1.0000   1.0000   1.0000   1.0000   1.0000

          k = 0.0000 0.1925 0.0000 (  5778 PWs)   bands (ev):

   -19.6309 -19.4806  -7.5373  -6.4664  -5.8216  -5.8043  -4.7629  -4.7357

     occupation numbers 
     1.0000   1.0000   1.0000   1.0000   1.0000   1.0000   1.0000   1.0000

          k = 0.0000 0.2887 0.0000 (  5810 PWs)   bands (ev):

   -19.0051 -18.8683  -7.6068  -7.5773  -6.6535  -5.6383  -5.4869  -5.4554

     occupation numbers 
     1.0000   1.0000   1.0000   1.0000   1.0000   1.0000   1.0000   1.0000

          k = 0.0000 0.3849 0.0000 (  5838 PWs)   bands (ev):

   -18.2144 -18.0994  -9.3683  -9.3244  -6.1091  -6.0752  -5.5276  -4.6099

     occupation numbers 
     1.0000   1.0000   1.0000   1.0000   1.0000   1.0000   1.0000   1.0000

          k = 0.0000 0.4811 0.0000 (  5848 PWs)   bands (ev):

   -17.4315 -17.3528 -10.7732 -10.7285  -6.5175  -6.4825  -4.3330  -3.5986

     occupation numbers 
     1.0000   1.0000   1.0000   1.0000   1.0000   1.0000   1.0000   1.0000

          k = 0.0000-0.5774 0.0000 (  5820 PWs)   bands (ev):

   -17.0528 -17.0135 -11.3479 -11.3125  -6.6592  -6.6236  -3.6928  -3.1435

     occupation numbers 
     1.0000   1.0000   1.0000   1.0000   1.0000   1.0000   1.0000   1.0000

          k = 0.0833 0.1443 0.0000 (  5780 PWs)   bands (ev):

   -19.7607 -19.6077  -7.7148  -6.6294  -5.3353  -5.3245  -4.6444  -4.6210

     occupation numbers 
     1.0000   1.0000   1.0000   1.0000   1.0000   1.0000   1.0000   1.0000

          k = 0.0833 0.2406 0.0000 (  5791 PWs)   bands (ev):

   -19.2498 -19.1074  -7.0362  -6.8215  -6.7636  -5.9534  -5.4275  -5.3988

     occupation numbers 
     1.0000   1.0000   1.0000   1.0000   1.0000   1.0000   1.0000   1.0000

          k = 0.0833 0.3368 0.0000 (  5833 PWs)   bands (ev):

   -18.5354 -18.4102  -8.5220  -8.4875  -6.1735  -6.1410  -5.9877  -5.0272

     occupation numbers 
     1.0000   1.0000   1.0000   1.0000   1.0000   1.0000   1.0000   1.0000

          k = 0.0833 0.4330 0.0000 (  5846 PWs)   bands (ev):

   -17.7255 -17.6284 -10.0954 -10.0512  -6.7206  -6.6841  -4.7993  -3.9731

     occupation numbers 
     1.0000   1.0000   1.0000   1.0000   1.0000   1.0000   1.0000   1.0000

          k = 0.0833 0.5292 0.0000 (  5838 PWs)   bands (ev):

   -17.0901 -17.0375 -11.1221 -11.0822  -7.0084  -6.9705  -3.7695  -3.1740

     occupation numbers 
     1.0000   1.0000   1.0000   1.0000   1.0000   1.0000   1.0000   1.0000

          k = 0.1667 0.2887 0.0000 (  5806 PWs)   bands (ev):

   -18.6463 -18.5179  -8.0115  -8.0054  -6.4404  -6.4053  -6.1454  -5.1704

     occupation numbers 
     1.0000   1.0000   1.0000   1.0000   1.0000   1.0000   1.0000   1.0000

          k = 0.1667 0.3849 0.0000 (  5841 PWs)   bands (ev):

   -17.8918 -17.7853  -9.3571  -9.3316  -7.2964  -7.2616  -5.0558  -4.1871

     occupation numbers 
     1.0000   1.0000   1.0000   1.0000   1.0000   1.0000   1.0000   1.0000

          k = 0.1667 0.4811 0.0000 (  5838 PWs)   bands (ev):

   -17.1579 -17.0875 -10.5368 -10.4960  -7.8162  -7.7763  -3.9069  -3.2397

     occupation numbers 
     1.0000   1.0000   1.0000   1.0000   1.0000   1.0000   1.0000   1.0000

          k = 0.1667 0.5774 0.0000 (  5810 PWs)   bands (ev):

   -16.8107 -16.7769 -11.0355 -10.9927  -7.9873  -7.9455  -3.2889  -2.8327

     occupation numbers 
     1.0000   1.0000   1.0000   1.0000   1.0000   1.0000   1.0000   1.0000

          k = 0.2500 0.4330 0.0000 (  5866 PWs)   bands (ev):

   -17.1898 -17.1127 -10.0715 -10.0528  -8.3684  -8.3394  -3.9698  -3.2734

     occupation numbers 
     1.0000   1.0000   1.0000   1.0000   1.0000   1.0000   1.0000   1.0000

          k = 0.2500 0.5292 0.0000 (  5823 PWs)   bands (ev):

   -16.6704 -16.6343 -10.5917 -10.5411  -8.9745  -8.9412  -3.0458  -2.6473

     occupation numbers 
     1.0000   1.0000   1.0000   1.0000   1.0000   1.0000   1.0000   1.0000

          k = 0.3333 0.5774 0.0000 (  5826 PWs)   bands (ev):

   -16.4628 -16.4625 -10.3922 -10.3044  -9.6371  -9.6368  -2.5379  -2.5377

     occupation numbers 
     1.0000   1.0000   1.0000   1.0000   1.0000   1.0000   1.0000   1.0000

     highest occupied level (ev):    -2.5377

!    total energy              =     -53.69354146 Ry
     estimated scf accuracy    <       0.00000003 Ry

     The total energy is the sum of the following terms:
     one-electron contribution =    -535.30263506 Ry
     hartree contribution      =     271.80221457 Ry
     xc contribution           =     -17.37130298 Ry
     ewald contribution        =     227.17818202 Ry

     convergence has been achieved in  23 iterations

     Writing all to output data dir ./tmp/BN2L_AA1_PBE_vdW.save/

     init_run     :      8.48s CPU      8.50s WALL (       1 calls)
     electrons    :      9.04s CPU      9.82s WALL (       1 calls)

     Called by init_run:
     wfcinit      :      0.16s CPU      0.17s WALL (       1 calls)
     wfcinit:atom :      0.00s CPU      0.00s WALL (      19 calls)
     wfcinit:wfcr :      0.15s CPU      0.15s WALL (      19 calls)
     potinit      :      7.96s CPU      7.98s WALL (       1 calls)
     hinit0       :      0.33s CPU      0.33s WALL (       1 calls)

     Called by electrons:
     c_bands      :      7.42s CPU      8.03s WALL (      23 calls)
     sum_band     :      0.65s CPU      0.67s WALL (      23 calls)
     v_of_rho     :      8.84s CPU      8.94s WALL (      24 calls)
     v_h          :      0.01s CPU      0.01s WALL (      24 calls)
     v_xc         :      8.84s CPU      8.93s WALL (      24 calls)
     mix_rho      :      0.05s CPU      0.11s WALL (      23 calls)
     vdW_kernel   :      7.89s CPU      7.90s WALL (       1 calls)

     Called by c_bands:
     init_us_2    :      0.15s CPU      0.15s WALL (     893 calls)
     init_us_2:cp :      0.15s CPU      0.15s WALL (     893 calls)
     cegterg      :      7.13s CPU      7.73s WALL (     437 calls)

     Called by sum_band:
     sum_band:wei :      0.00s CPU      0.00s WALL (      23 calls)
     sum_band:loo :      0.62s CPU      0.64s WALL (      23 calls)
     sum_band:buf :      0.01s CPU      0.01s WALL (     437 calls)
     sum_band:ini :      0.06s CPU      0.07s WALL (     437 calls)

     Called by *egterg:
     cdiaghg      :      0.60s CPU      0.62s WALL (    1555 calls)
     cegterg:over :      0.44s CPU      0.46s WALL (    1118 calls)
     cegterg:upda :      0.67s CPU      1.01s WALL (    1118 calls)
     cegterg:last :      0.49s CPU      0.63s WALL (    1021 calls)
     cdiaghg:chol :      0.07s CPU      0.07s WALL (    1555 calls)
     cdiaghg:inve :      0.02s CPU      0.02s WALL (    1555 calls)
     cdiaghg:para :      0.07s CPU      0.08s WALL (    3110 calls)
     h_psi        :      4.84s CPU      4.91s WALL (    1574 calls)
     g_psi        :      0.03s CPU      0.04s WALL (    1118 calls)

     Called by h_psi:
     h_psi:calbec :      0.35s CPU      0.36s WALL (    1574 calls)
     vloc_psi     :      4.07s CPU      4.18s WALL (    1574 calls)
     add_vuspsi   :      0.40s CPU      0.34s WALL (    1574 calls)

     General routines
     calbec       :      0.35s CPU      0.35s WALL (    1574 calls)
     fft          :      0.60s CPU      0.61s WALL (    1440 calls)
     ffts         :      0.00s CPU      0.00s WALL (      23 calls)
     fftw         :      4.17s CPU      4.27s WALL (   25130 calls)

     Parallel routines

     PWSCF        :     17.60s CPU     18.42s WALL


   This run was terminated on:   5:59:56  14Apr2025            

=------------------------------------------------------------------------------=
   JOB DONE.
=------------------------------------------------------------------------------=
