
     Program PWSCF v.7.2 starts on 17Apr2024 at 15:36:31 

     This program is part of the open-source Quantum ESPRESSO suite
     for quantum simulation of materials; please cite
         "P. Giannozzi et al., J. Phys.:Condens. Matter 21 395502 (2009);
         "P. Giannozzi et al., J. Phys.:Condens. Matter 29 465901 (2017);
         "P. Giannozzi et al., J. Chem. Phys. 152 154105 (2020);
          URL http://www.quantum-espresso.org", 
     in publications or presentations arising from this work. More details at
     http://www.quantum-espresso.org/quote

     Parallel version (MPI & OpenMP), running on       8 processor cores
     Number of MPI processes:                 8
     Threads/MPI process:                     1

     MPI processes distributed on     1 nodes
     0 MiB available memory on the printing compute node when the environment starts

     Waiting for input...
     Reading input from standard input
Warning: card &IONS ignored
Warning: card / ignored
Warning: card &CELL ignored
Warning: card CELL_DOFREE = 'Z' ignored
Warning: card / ignored

     Current dimensions of program PWSCF are:
     Max number of different atomic species (ntypx) = 10
     Max number of k-points (npk) =  40000
     Max angular momentum in pseudopotentials (lmaxx) =  4

     Atomic positions and unit cell read from directory:
     ./tmp/BN2L_AA1_PBE_vdW.save/
     Atomic positions from file used, from input discarded


     IMPORTANT: XC functional enforced from input :
     Exchange-correlation= VDW-DF2-B86R
                           (   1   4  26   0   2   0   0)
     Any further DFT definition will be discarded
     Please, verify this is what you really want


     R & G space division:  proc/nbgrp/npool/nimage =       8
     Subspace diagonalization in iterative solution of the eigenvalue problem:
     a serial algorithm will be used


     Parallelization info
     --------------------
     sticks:   dense  smooth     PW     G-vecs:    dense   smooth      PW
     Min          45      45     14                 5791     5791    1010
     Max          46      46     16                 5824     5824    1027
     Sum         367     367    121                46525    46525    8181

     Using Slab Decomposition



     bravais-lattice index     =            4
     lattice parameter (alat)  =       4.7489  a.u.
     unit-cell volume          =     741.9928 (a.u.)^3
     number of atoms/cell      =            4
     number of atomic types    =            2
     number of electrons       =        16.00
     number of Kohn-Sham states=           20
     kinetic-energy cutoff     =      60.0000  Ry
     charge density cutoff     =     240.0000  Ry
     Exchange-correlation= VDW-DF2-B86R
                           (   1   4  26   0   2   0   0)

     celldm(1)=   4.748900  celldm(2)=   0.000000  celldm(3)=   8.000000
     celldm(4)=   0.000000  celldm(5)=   0.000000  celldm(6)=   0.000000

     crystal axes: (cart. coord. in units of alat)
               a(1) = (   1.000000   0.000000   0.000000 )  
               a(2) = (  -0.500000   0.866025   0.000000 )  
               a(3) = (   0.000000   0.000000   8.000000 )  

     reciprocal axes: (cart. coord. in units 2 pi/alat)
               b(1) = (  1.000000  0.577350 -0.000000 )  
               b(2) = (  0.000000  1.154701  0.000000 )  
               b(3) = (  0.000000 -0.000000  0.125000 )  


     PseudoPot. # 1 for B  read from file:
     ../../../../Pseudo/PBE/B.upf
     MD5 check sum: 72f82fc31bc892420d0cab7e25c88ab8
     Pseudo is Norm-conserving + core correction, Zval =  3.0
     Generated using ONCVPSP code by D. R. Hamann
     Using radial grid of 1534 points,  4 beta functions with: 
                l(1) =   0
                l(2) =   0
                l(3) =   1
                l(4) =   1

     PseudoPot. # 2 for N  read from file:
     ../../../../Pseudo/PBE/N.upf
     MD5 check sum: d34365f73bb0e2ee98afc20ec3e87676
     Pseudo is Norm-conserving + core correction, Zval =  5.0
     Generated using ONCVPSP code by D. R. Hamann
     Using radial grid of 1058 points,  4 beta functions with: 
                l(1) =   0
                l(2) =   0
                l(3) =   1
                l(4) =   1

     atomic species   valence    mass     pseudopotential
        B              3.00    10.00000     B ( 1.00)
        N              5.00    14.01100     N ( 1.00)

      6 Sym. Ops. (no inversion) found


                                    s                        frac. trans.

      isym =  1     identity                                     

 cryst.   s( 1) = (     1          0          0      )
                  (     0          1          0      )
                  (     0          0          1      )

 cart.    s( 1) = (  1.0000000  0.0000000  0.0000000 )
                  (  0.0000000  1.0000000  0.0000000 )
                  (  0.0000000  0.0000000  1.0000000 )


      isym =  2     120 deg rotation - cryst. axis [0,0,1]       

 cryst.   s( 2) = (     0          1          0      )
                  (    -1         -1          0      )
                  (     0          0          1      )

 cart.    s( 2) = ( -0.5000000 -0.8660254  0.0000000 )
                  (  0.8660254 -0.5000000  0.0000000 )
                  (  0.0000000  0.0000000  1.0000000 )


      isym =  3     120 deg rotation - cryst. axis [0,0,-1]      

 cryst.   s( 3) = (    -1         -1          0      )
                  (     1          0          0      )
                  (     0          0          1      )

 cart.    s( 3) = ( -0.5000000  0.8660254  0.0000000 )
                  ( -0.8660254 -0.5000000  0.0000000 )
                  (  0.0000000  0.0000000  1.0000000 )


      isym =  4     inv. 180 deg rotation - cart. axis [1,0,0]   

 cryst.   s( 4) = (    -1          0          0      )
                  (     1          1          0      )
                  (     0          0          1      )

 cart.    s( 4) = ( -1.0000000  0.0000000  0.0000000 )
                  (  0.0000000  1.0000000  0.0000000 )
                  (  0.0000000  0.0000000  1.0000000 )


      isym =  5     inv. 180 deg rotation - cryst. axis [0,1,0]  

 cryst.   s( 5) = (     1          1          0      )
                  (     0         -1          0      )
                  (     0          0          1      )

 cart.    s( 5) = (  0.5000000  0.8660254  0.0000000 )
                  (  0.8660254 -0.5000000  0.0000000 )
                  (  0.0000000  0.0000000  1.0000000 )


      isym =  6     inv. 180 deg rotation - cryst. axis [1,1,0]  

 cryst.   s( 6) = (     0         -1          0      )
                  (    -1          0          0      )
                  (     0          0          1      )

 cart.    s( 6) = (  0.5000000 -0.8660254  0.0000000 )
                  ( -0.8660254 -0.5000000  0.0000000 )
                  (  0.0000000  0.0000000  1.0000000 )


     point group C_3v (3m)  
     there are  3 classes
     the character table:

       E     2C3   3s_v 
A_1    1.00  1.00  1.00
A_2    1.00  1.00 -1.00
E      2.00 -1.00  0.00

     the symmetry operations in each class and the name of the first element:

     E        1
          identity                                               
     2C3      2    3
          120 deg rotation - cryst. axis [0,0,1]                 
     3s_v     4    5    6
          inv. 180 deg rotation - cart. axis [1,0,0]             

   Cartesian axes

     site n.     atom                  positions (alat units)
         1           B   tau(   1) = (   0.0000000   0.0000000   0.0000000  )
         2           N   tau(   2) = (   0.5000005   0.2886748   0.0000000  )
         3           N   tau(   3) = (   0.0000000   0.0000000   1.3119520  )
         4           B   tau(   4) = (   0.5000005   0.2886748   1.3119520  )

   Crystallographic axes

     site n.     atom                  positions (cryst. coord.)
         1           B   tau(   1) = (  0.0000000  0.0000000  0.0000000  )
         2           N   tau(   2) = (  0.6666670  0.3333330  0.0000000  )
         3           N   tau(   3) = (  0.0000000  0.0000000  0.1639940  )
         4           B   tau(   4) = (  0.6666670  0.3333330  0.1639940  )

     number of k points=    51  Marzari-Vanderbilt smearing, width (Ry)=  0.0050
                       cart. coord. in units 2pi/alat
        k(    1) = (   0.0000000   0.0000000   0.0000000), wk =   0.0392157
        k(    2) = (  -0.0158729   0.0274930   0.0000000), wk =   0.0392157
        k(    3) = (  -0.0317457   0.0549860   0.0000000), wk =   0.0392157
        k(    4) = (  -0.0476186   0.0824789   0.0000000), wk =   0.0392157
        k(    5) = (  -0.0634914   0.1099719   0.0000000), wk =   0.0392157
        k(    6) = (  -0.0793643   0.1374649   0.0000000), wk =   0.0392157
        k(    7) = (  -0.0952371   0.1649579   0.0000000), wk =   0.0392157
        k(    8) = (  -0.1111100   0.1924509   0.0000000), wk =   0.0392157
        k(    9) = (  -0.1269829   0.2199438   0.0000000), wk =   0.0392157
        k(   10) = (  -0.1428557   0.2474368   0.0000000), wk =   0.0392157
        k(   11) = (  -0.1587286   0.2749298   0.0000000), wk =   0.0392157
        k(   12) = (  -0.1746014   0.3024228   0.0000000), wk =   0.0392157
        k(   13) = (  -0.1904743   0.3299158   0.0000000), wk =   0.0392157
        k(   14) = (  -0.2063471   0.3574087   0.0000000), wk =   0.0392157
        k(   15) = (  -0.2222200   0.3849017   0.0000000), wk =   0.0392157
        k(   16) = (  -0.2380929   0.4123947   0.0000000), wk =   0.0392157
        k(   17) = (  -0.2539657   0.4398877   0.0000000), wk =   0.0392157
        k(   18) = (  -0.2698386   0.4673807   0.0000000), wk =   0.0392157
        k(   19) = (  -0.2857114   0.4948736   0.0000000), wk =   0.0392157
        k(   20) = (  -0.3015843   0.5223666   0.0000000), wk =   0.0392157
        k(   21) = (  -0.3174571   0.5498596   0.0000000), wk =   0.0392157
        k(   22) = (  -0.3333300   0.5773526   0.0000000), wk =   0.0392157
        k(   23) = (  -0.3030273   0.5773524   0.0000000), wk =   0.0392157
        k(   24) = (  -0.2727245   0.5773522   0.0000000), wk =   0.0392157
        k(   25) = (  -0.2424218   0.5773519   0.0000000), wk =   0.0392157
        k(   26) = (  -0.2121191   0.5773517   0.0000000), wk =   0.0392157
        k(   27) = (  -0.1818164   0.5773515   0.0000000), wk =   0.0392157
        k(   28) = (  -0.1515136   0.5773513   0.0000000), wk =   0.0392157
        k(   29) = (  -0.1212109   0.5773511   0.0000000), wk =   0.0392157
        k(   30) = (  -0.0909082   0.5773509   0.0000000), wk =   0.0392157
        k(   31) = (  -0.0606055   0.5773507   0.0000000), wk =   0.0392157
        k(   32) = (  -0.0303027   0.5773505   0.0000000), wk =   0.0392157
        k(   33) = (   0.0000000   0.5773503   0.0000000), wk =   0.0392157
        k(   34) = (   0.0000000   0.5452753   0.0000000), wk =   0.0392157
        k(   35) = (   0.0000000   0.5132002   0.0000000), wk =   0.0392157
        k(   36) = (   0.0000000   0.4811252   0.0000000), wk =   0.0392157
        k(   37) = (   0.0000000   0.4490502   0.0000000), wk =   0.0392157
        k(   38) = (   0.0000000   0.4169752   0.0000000), wk =   0.0392157
        k(   39) = (   0.0000000   0.3849002   0.0000000), wk =   0.0392157
        k(   40) = (   0.0000000   0.3528252   0.0000000), wk =   0.0392157
        k(   41) = (   0.0000000   0.3207501   0.0000000), wk =   0.0392157
        k(   42) = (   0.0000000   0.2886751   0.0000000), wk =   0.0392157
        k(   43) = (   0.0000000   0.2566001   0.0000000), wk =   0.0392157
        k(   44) = (   0.0000000   0.2245251   0.0000000), wk =   0.0392157
        k(   45) = (   0.0000000   0.1924501   0.0000000), wk =   0.0392157
        k(   46) = (   0.0000000   0.1603751   0.0000000), wk =   0.0392157
        k(   47) = (   0.0000000   0.1283001   0.0000000), wk =   0.0392157
        k(   48) = (   0.0000000   0.0962250   0.0000000), wk =   0.0392157
        k(   49) = (   0.0000000   0.0641500   0.0000000), wk =   0.0392157
        k(   50) = (   0.0000000   0.0320750   0.0000000), wk =   0.0392157
        k(   51) = (   0.0000000   0.0000000   0.0000000), wk =   0.0392157

                       cryst. coord.
        k(    1) = (   0.0000000   0.0000000   0.0000000), wk =   0.0392157
        k(    2) = (  -0.0158729   0.0317460   0.0000000), wk =   0.0392157
        k(    3) = (  -0.0317457   0.0634921   0.0000000), wk =   0.0392157
        k(    4) = (  -0.0476186   0.0952381   0.0000000), wk =   0.0392157
        k(    5) = (  -0.0634914   0.1269842   0.0000000), wk =   0.0392157
        k(    6) = (  -0.0793643   0.1587302   0.0000000), wk =   0.0392157
        k(    7) = (  -0.0952371   0.1904763   0.0000000), wk =   0.0392157
        k(    8) = (  -0.1111100   0.2222223   0.0000000), wk =   0.0392157
        k(    9) = (  -0.1269829   0.2539684   0.0000000), wk =   0.0392157
        k(   10) = (  -0.1428557   0.2857144   0.0000000), wk =   0.0392157
        k(   11) = (  -0.1587286   0.3174605   0.0000000), wk =   0.0392157
        k(   12) = (  -0.1746014   0.3492065   0.0000000), wk =   0.0392157
        k(   13) = (  -0.1904743   0.3809526   0.0000000), wk =   0.0392157
        k(   14) = (  -0.2063471   0.4126986   0.0000000), wk =   0.0392157
        k(   15) = (  -0.2222200   0.4444447   0.0000000), wk =   0.0392157
        k(   16) = (  -0.2380929   0.4761907   0.0000000), wk =   0.0392157
        k(   17) = (  -0.2539657   0.5079368   0.0000000), wk =   0.0392157
        k(   18) = (  -0.2698386   0.5396828   0.0000000), wk =   0.0392157
        k(   19) = (  -0.2857114   0.5714289   0.0000000), wk =   0.0392157
        k(   20) = (  -0.3015843   0.6031749   0.0000000), wk =   0.0392157
        k(   21) = (  -0.3174571   0.6349210   0.0000000), wk =   0.0392157
        k(   22) = (  -0.3333300   0.6666670   0.0000000), wk =   0.0392157
        k(   23) = (  -0.3030273   0.6515155   0.0000000), wk =   0.0392157
        k(   24) = (  -0.2727245   0.6363639   0.0000000), wk =   0.0392157
        k(   25) = (  -0.2424218   0.6212124   0.0000000), wk =   0.0392157
        k(   26) = (  -0.2121191   0.6060608   0.0000000), wk =   0.0392157
        k(   27) = (  -0.1818164   0.5909093   0.0000000), wk =   0.0392157
        k(   28) = (  -0.1515136   0.5757577   0.0000000), wk =   0.0392157
        k(   29) = (  -0.1212109   0.5606062   0.0000000), wk =   0.0392157
        k(   30) = (  -0.0909082   0.5454546   0.0000000), wk =   0.0392157
        k(   31) = (  -0.0606055   0.5303031   0.0000000), wk =   0.0392157
        k(   32) = (  -0.0303027   0.5151515   0.0000000), wk =   0.0392157
        k(   33) = (   0.0000000   0.5000000   0.0000000), wk =   0.0392157
        k(   34) = (   0.0000000   0.4722222   0.0000000), wk =   0.0392157
        k(   35) = (   0.0000000   0.4444444   0.0000000), wk =   0.0392157
        k(   36) = (   0.0000000   0.4166667   0.0000000), wk =   0.0392157
        k(   37) = (   0.0000000   0.3888889   0.0000000), wk =   0.0392157
        k(   38) = (   0.0000000   0.3611111   0.0000000), wk =   0.0392157
        k(   39) = (   0.0000000   0.3333333   0.0000000), wk =   0.0392157
        k(   40) = (   0.0000000   0.3055556   0.0000000), wk =   0.0392157
        k(   41) = (   0.0000000   0.2777778   0.0000000), wk =   0.0392157
        k(   42) = (   0.0000000   0.2500000   0.0000000), wk =   0.0392157
        k(   43) = (   0.0000000   0.2222222   0.0000000), wk =   0.0392157
        k(   44) = (   0.0000000   0.1944444   0.0000000), wk =   0.0392157
        k(   45) = (   0.0000000   0.1666667   0.0000000), wk =   0.0392157
        k(   46) = (   0.0000000   0.1388889   0.0000000), wk =   0.0392157
        k(   47) = (   0.0000000   0.1111111   0.0000000), wk =   0.0392157
        k(   48) = (   0.0000000   0.0833333   0.0000000), wk =   0.0392157
        k(   49) = (   0.0000000   0.0555556   0.0000000), wk =   0.0392157
        k(   50) = (   0.0000000   0.0277778   0.0000000), wk =   0.0392157
        k(   51) = (   0.0000000   0.0000000   0.0000000), wk =   0.0392157

     Dense  grid:    46525 G-vectors     FFT dimensions: (  24,  24, 192)

     Dynamical RAM for                 wfc:       0.22 MB

     Dynamical RAM for     wfc (w. buffer):       0.22 MB

     Dynamical RAM for           str. fact:       0.18 MB

     Dynamical RAM for           local pot:       0.00 MB

     Dynamical RAM for          nlocal pot:       0.35 MB

     Dynamical RAM for                qrad:       0.71 MB

     Dynamical RAM for          rho,v,vnew:       0.58 MB

     Dynamical RAM for           G-vectors:       0.38 MB

     Dynamical RAM for          h,s,v(r/c):       0.07 MB

     Dynamical RAM for          <psi|beta>:       0.01 MB

     Dynamical RAM for                 psi:       0.44 MB

     Dynamical RAM for                hpsi:       0.44 MB

     Dynamical RAM for      wfcinit/wfcrot:       0.45 MB

     Estimated static dynamical RAM per process >       3.22 MB

     Estimated max dynamical RAM per process >       4.19 MB

     Estimated total dynamical RAM >      33.51 MB

     The potential is recalculated from file :
     ./tmp/BN2L_AA1_PBE_vdW.save/charge-density



     %%%%%%%%%%%%%%%%%%%%%%%%%%%%%%%%%%%%%%%%%%%%%%%%%%%%%%%%%%%%%%%%%%%%%%%%
     %                                                                      %
     % You are using vdW-DF, which was implemented by the Thonhauser group. %
     % Please cite the following two papers that made this development      %
     % possible and the two reviews that describe the various versions:     %
     %                                                                      %
     %   T. Thonhauser et al., PRL 115, 136402 (2015).                      %
     %   T. Thonhauser et al., PRB 76, 125112 (2007).                       %
     %   K. Berland et al., Rep. Prog. Phys. 78, 066501 (2015).             %
     %   D.C. Langreth et al., J. Phys.: Condens. Matter 21, 084203 (2009). %
     %                                                                      %
     % If you are calculating stress with vdW-DF, please also cite:         %
     %                                                                      %
     %   R. Sabatini et al., J. Phys.: Condens. Matter 24, 424209 (2012).   %
     %                                                                      %
     %%%%%%%%%%%%%%%%%%%%%%%%%%%%%%%%%%%%%%%%%%%%%%%%%%%%%%%%%%%%%%%%%%%%%%%%

     %%%%%%%%%%%%%%%%%%%%%%%%%%%%%%%%%%%%%%%%%%%%%%%%%%%%%%%%%%%%%%%%%%%%%%%%
     %                                                                      %
     %  vdW-DF NEWS:                                                        %
     %                                                                      %
     %  * vdW-DF3 is now available. DOI: 10.1021/acs.jctc.0c00471           %
     %    use with input_dft = 'vdW-DF3-opt1' or 'vdW-DF3-opt2'             %
     %                                                                      %
     %  * Unscreened and range-separated hybrid vdW-DF-cx functionals       %
     %    DOI: 10.1063/1.4986522 and 10.1088/1361-648X/ac2ad2               %
     %    use with input_dft = 'vdW-DF-cx0'    and 'vdW-DF-ahcx'            %
     %  * Unscreened and range-separated hybrid vdW-DF2-b86r functionals    %
     %    DOI: 10.1063/1.4986522 and DOI: 10.1103/PhysRevX.12.041003        %
     %    use with input_dft = 'vdW-DF2-br0' and 'vdW-DF2-ahbr'             %
     %                                                                      %
     %%%%%%%%%%%%%%%%%%%%%%%%%%%%%%%%%%%%%%%%%%%%%%%%%%%%%%%%%%%%%%%%%%%%%%%%


     Carrying out vdW-DF run using the following parameters:
     Nqs    =  20  Npoints =  1024  r_max =  100.000
     q_mesh =  0.00001000  0.04494208  0.09755937  0.15916263
               0.23128650  0.31572767  0.41458969  0.53033537
               0.66584808  0.82450364  1.01025438  1.22772762
               1.48234092  1.78043706  2.12944203  2.53805004
               3.01644009  3.57652955  4.23227104  5.00000000


     -----------------------------------------------
     Non-local corr. energy    =       0.20101354 Ry
     -----------------------------------------------

     Starting wfcs are   16 randomized atomic wfcs +    4 random wfcs

     Band Structure Calculation
     Davidson diagonalization with overlap

     Computing kpt #:     1  of    51
     total cpu time spent up to now is       11.5 secs

     Computing kpt #:     2  of    51
     total cpu time spent up to now is       12.0 secs

     Computing kpt #:     3  of    51
     total cpu time spent up to now is       12.4 secs

     Computing kpt #:     4  of    51
     total cpu time spent up to now is       12.9 secs

     Computing kpt #:     5  of    51
     total cpu time spent up to now is       13.5 secs

     Computing kpt #:     6  of    51
     total cpu time spent up to now is       13.9 secs

     Computing kpt #:     7  of    51
     total cpu time spent up to now is       14.4 secs

     Computing kpt #:     8  of    51
     total cpu time spent up to now is       14.7 secs

     Computing kpt #:     9  of    51
     total cpu time spent up to now is       15.2 secs

     Computing kpt #:    10  of    51
     total cpu time spent up to now is       15.7 secs

     Computing kpt #:    11  of    51
     total cpu time spent up to now is       16.1 secs

     Computing kpt #:    12  of    51
     total cpu time spent up to now is       16.5 secs

     Computing kpt #:    13  of    51
     total cpu time spent up to now is       16.8 secs

     Computing kpt #:    14  of    51
     total cpu time spent up to now is       17.2 secs

     Computing kpt #:    15  of    51
     total cpu time spent up to now is       17.5 secs

     Computing kpt #:    16  of    51
     total cpu time spent up to now is       17.8 secs

     Computing kpt #:    17  of    51
     total cpu time spent up to now is       18.2 secs

     Computing kpt #:    18  of    51
     total cpu time spent up to now is       18.6 secs

     Computing kpt #:    19  of    51
     total cpu time spent up to now is       19.0 secs

     Computing kpt #:    20  of    51
     total cpu time spent up to now is       19.5 secs

     Computing kpt #:    21  of    51
     total cpu time spent up to now is       19.9 secs

     Computing kpt #:    22  of    51
     total cpu time spent up to now is       20.3 secs

     Computing kpt #:    23  of    51
     total cpu time spent up to now is       20.8 secs

     Computing kpt #:    24  of    51
     total cpu time spent up to now is       21.2 secs

     Computing kpt #:    25  of    51
     total cpu time spent up to now is       21.5 secs

     Computing kpt #:    26  of    51
     total cpu time spent up to now is       21.9 secs

     Computing kpt #:    27  of    51
     total cpu time spent up to now is       22.3 secs

     Computing kpt #:    28  of    51
     total cpu time spent up to now is       22.6 secs

     Computing kpt #:    29  of    51
     total cpu time spent up to now is       23.0 secs

     Computing kpt #:    30  of    51
     total cpu time spent up to now is       23.3 secs

     Computing kpt #:    31  of    51
     total cpu time spent up to now is       23.6 secs

     Computing kpt #:    32  of    51
     total cpu time spent up to now is       24.0 secs

     Computing kpt #:    33  of    51
     total cpu time spent up to now is       24.4 secs

     Computing kpt #:    34  of    51
     total cpu time spent up to now is       24.8 secs

     Computing kpt #:    35  of    51
     total cpu time spent up to now is       25.1 secs

     Computing kpt #:    36  of    51
     total cpu time spent up to now is       25.4 secs

     Computing kpt #:    37  of    51
     total cpu time spent up to now is       25.8 secs

     Computing kpt #:    38  of    51
     total cpu time spent up to now is       26.2 secs

     Computing kpt #:    39  of    51
     total cpu time spent up to now is       26.6 secs

     Computing kpt #:    40  of    51
     total cpu time spent up to now is       27.1 secs

     Computing kpt #:    41  of    51
     total cpu time spent up to now is       27.5 secs

     Computing kpt #:    42  of    51
     total cpu time spent up to now is       28.0 secs

     Computing kpt #:    43  of    51
     total cpu time spent up to now is       28.6 secs

     Computing kpt #:    44  of    51
     total cpu time spent up to now is       29.0 secs

     Computing kpt #:    45  of    51
     total cpu time spent up to now is       29.5 secs

     Computing kpt #:    46  of    51
     total cpu time spent up to now is       29.9 secs

     Computing kpt #:    47  of    51
     total cpu time spent up to now is       30.4 secs

     Computing kpt #:    48  of    51
     total cpu time spent up to now is       30.8 secs

     Computing kpt #:    49  of    51
     total cpu time spent up to now is       31.2 secs

     Computing kpt #:    50  of    51
     total cpu time spent up to now is       31.7 secs

     Computing kpt #:    51  of    51
     total cpu time spent up to now is       32.1 secs

     ethr =  6.25E-09,  avg # of iterations = 46.8

     total cpu time spent up to now is       32.1 secs

     End of band structure calculation

          k = 0.0000 0.0000 0.0000 (  5775 PWs)   bands (ev):

   -20.1587 -19.9981  -8.2577  -7.1422  -3.8864  -3.8864  -3.8658  -3.8658
     2.0229   2.5459   3.5846   4.6546   4.8107   6.5462   7.2429   9.0945
     9.1022   9.1023   9.1724   9.1725

          k =-0.0159 0.0275 0.0000 (  5787 PWs)   bands (ev):

   -20.1443 -19.9838  -8.2377  -7.1231  -3.9491  -3.9299  -3.9160  -3.8955
     2.0485   2.5691   3.6089   4.6782   4.8338   6.5627   7.2659   9.0739
     9.1167   9.1556   9.1692   9.2378

          k =-0.0317 0.0550 0.0000 (  5795 PWs)   bands (ev):

   -20.1006 -19.9409  -8.1782  -7.0668  -4.1300  -4.1135  -4.0029  -3.9827
     2.1246   2.6387   3.6817   4.7488   4.9022   6.6111   7.3334   9.0429
     9.1241   9.1314   9.3467   9.4274

          k =-0.0476 0.0825 0.0000 (  5773 PWs)   bands (ev):

   -20.0280 -19.8697  -8.0792  -6.9730  -4.4153  -4.4001  -4.1450  -4.1240
     2.2494   2.7540   3.8025   4.8659   5.0130   6.6876   7.4416   9.0114
     9.0962   9.1431   9.5848   9.7228

          k =-0.0635 0.1100 0.0000 (  5767 PWs)   bands (ev):

   -19.9269 -19.7706  -7.9412  -6.8427  -4.7861  -4.7730  -4.3387  -4.3170
     2.4209   2.9139   3.9708   5.0285   5.1620   6.7858   7.5841   8.9895
     9.0874   9.1490   9.6757   9.9635

          k =-0.0794 0.1375 0.0000 (  5776 PWs)   bands (ev):

   -19.7981 -19.6444  -7.7650  -6.6767  -5.2206  -5.2091  -4.5793  -4.5561
     2.6376   3.1171   4.1863   5.2353   5.3427   6.8944   7.7483   8.9826
     9.0951   9.1514   9.4239  10.1447

          k =-0.0952 0.1650 0.0000 (  5776 PWs)   bands (ev):

   -19.6423 -19.4918  -7.5516  -6.4787  -5.6963  -5.6884  -4.8595  -4.8350
     2.8985   3.3620   4.4485   5.4844   5.5448   6.9980   7.8971   8.9884
     8.9928   9.1706   9.2661  10.3580

          k =-0.1111 0.1925 0.0000 (  5784 PWs)   bands (ev):

   -19.4608 -19.3139  -7.3035  -6.3067  -6.1930  -6.1395  -5.1734  -5.1473
     3.2030   3.6457   4.7567   5.7459   5.7709   7.0813   7.9019   8.8271
     9.0125   9.2341   9.3473  10.5791

          k =-0.1270 0.2199 0.0000 (  5786 PWs)   bands (ev):

   -19.2548 -19.1123  -7.0349  -6.7400  -6.6963  -5.9588  -5.5133  -5.4851
     3.5508   3.9628   5.1092   5.8982   6.0805   7.1553   7.6375   8.9290
     9.0902   9.3510   9.5014  10.8098

          k =-0.1429 0.2474 0.0000 (  5816 PWs)   bands (ev):

   -19.0265 -18.8891  -7.2559  -7.2550  -6.6796  -5.8724  -5.8508  -5.6593
     3.9409   4.3002   5.4950   5.9283   6.3503   7.2856   7.3103   9.2045
     9.2527   9.5157   9.7041  11.0520

          k =-0.1587 0.2749 0.0000 (  5824 PWs)   bands (ev):

   -18.7782 -18.6466  -7.7647  -7.7586  -6.3507  -6.2318  -6.2184  -5.3414
     4.3719   4.6201   5.6784   6.0271   6.3557   7.2944   7.5341   9.5007
     9.5549   9.7234   9.9483  11.3084

          k =-0.1746 0.3024 0.0000 (  5812 PWs)   bands (ev):

   -18.5130 -18.3880  -8.2550  -8.2497  -6.6285  -6.5959  -5.9579  -4.9963
     4.8032   4.8320   5.4161   6.1983   6.4898   7.6480   7.8873   9.8093
     9.9483   9.9712  10.2243  11.5843

          k =-0.1905 0.3299 0.0000 (  5836 PWs)   bands (ev):

   -18.2354 -18.1180  -8.7181  -8.7153  -7.0083  -6.9760  -5.5600  -4.6347
     4.6618   4.9591   5.4201   6.3202   7.0260   8.1345   8.3079  10.1301
    10.2686  10.3712  10.5152  11.8870

          k =-0.2063 0.3574 0.0000 (  5850 PWs)   bands (ev):

   -17.9504 -17.8417  -9.1460  -9.1451  -7.3851  -7.3531  -5.1427  -4.2627
     4.2797   4.5582   5.9523   6.7175   7.6104   8.6860   8.7652  10.4059
    10.6157  10.7934  10.8202  12.2267

          k =-0.2222 0.3849 0.0000 (  5860 PWs)   bands (ev):

   -17.6649 -17.5664  -9.5323  -9.5267  -7.7538  -7.7228  -4.7148  -3.8901
     3.8311   4.1264   6.5450   7.2408   8.2373   9.2206   9.2843  10.6058
    10.9575  11.0404  11.2789  12.3986

          k =-0.2381 0.4124 0.0000 (  5858 PWs)   bands (ev):

   -17.3876 -17.3006  -9.8645  -9.8522  -8.1110  -8.0810  -4.2856  -3.5289
     3.3914   3.7050   7.1759   7.8274   8.8937   9.5934   9.9177  10.7204
    11.2212  11.2775  11.7477  12.6006

          k =-0.2540 0.4399 0.0000 (  5854 PWs)   bands (ev):

   -17.1287 -17.0550 -10.1326 -10.1113  -8.4528  -8.4244  -3.8680  -3.1945
     2.9947   3.3133   7.8376   8.4487   9.4469   9.8480  10.5674  10.9048
    11.3211  11.6141  12.2005  12.9983

          k =-0.2698 0.4674 0.0000 (  5842 PWs)   bands (ev):

   -16.8998 -16.8408 -10.3258 -10.2938  -8.7752  -8.7497  -3.4772  -2.9067
     2.6654   2.9675   8.5203   9.0785   9.4219  10.4579  11.1422  11.2052
    11.3843  12.0115  12.5884  13.4485

          k =-0.2857 0.4949 0.0000 (  5832 PWs)   bands (ev):

   -16.7125 -16.6693 -10.4361 -10.3912  -9.0733  -9.0520  -3.1324  -2.6858
     2.4210   2.6810   9.1894   9.2148   9.6760  11.1404  11.1714  11.5469
    11.8138  12.4792  12.9297  13.7867

          k =-0.3016 0.5224 0.0000 (  5814 PWs)   bands (ev):

   -16.5760 -16.5482 -10.4637 -10.4031  -9.3373  -9.3229  -2.8523  -2.5494
     2.2729   2.4644   8.9808   9.8581  10.1693  11.0288  11.4823  12.1757
    12.1995  12.9194  13.3786  13.9899

          k =-0.3175 0.5499 0.0000 (  5828 PWs)   bands (ev):

   -16.4940 -16.4810 -10.4282 -10.3507  -9.5456  -9.5406  -2.6525  -2.5034
     2.2189   2.3207   8.8291  10.3973  10.4664  10.8686  11.6170  12.5005
    12.7657  13.2544  13.8147  14.0753

          k =-0.3333 0.5774 0.0000 (  5826 PWs)   bands (ev):

   -16.4645 -16.4639 -10.3929 -10.3051  -9.6379  -9.6372  -2.5397  -2.5391
     2.2414   2.2421   8.7739  10.5486  10.7063  10.7070  11.6813  12.7245
    12.7246  13.8343  13.8354  14.0544

          k =-0.3030 0.5774 0.0000 (  5824 PWs)   bands (ev):

   -16.4876 -16.4773 -10.4430 -10.3649  -9.5441  -9.5309  -2.6328  -2.5058
     2.2090   2.3097   8.8278  10.4682  10.5665  10.7605  11.5752  12.5933
    12.7515  13.5590  13.5734  14.0127

          k =-0.2727 0.5774 0.0000 (  5812 PWs)   bands (ev):

   -16.5395 -16.5211 -10.5649 -10.5011  -9.2968  -9.2685  -2.7640  -2.5305
     2.1962   2.3968   8.9908  10.2161  10.5122  10.6619  11.2802  12.4014
    12.5590  13.1984  13.2873  13.6020

          k =-0.2424 0.5774 0.0000 (  5812 PWs)   bands (ev):

   -16.6102 -16.5856 -10.7088 -10.6544  -8.9626  -8.9257  -2.9147  -2.5962
     2.1853   2.4830   9.2538   9.8857  10.4586  10.4725  10.9033  12.1035
    12.2023  12.8507  12.9952  13.2694

          k =-0.2121 0.5774 0.0000 (  5836 PWs)   bands (ev):

   -16.6904 -16.6614 -10.8499 -10.8017  -8.5835  -8.5427  -3.0706  -2.6858
     2.1658   2.5560   9.4955   9.5905  10.1077  10.4319  10.5710  11.7756
    11.7792  12.5430  12.6603  13.0368

          k =-0.1818 0.5774 0.0000 (  5824 PWs)   bands (ev):

   -16.7724 -16.7399 -10.9781 -10.9340  -8.1864  -8.1443  -3.2200  -2.7845
     2.1356   2.6107   9.0574   9.5978   9.9593  10.3418  10.3844  11.3603
    11.5125  12.2783  12.3589  12.8409

          k =-0.1515 0.5774 0.0000 (  5818 PWs)   bands (ev):

   -16.8504 -16.8155 -11.0895 -11.0481  -7.7945  -7.7532  -3.3559  -2.8821
     2.0972   2.6472   8.5930   9.0464  10.1488  10.2782  10.3294  11.0051
    11.3681  12.0595  12.1084  12.6704

          k =-0.1212 0.5774 0.0000 (  5836 PWs)   bands (ev):

   -16.9199 -16.8832 -11.1822 -11.1429  -7.4302  -7.3899  -3.4737  -2.9710
     2.0560   2.6684   8.1372   8.5158  10.0118  10.2716  10.4119  10.7253
    11.3903  11.8960  11.9071  12.5278

          k =-0.0909 0.5774 0.0000 (  5836 PWs)   bands (ev):

   -16.9769 -16.9390 -11.2548 -11.2170  -7.1146  -7.0761  -3.5685  -3.0448
     2.0175   2.6791   7.7307   8.0551   9.8984  10.2176  10.4055  10.5186
    11.4776  11.7523  11.8181  12.4154

          k =-0.0606 0.5774 0.0000 (  5824 PWs)   bands (ev):

   -17.0193 -16.9806 -11.3068 -11.2703  -6.8695  -6.8325  -3.6374  -3.0995
     1.9867   2.6835   7.4103   7.6991   9.8160  10.1734  10.3554  10.3778
    11.4834  11.6425  11.8424  12.3345

          k =-0.0303 0.5774 0.0000 (  5816 PWs)   bands (ev):

   -17.0453 -17.0063 -11.3380 -11.3024  -6.7135  -6.6779  -3.6796  -3.1332
     1.9666   2.6847   7.2053   7.4745   9.7660  10.1441  10.2967  10.3142
    11.4527  11.5768  11.8836  12.2858

          k = 0.0000 0.5774 0.0000 (  5820 PWs)   bands (ev):

   -17.0541 -17.0149 -11.3484 -11.3130  -6.6603  -6.6247  -3.6938  -3.1449
     1.9597   2.6846   7.1348   7.3976   9.7492  10.1336  10.2704  10.2992
    11.4390  11.5550  11.8981  12.2694

          k = 0.0000 0.5453 0.0000 (  5846 PWs)   bands (ev):

   -17.1018 -17.0553 -11.2811 -11.2441  -6.6444  -6.6089  -3.7783  -3.1980
     2.0528   2.7698   7.0908   7.3932   9.3026   9.5299  10.5468  10.8301
    10.8788  11.5604  11.9337  12.4023

          k = 0.0000 0.5132 0.0000 (  5850 PWs)   bands (ev):

   -17.2349 -17.1726 -11.0841 -11.0429  -6.5971  -6.5618  -4.0075  -3.3546
     2.3185   3.0108   6.9464   7.3730   8.7516   8.8710   9.8963  10.7917
    10.8761  11.5620  12.0190  12.5960

          k = 0.0000 0.4811 0.0000 (  5848 PWs)   bands (ev):

   -17.4328 -17.3542 -10.7738 -10.7291  -6.5186  -6.4836  -4.3338  -3.5998
     2.7224   3.3717   6.6742   7.2988   8.2825   8.3240   9.1956  10.1742
    10.4280  11.7872  12.1662  12.7784

          k = 0.0000 0.4491 0.0000 (  5862 PWs)   bands (ev):

   -17.6742 -17.5812 -10.3713 -10.3249  -6.4108  -6.3761  -4.7150  -3.9080
     3.2214   3.8094   6.2793   7.0706   7.9169   7.9580   8.5847   9.5213
     9.9712  11.3678  12.0244  13.0790

          k = 0.0000 0.4170 0.0000 (  5848 PWs)   bands (ev):

   -17.9399 -17.8349  -9.8970  -9.8511  -6.2739  -6.2396  -5.1198  -4.2522
     3.7697   4.2815   5.8128   6.6756   7.5343   7.7848   8.1457   8.9273
     9.5399  10.9368  11.5118  13.4278

          k = 0.0000 0.3849 0.0000 (  5838 PWs)   bands (ev):

   -18.2155 -18.1006  -9.3692  -9.3253  -6.1103  -6.0764  -5.5281  -4.6108
     4.3029   4.7330   5.3314   6.2894   7.0306   7.7014   7.8603   8.4366
     9.1791  10.5314  10.9874  13.2490

          k = 0.0000 0.3528 0.0000 (  5832 PWs)   bands (ev):

   -18.4902 -18.3667  -8.8029  -8.7620  -5.9261  -5.9227  -5.8894  -4.9687
     4.6527   4.8156   5.1736   6.1155   6.5184   7.5086   7.6158   8.1615
     8.9129  10.1713  10.4948  12.9017

          k = 0.0000 0.3208 0.0000 (  5818 PWs)   bands (ev):

   -18.7556 -18.6250  -8.2116  -8.1750  -6.3041  -5.7138  -5.6814  -5.3140
     4.3686   4.6016   5.5089   6.0465   6.2673   7.2250   7.3907   8.1066
     8.7398   9.8713  10.0500  12.5741

          k = 0.0000 0.2887 0.0000 (  5810 PWs)   bands (ev):

   -19.0062 -18.8694  -7.6078  -7.5783  -6.6539  -5.6390  -5.4882  -5.4566
     3.9485   4.3127   5.5004   5.8533   6.3341   7.1735   7.2572   8.1311
     8.6451   9.6410   9.6690  12.2839

          k = 0.0000 0.2566 0.0000 (  5786 PWs)   bands (ev):

   -19.2376 -19.0956  -7.0657  -7.0025  -6.8897  -5.9372  -5.2501  -5.2199
     3.5630   3.9814   5.1306   5.8578   6.0929   7.1241   7.5669   8.1822
     8.6232   9.3741   9.4830  11.9773

          k = 0.0000 0.2245 0.0000 (  5788 PWs)   bands (ev):

   -19.4470 -19.3006  -7.2859  -6.4334  -6.3694  -6.1846  -5.0064  -4.9777
     3.2165   3.6633   4.7764   5.7323   5.7869   7.0746   7.8530   8.3164
     8.6700   9.2129   9.3809  11.5642

          k = 0.0000 0.1925 0.0000 (  5778 PWs)   bands (ev):

   -19.6319 -19.4816  -7.5376  -6.4670  -5.8228  -5.8056  -4.7643  -4.7370
     2.9110   3.3765   4.4643   5.4984   5.5446   7.0000   7.8582   8.5779
     8.7611   9.2438   9.3171  11.1718

          k = 0.0000 0.1604 0.0000 (  5768 PWs)   bands (ev):

   -19.7907 -19.6371  -7.7551  -6.6675  -5.2991  -5.2807  -4.5323  -4.5068
     2.6479   3.1280   4.1980   5.2461   5.3474   6.8985   7.7342   8.7654
     8.8631   9.2672   9.4759  10.6537

          k = 0.0000 0.1283 0.0000 (  5792 PWs)   bands (ev):

   -19.9223 -19.7661  -7.9350  -6.8367  -4.8298  -4.8121  -4.3220  -4.2985
     2.4283   2.9211   3.9786   5.0358   5.1670   6.7894   7.5830   8.8817
     8.9541   9.2272   9.7672  10.1203

          k = 0.0000 0.0962 0.0000 (  5782 PWs)   bands (ev):

   -20.0253 -19.8671  -8.0757  -6.9697  -4.4356  -4.4182  -4.1417  -4.1200
     2.2539   2.7583   3.8070   4.8702   5.0167   6.6903   7.4439   8.9698
     9.0299   9.1906   9.6870   9.7548

          k = 0.0000 0.0642 0.0000 (  5797 PWs)   bands (ev):

   -20.0994 -19.9398  -8.1766  -7.0653  -4.1374  -4.1195  -4.0042  -3.9832
     2.1267   2.6407   3.6837   4.7508   4.9040   6.6124   7.3351   9.0334
     9.0911   9.1607   9.3662   9.4355

          k = 0.0000 0.0321 0.0000 (  5777 PWs)   bands (ev):

   -20.1439 -19.9834  -8.2372  -7.1227  -3.9506  -3.9313  -3.9161  -3.8958
     2.0490   2.5696   3.6095   4.6787   4.8343   6.5632   7.2664   9.0732
     9.1153   9.1593   9.1691   9.2393

          k = 0.0000 0.0000 0.0000 (  5775 PWs)   bands (ev):

   -20.1587 -19.9981  -8.2577  -7.1422  -3.8864  -3.8864  -3.8658  -3.8658
     2.0229   2.5459   3.5846   4.6546   4.8107   6.5462   7.2429   9.0945
     9.1022   9.1023   9.1724   9.1725

     Writing all to output data dir ./tmp/BN2L_AA1_PBE_vdW.save/

     init_run     :     10.75s CPU     10.92s WALL (       1 calls)
     electrons    :     21.96s CPU     21.12s WALL (       1 calls)

     Called by init_run:
     wfcinit      :      0.00s CPU      0.00s WALL (       1 calls)
     wfcinit:atom :      0.01s CPU      0.01s WALL (      51 calls)
     wfcinit:wfcr :      0.61s CPU      0.62s WALL (      51 calls)
     potinit      :     10.35s CPU     10.52s WALL (       1 calls)
     hinit0       :      0.36s CPU      0.36s WALL (       1 calls)

     Called by electrons:
     c_bands      :     21.95s CPU     21.12s WALL (       1 calls)
     v_of_rho     :     10.35s CPU     10.52s WALL (       1 calls)
     v_h          :      0.00s CPU      0.00s WALL (       1 calls)
     v_xc         :     10.35s CPU     10.51s WALL (       1 calls)
     vdW_kernel   :     10.29s CPU     10.44s WALL (       1 calls)

     Called by c_bands:
     init_us_2    :      0.01s CPU      0.02s WALL (      51 calls)
     init_us_2:cp :      0.01s CPU      0.02s WALL (      51 calls)
     cegterg      :     21.28s CPU     20.41s WALL (     144 calls)

     Called by sum_band:

     Called by *egterg:
     cdiaghg      :      1.54s CPU      1.58s WALL (    2437 calls)
     cegterg:over :      2.23s CPU      1.78s WALL (    2386 calls)
     cegterg:upda :      1.38s CPU      1.13s WALL (    2386 calls)
     cegterg:last :      2.40s CPU      1.66s WALL (    1260 calls)
     h_psi        :     13.62s CPU     14.01s WALL (    2581 calls)
     g_psi        :      0.11s CPU      0.16s WALL (    2386 calls)

     Called by h_psi:
     h_psi:calbec :      1.15s CPU      1.16s WALL (    2581 calls)
     vloc_psi     :     11.22s CPU     11.81s WALL (    2581 calls)
     add_vuspsi   :      1.10s CPU      0.88s WALL (    2581 calls)

     General routines
     calbec       :      1.15s CPU      1.15s WALL (    2581 calls)
     fft          :      0.29s CPU      0.30s WALL (      61 calls)
     fftw         :      9.89s CPU     10.37s WALL (   50028 calls)
     davcio       :      0.00s CPU      0.02s WALL (     102 calls)

     Parallel routines

     PWSCF        :     32.95s CPU     32.39s WALL


   This run was terminated on:  15:37: 3  17Apr2024            

=------------------------------------------------------------------------------=
   JOB DONE.
=------------------------------------------------------------------------------=
