
     Program PWSCF v.7.2 starts on 12Apr2024 at 17: 5: 9 

     This program is part of the open-source Quantum ESPRESSO suite
     for quantum simulation of materials; please cite
         "P. Giannozzi et al., J. Phys.:Condens. Matter 21 395502 (2009);
         "P. Giannozzi et al., J. Phys.:Condens. Matter 29 465901 (2017);
         "P. Giannozzi et al., J. Chem. Phys. 152 154105 (2020);
          URL http://www.quantum-espresso.org", 
     in publications or presentations arising from this work. More details at
     http://www.quantum-espresso.org/quote

     Parallel version (MPI & OpenMP), running on       8 processor cores
     Number of MPI processes:                 8
     Threads/MPI process:                     1

     MPI processes distributed on     1 nodes
     0 MiB available memory on the printing compute node when the environment starts

     Waiting for input...
     Reading input from standard input
Warning: card &IONS ignored
Warning: card / ignored
Warning: card &CELL ignored
Warning: card CELL_DOFREE = 'Z' ignored
Warning: card / ignored

     Current dimensions of program PWSCF are:
     Max number of different atomic species (ntypx) = 10
     Max number of k-points (npk) =  40000
     Max angular momentum in pseudopotentials (lmaxx) =  4

     Atomic positions and unit cell read from directory:
     ./tmp/BN2L_AA1_PBE_vdW.save/
     Atomic positions from file used, from input discarded


     IMPORTANT: XC functional enforced from input :
     Exchange-correlation= VDW-DF2-B86R
                           (   1   4  26   0   2   0   0)
     Any further DFT definition will be discarded
     Please, verify this is what you really want


     R & G space division:  proc/nbgrp/npool/nimage =       8
     Subspace diagonalization in iterative solution of the eigenvalue problem:
     a serial algorithm will be used


     Parallelization info
     --------------------
     sticks:   dense  smooth     PW     G-vecs:    dense   smooth      PW
     Min          45      45     15                 5775     5775    1005
     Max          46      46     16                 5804     5804    1022
     Sum         367     367    121                46381    46381    8133

     Using Slab Decomposition



     bravais-lattice index     =            4
     lattice parameter (alat)  =       4.7400  a.u.
     unit-cell volume          =     737.8289 (a.u.)^3
     number of atoms/cell      =            4
     number of atomic types    =            2
     number of electrons       =        16.00
     number of Kohn-Sham states=           20
     kinetic-energy cutoff     =      60.0000  Ry
     charge density cutoff     =     240.0000  Ry
     Exchange-correlation= VDW-DF2-B86R
                           (   1   4  26   0   2   0   0)

     celldm(1)=   4.740000  celldm(2)=   0.000000  celldm(3)=   8.000000
     celldm(4)=   0.000000  celldm(5)=   0.000000  celldm(6)=   0.000000

     crystal axes: (cart. coord. in units of alat)
               a(1) = (   1.000000   0.000000   0.000000 )  
               a(2) = (  -0.500000   0.866025   0.000000 )  
               a(3) = (   0.000000   0.000000   8.000000 )  

     reciprocal axes: (cart. coord. in units 2 pi/alat)
               b(1) = (  1.000000  0.577350 -0.000000 )  
               b(2) = (  0.000000  1.154701  0.000000 )  
               b(3) = (  0.000000 -0.000000  0.125000 )  


     PseudoPot. # 1 for B  read from file:
     ../../../../Pseudo/PBE/B.upf
     MD5 check sum: 72f82fc31bc892420d0cab7e25c88ab8
     Pseudo is Norm-conserving + core correction, Zval =  3.0
     Generated using ONCVPSP code by D. R. Hamann
     Using radial grid of 1534 points,  4 beta functions with: 
                l(1) =   0
                l(2) =   0
                l(3) =   1
                l(4) =   1

     PseudoPot. # 2 for N  read from file:
     ../../../../Pseudo/PBE/N.upf
     MD5 check sum: d34365f73bb0e2ee98afc20ec3e87676
     Pseudo is Norm-conserving + core correction, Zval =  5.0
     Generated using ONCVPSP code by D. R. Hamann
     Using radial grid of 1058 points,  4 beta functions with: 
                l(1) =   0
                l(2) =   0
                l(3) =   1
                l(4) =   1

     atomic species   valence    mass     pseudopotential
        B              3.00    10.00000     B ( 1.00)
        N              5.00    14.01100     N ( 1.00)

      6 Sym. Ops. (no inversion) found


                                    s                        frac. trans.

      isym =  1     identity                                     

 cryst.   s( 1) = (     1          0          0      )
                  (     0          1          0      )
                  (     0          0          1      )

 cart.    s( 1) = (  1.0000000  0.0000000  0.0000000 )
                  (  0.0000000  1.0000000  0.0000000 )
                  (  0.0000000  0.0000000  1.0000000 )


      isym =  2     120 deg rotation - cryst. axis [0,0,1]       

 cryst.   s( 2) = (     0          1          0      )
                  (    -1         -1          0      )
                  (     0          0          1      )

 cart.    s( 2) = ( -0.5000000 -0.8660254  0.0000000 )
                  (  0.8660254 -0.5000000  0.0000000 )
                  (  0.0000000  0.0000000  1.0000000 )


      isym =  3     120 deg rotation - cryst. axis [0,0,-1]      

 cryst.   s( 3) = (    -1         -1          0      )
                  (     1          0          0      )
                  (     0          0          1      )

 cart.    s( 3) = ( -0.5000000  0.8660254  0.0000000 )
                  ( -0.8660254 -0.5000000  0.0000000 )
                  (  0.0000000  0.0000000  1.0000000 )


      isym =  4     inv. 180 deg rotation - cart. axis [1,0,0]   

 cryst.   s( 4) = (    -1          0          0      )
                  (     1          1          0      )
                  (     0          0          1      )

 cart.    s( 4) = ( -1.0000000  0.0000000  0.0000000 )
                  (  0.0000000  1.0000000  0.0000000 )
                  (  0.0000000  0.0000000  1.0000000 )


      isym =  5     inv. 180 deg rotation - cryst. axis [0,1,0]  

 cryst.   s( 5) = (     1          1          0      )
                  (     0         -1          0      )
                  (     0          0          1      )

 cart.    s( 5) = (  0.5000000  0.8660254  0.0000000 )
                  (  0.8660254 -0.5000000  0.0000000 )
                  (  0.0000000  0.0000000  1.0000000 )


      isym =  6     inv. 180 deg rotation - cryst. axis [1,1,0]  

 cryst.   s( 6) = (     0         -1          0      )
                  (    -1          0          0      )
                  (     0          0          1      )

 cart.    s( 6) = (  0.5000000 -0.8660254  0.0000000 )
                  ( -0.8660254 -0.5000000  0.0000000 )
                  (  0.0000000  0.0000000  1.0000000 )


     point group C_3v (3m)  
     there are  3 classes
     the character table:

       E     2C3   3s_v 
A_1    1.00  1.00  1.00
A_2    1.00  1.00 -1.00
E      2.00 -1.00  0.00

     the symmetry operations in each class and the name of the first element:

     E        1
          identity                                               
     2C3      2    3
          120 deg rotation - cryst. axis [0,0,1]                 
     3s_v     4    5    6
          inv. 180 deg rotation - cart. axis [1,0,0]             

   Cartesian axes

     site n.     atom                  positions (alat units)
         1           B   tau(   1) = (   0.0000000   0.0000000   0.0000000  )
         2           N   tau(   2) = (   0.5000005   0.2886748   0.0000000  )
         3           N   tau(   3) = (   0.0000000   0.0000000   1.3360000  )
         4           B   tau(   4) = (   0.5000005   0.2886748   1.3360000  )

   Crystallographic axes

     site n.     atom                  positions (cryst. coord.)
         1           B   tau(   1) = (  0.0000000  0.0000000  0.0000000  )
         2           N   tau(   2) = (  0.6666670  0.3333330  0.0000000  )
         3           N   tau(   3) = (  0.0000000  0.0000000  0.1670000  )
         4           B   tau(   4) = (  0.6666670  0.3333330  0.1670000  )

     number of k points=    51  Marzari-Vanderbilt smearing, width (Ry)=  0.0050
                       cart. coord. in units 2pi/alat
        k(    1) = (   0.0000000   0.0000000   0.0000000), wk =   0.0392157
        k(    2) = (  -0.0158729   0.0274930   0.0000000), wk =   0.0392157
        k(    3) = (  -0.0317457   0.0549860   0.0000000), wk =   0.0392157
        k(    4) = (  -0.0476186   0.0824789   0.0000000), wk =   0.0392157
        k(    5) = (  -0.0634914   0.1099719   0.0000000), wk =   0.0392157
        k(    6) = (  -0.0793643   0.1374649   0.0000000), wk =   0.0392157
        k(    7) = (  -0.0952371   0.1649579   0.0000000), wk =   0.0392157
        k(    8) = (  -0.1111100   0.1924509   0.0000000), wk =   0.0392157
        k(    9) = (  -0.1269829   0.2199438   0.0000000), wk =   0.0392157
        k(   10) = (  -0.1428557   0.2474368   0.0000000), wk =   0.0392157
        k(   11) = (  -0.1587286   0.2749298   0.0000000), wk =   0.0392157
        k(   12) = (  -0.1746014   0.3024228   0.0000000), wk =   0.0392157
        k(   13) = (  -0.1904743   0.3299158   0.0000000), wk =   0.0392157
        k(   14) = (  -0.2063471   0.3574087   0.0000000), wk =   0.0392157
        k(   15) = (  -0.2222200   0.3849017   0.0000000), wk =   0.0392157
        k(   16) = (  -0.2380929   0.4123947   0.0000000), wk =   0.0392157
        k(   17) = (  -0.2539657   0.4398877   0.0000000), wk =   0.0392157
        k(   18) = (  -0.2698386   0.4673807   0.0000000), wk =   0.0392157
        k(   19) = (  -0.2857114   0.4948736   0.0000000), wk =   0.0392157
        k(   20) = (  -0.3015843   0.5223666   0.0000000), wk =   0.0392157
        k(   21) = (  -0.3174571   0.5498596   0.0000000), wk =   0.0392157
        k(   22) = (  -0.3333300   0.5773526   0.0000000), wk =   0.0392157
        k(   23) = (  -0.3030273   0.5773524   0.0000000), wk =   0.0392157
        k(   24) = (  -0.2727245   0.5773522   0.0000000), wk =   0.0392157
        k(   25) = (  -0.2424218   0.5773519   0.0000000), wk =   0.0392157
        k(   26) = (  -0.2121191   0.5773517   0.0000000), wk =   0.0392157
        k(   27) = (  -0.1818164   0.5773515   0.0000000), wk =   0.0392157
        k(   28) = (  -0.1515136   0.5773513   0.0000000), wk =   0.0392157
        k(   29) = (  -0.1212109   0.5773511   0.0000000), wk =   0.0392157
        k(   30) = (  -0.0909082   0.5773509   0.0000000), wk =   0.0392157
        k(   31) = (  -0.0606055   0.5773507   0.0000000), wk =   0.0392157
        k(   32) = (  -0.0303027   0.5773505   0.0000000), wk =   0.0392157
        k(   33) = (   0.0000000   0.5773503   0.0000000), wk =   0.0392157
        k(   34) = (   0.0000000   0.5452753   0.0000000), wk =   0.0392157
        k(   35) = (   0.0000000   0.5132002   0.0000000), wk =   0.0392157
        k(   36) = (   0.0000000   0.4811252   0.0000000), wk =   0.0392157
        k(   37) = (   0.0000000   0.4490502   0.0000000), wk =   0.0392157
        k(   38) = (   0.0000000   0.4169752   0.0000000), wk =   0.0392157
        k(   39) = (   0.0000000   0.3849002   0.0000000), wk =   0.0392157
        k(   40) = (   0.0000000   0.3528252   0.0000000), wk =   0.0392157
        k(   41) = (   0.0000000   0.3207501   0.0000000), wk =   0.0392157
        k(   42) = (   0.0000000   0.2886751   0.0000000), wk =   0.0392157
        k(   43) = (   0.0000000   0.2566001   0.0000000), wk =   0.0392157
        k(   44) = (   0.0000000   0.2245251   0.0000000), wk =   0.0392157
        k(   45) = (   0.0000000   0.1924501   0.0000000), wk =   0.0392157
        k(   46) = (   0.0000000   0.1603751   0.0000000), wk =   0.0392157
        k(   47) = (   0.0000000   0.1283001   0.0000000), wk =   0.0392157
        k(   48) = (   0.0000000   0.0962250   0.0000000), wk =   0.0392157
        k(   49) = (   0.0000000   0.0641500   0.0000000), wk =   0.0392157
        k(   50) = (   0.0000000   0.0320750   0.0000000), wk =   0.0392157
        k(   51) = (   0.0000000   0.0000000   0.0000000), wk =   0.0392157

                       cryst. coord.
        k(    1) = (   0.0000000   0.0000000   0.0000000), wk =   0.0392157
        k(    2) = (  -0.0158729   0.0317460   0.0000000), wk =   0.0392157
        k(    3) = (  -0.0317457   0.0634921   0.0000000), wk =   0.0392157
        k(    4) = (  -0.0476186   0.0952381   0.0000000), wk =   0.0392157
        k(    5) = (  -0.0634914   0.1269842   0.0000000), wk =   0.0392157
        k(    6) = (  -0.0793643   0.1587302   0.0000000), wk =   0.0392157
        k(    7) = (  -0.0952371   0.1904763   0.0000000), wk =   0.0392157
        k(    8) = (  -0.1111100   0.2222223   0.0000000), wk =   0.0392157
        k(    9) = (  -0.1269829   0.2539684   0.0000000), wk =   0.0392157
        k(   10) = (  -0.1428557   0.2857144   0.0000000), wk =   0.0392157
        k(   11) = (  -0.1587286   0.3174605   0.0000000), wk =   0.0392157
        k(   12) = (  -0.1746014   0.3492065   0.0000000), wk =   0.0392157
        k(   13) = (  -0.1904743   0.3809526   0.0000000), wk =   0.0392157
        k(   14) = (  -0.2063471   0.4126986   0.0000000), wk =   0.0392157
        k(   15) = (  -0.2222200   0.4444447   0.0000000), wk =   0.0392157
        k(   16) = (  -0.2380929   0.4761907   0.0000000), wk =   0.0392157
        k(   17) = (  -0.2539657   0.5079368   0.0000000), wk =   0.0392157
        k(   18) = (  -0.2698386   0.5396828   0.0000000), wk =   0.0392157
        k(   19) = (  -0.2857114   0.5714289   0.0000000), wk =   0.0392157
        k(   20) = (  -0.3015843   0.6031749   0.0000000), wk =   0.0392157
        k(   21) = (  -0.3174571   0.6349210   0.0000000), wk =   0.0392157
        k(   22) = (  -0.3333300   0.6666670   0.0000000), wk =   0.0392157
        k(   23) = (  -0.3030273   0.6515155   0.0000000), wk =   0.0392157
        k(   24) = (  -0.2727245   0.6363639   0.0000000), wk =   0.0392157
        k(   25) = (  -0.2424218   0.6212124   0.0000000), wk =   0.0392157
        k(   26) = (  -0.2121191   0.6060608   0.0000000), wk =   0.0392157
        k(   27) = (  -0.1818164   0.5909093   0.0000000), wk =   0.0392157
        k(   28) = (  -0.1515136   0.5757577   0.0000000), wk =   0.0392157
        k(   29) = (  -0.1212109   0.5606062   0.0000000), wk =   0.0392157
        k(   30) = (  -0.0909082   0.5454546   0.0000000), wk =   0.0392157
        k(   31) = (  -0.0606055   0.5303031   0.0000000), wk =   0.0392157
        k(   32) = (  -0.0303027   0.5151515   0.0000000), wk =   0.0392157
        k(   33) = (   0.0000000   0.5000000   0.0000000), wk =   0.0392157
        k(   34) = (   0.0000000   0.4722222   0.0000000), wk =   0.0392157
        k(   35) = (   0.0000000   0.4444444   0.0000000), wk =   0.0392157
        k(   36) = (   0.0000000   0.4166667   0.0000000), wk =   0.0392157
        k(   37) = (   0.0000000   0.3888889   0.0000000), wk =   0.0392157
        k(   38) = (   0.0000000   0.3611111   0.0000000), wk =   0.0392157
        k(   39) = (   0.0000000   0.3333333   0.0000000), wk =   0.0392157
        k(   40) = (   0.0000000   0.3055556   0.0000000), wk =   0.0392157
        k(   41) = (   0.0000000   0.2777778   0.0000000), wk =   0.0392157
        k(   42) = (   0.0000000   0.2500000   0.0000000), wk =   0.0392157
        k(   43) = (   0.0000000   0.2222222   0.0000000), wk =   0.0392157
        k(   44) = (   0.0000000   0.1944444   0.0000000), wk =   0.0392157
        k(   45) = (   0.0000000   0.1666667   0.0000000), wk =   0.0392157
        k(   46) = (   0.0000000   0.1388889   0.0000000), wk =   0.0392157
        k(   47) = (   0.0000000   0.1111111   0.0000000), wk =   0.0392157
        k(   48) = (   0.0000000   0.0833333   0.0000000), wk =   0.0392157
        k(   49) = (   0.0000000   0.0555556   0.0000000), wk =   0.0392157
        k(   50) = (   0.0000000   0.0277778   0.0000000), wk =   0.0392157
        k(   51) = (   0.0000000   0.0000000   0.0000000), wk =   0.0392157

     Dense  grid:    46381 G-vectors     FFT dimensions: (  24,  24, 192)

     Dynamical RAM for                 wfc:       0.22 MB

     Dynamical RAM for     wfc (w. buffer):       0.22 MB

     Dynamical RAM for           str. fact:       0.18 MB

     Dynamical RAM for           local pot:       0.00 MB

     Dynamical RAM for          nlocal pot:       0.35 MB

     Dynamical RAM for                qrad:       0.71 MB

     Dynamical RAM for          rho,v,vnew:       0.58 MB

     Dynamical RAM for           G-vectors:       0.38 MB

     Dynamical RAM for          h,s,v(r/c):       0.07 MB

     Dynamical RAM for          <psi|beta>:       0.01 MB

     Dynamical RAM for                 psi:       0.44 MB

     Dynamical RAM for                hpsi:       0.44 MB

     Dynamical RAM for      wfcinit/wfcrot:       0.45 MB

     Estimated static dynamical RAM per process >       3.21 MB

     Estimated max dynamical RAM per process >       4.18 MB

     Estimated total dynamical RAM >      33.43 MB

     The potential is recalculated from file :
     ./tmp/BN2L_AA1_PBE_vdW.save/charge-density



     %%%%%%%%%%%%%%%%%%%%%%%%%%%%%%%%%%%%%%%%%%%%%%%%%%%%%%%%%%%%%%%%%%%%%%%%
     %                                                                      %
     % You are using vdW-DF, which was implemented by the Thonhauser group. %
     % Please cite the following two papers that made this development      %
     % possible and the two reviews that describe the various versions:     %
     %                                                                      %
     %   T. Thonhauser et al., PRL 115, 136402 (2015).                      %
     %   T. Thonhauser et al., PRB 76, 125112 (2007).                       %
     %   K. Berland et al., Rep. Prog. Phys. 78, 066501 (2015).             %
     %   D.C. Langreth et al., J. Phys.: Condens. Matter 21, 084203 (2009). %
     %                                                                      %
     % If you are calculating stress with vdW-DF, please also cite:         %
     %                                                                      %
     %   R. Sabatini et al., J. Phys.: Condens. Matter 24, 424209 (2012).   %
     %                                                                      %
     %%%%%%%%%%%%%%%%%%%%%%%%%%%%%%%%%%%%%%%%%%%%%%%%%%%%%%%%%%%%%%%%%%%%%%%%

     %%%%%%%%%%%%%%%%%%%%%%%%%%%%%%%%%%%%%%%%%%%%%%%%%%%%%%%%%%%%%%%%%%%%%%%%
     %                                                                      %
     %  vdW-DF NEWS:                                                        %
     %                                                                      %
     %  * vdW-DF3 is now available. DOI: 10.1021/acs.jctc.0c00471           %
     %    use with input_dft = 'vdW-DF3-opt1' or 'vdW-DF3-opt2'             %
     %                                                                      %
     %  * Unscreened and range-separated hybrid vdW-DF-cx functionals       %
     %    DOI: 10.1063/1.4986522 and 10.1088/1361-648X/ac2ad2               %
     %    use with input_dft = 'vdW-DF-cx0'    and 'vdW-DF-ahcx'            %
     %  * Unscreened and range-separated hybrid vdW-DF2-b86r functionals    %
     %    DOI: 10.1063/1.4986522 and DOI: 10.1103/PhysRevX.12.041003        %
     %    use with input_dft = 'vdW-DF2-br0' and 'vdW-DF2-ahbr'             %
     %                                                                      %
     %%%%%%%%%%%%%%%%%%%%%%%%%%%%%%%%%%%%%%%%%%%%%%%%%%%%%%%%%%%%%%%%%%%%%%%%


     Carrying out vdW-DF run using the following parameters:
     Nqs    =  20  Npoints =  1024  r_max =  100.000
     q_mesh =  0.00001000  0.04494208  0.09755937  0.15916263
               0.23128650  0.31572767  0.41458969  0.53033537
               0.66584808  0.82450364  1.01025438  1.22772762
               1.48234092  1.78043706  2.12944203  2.53805004
               3.01644009  3.57652955  4.23227104  5.00000000


     -----------------------------------------------
     Non-local corr. energy    =       0.20154884 Ry
     -----------------------------------------------

     Starting wfcs are   16 randomized atomic wfcs +    4 random wfcs

     Band Structure Calculation
     Davidson diagonalization with overlap

     Computing kpt #:     1  of    51
     total cpu time spent up to now is        9.7 secs

     Computing kpt #:     2  of    51
     total cpu time spent up to now is       10.0 secs

     Computing kpt #:     3  of    51
     total cpu time spent up to now is       10.4 secs

     Computing kpt #:     4  of    51
     total cpu time spent up to now is       10.8 secs

     Computing kpt #:     5  of    51
     total cpu time spent up to now is       11.2 secs

     Computing kpt #:     6  of    51
     total cpu time spent up to now is       11.6 secs

     Computing kpt #:     7  of    51
     total cpu time spent up to now is       12.0 secs

     Computing kpt #:     8  of    51
     total cpu time spent up to now is       12.3 secs

     Computing kpt #:     9  of    51
     total cpu time spent up to now is       12.7 secs

     Computing kpt #:    10  of    51
     total cpu time spent up to now is       13.0 secs

     Computing kpt #:    11  of    51
     total cpu time spent up to now is       13.3 secs

     Computing kpt #:    12  of    51
     total cpu time spent up to now is       13.6 secs

     Computing kpt #:    13  of    51
     total cpu time spent up to now is       13.9 secs

     Computing kpt #:    14  of    51
     total cpu time spent up to now is       14.2 secs

     Computing kpt #:    15  of    51
     total cpu time spent up to now is       14.4 secs

     Computing kpt #:    16  of    51
     total cpu time spent up to now is       14.7 secs

     Computing kpt #:    17  of    51
     total cpu time spent up to now is       14.9 secs

     Computing kpt #:    18  of    51
     total cpu time spent up to now is       15.2 secs

     Computing kpt #:    19  of    51
     total cpu time spent up to now is       15.5 secs

     Computing kpt #:    20  of    51
     total cpu time spent up to now is       15.8 secs

     Computing kpt #:    21  of    51
     total cpu time spent up to now is       16.2 secs

     Computing kpt #:    22  of    51
     total cpu time spent up to now is       16.5 secs

     Computing kpt #:    23  of    51
     total cpu time spent up to now is       16.8 secs

     Computing kpt #:    24  of    51
     total cpu time spent up to now is       17.1 secs

     Computing kpt #:    25  of    51
     total cpu time spent up to now is       17.4 secs

     Computing kpt #:    26  of    51
     total cpu time spent up to now is       17.7 secs

     Computing kpt #:    27  of    51
     total cpu time spent up to now is       18.0 secs

     Computing kpt #:    28  of    51
     total cpu time spent up to now is       18.2 secs

     Computing kpt #:    29  of    51
     total cpu time spent up to now is       18.5 secs

     Computing kpt #:    30  of    51
     total cpu time spent up to now is       18.7 secs

     Computing kpt #:    31  of    51
     total cpu time spent up to now is       19.0 secs

     Computing kpt #:    32  of    51
     total cpu time spent up to now is       19.2 secs

     Computing kpt #:    33  of    51
     total cpu time spent up to now is       19.4 secs

     Computing kpt #:    34  of    51
     total cpu time spent up to now is       19.7 secs

     Computing kpt #:    35  of    51
     total cpu time spent up to now is       19.9 secs

     Computing kpt #:    36  of    51
     total cpu time spent up to now is       20.2 secs

     Computing kpt #:    37  of    51
     total cpu time spent up to now is       20.4 secs

     Computing kpt #:    38  of    51
     total cpu time spent up to now is       20.7 secs

     Computing kpt #:    39  of    51
     total cpu time spent up to now is       21.1 secs

     Computing kpt #:    40  of    51
     total cpu time spent up to now is       21.4 secs

     Computing kpt #:    41  of    51
     total cpu time spent up to now is       21.7 secs

     Computing kpt #:    42  of    51
     total cpu time spent up to now is       22.0 secs

     Computing kpt #:    43  of    51
     total cpu time spent up to now is       22.4 secs

     Computing kpt #:    44  of    51
     total cpu time spent up to now is       22.8 secs

     Computing kpt #:    45  of    51
     total cpu time spent up to now is       23.2 secs

     Computing kpt #:    46  of    51
     total cpu time spent up to now is       23.7 secs

     Computing kpt #:    47  of    51
     total cpu time spent up to now is       24.0 secs

     Computing kpt #:    48  of    51
     total cpu time spent up to now is       24.4 secs

     Computing kpt #:    49  of    51
     total cpu time spent up to now is       24.7 secs

     Computing kpt #:    50  of    51
     total cpu time spent up to now is       25.1 secs

     Computing kpt #:    51  of    51
     total cpu time spent up to now is       25.5 secs

     ethr =  6.25E-09,  avg # of iterations = 47.2

     total cpu time spent up to now is       25.5 secs

     End of band structure calculation

          k = 0.0000 0.0000 0.0000 (  5727 PWs)   bands (ev):

   -20.1564 -20.0144  -8.2217  -7.1879  -3.8540  -3.8539  -3.8373  -3.8373
     2.0244   2.5549   3.5950   4.6856   4.7747   6.5493   7.3003   9.1654
     9.1807   9.1808   9.2425   9.2426

          k =-0.0159 0.0275 0.0000 (  5747 PWs)   bands (ev):

   -20.1418 -20.0001  -8.2019  -7.1691  -3.9166  -3.9012  -3.8834  -3.8667
     2.0501   2.5783   3.6193   4.7093   4.7975   6.5659   7.3235   9.1472
     9.1929   9.2263   9.2466   9.3079

          k =-0.0317 0.0550 0.0000 (  5755 PWs)   bands (ev):

   -20.0980 -19.9570  -8.1424  -7.1123  -4.0979  -4.0846  -3.9714  -3.9542
     2.1264   2.6483   3.6923   4.7803   4.8649   6.6152   7.3917   9.1174
     9.1950   9.2088   9.4262   9.4981

          k =-0.0476 0.0825 0.0000 (  5749 PWs)   bands (ev):

   -20.0252 -19.8855  -8.0432  -7.0179  -4.3841  -4.3728  -4.1142  -4.0965
     2.2516   2.7642   3.8134   4.8979   4.9744   6.6939   7.5011   9.0870
     9.1669   9.2228   9.6648   9.7950

          k =-0.0635 0.1100 0.0000 (  5751 PWs)   bands (ev):

   -19.9239 -19.7860  -7.9046  -6.8864  -4.7562  -4.7463  -4.3093  -4.2911
     2.4237   2.9249   3.9822   5.0613   5.1217   6.7961   7.6456   9.0672
     9.1582   9.2305   9.7443  10.0522

          k =-0.0794 0.1375 0.0000 (  5752 PWs)   bands (ev):

   -19.7947 -19.6590  -7.7276  -6.7192  -5.1918  -5.1837  -4.5504  -4.5313
     2.6412   3.1293   4.1982   5.2692   5.3005   6.9117   7.8132   9.0628
     9.1654   9.2327   9.4900  10.2385

          k =-0.0952 0.1650 0.0000 (  5768 PWs)   bands (ev):

   -19.6384 -19.5057  -7.5133  -6.5187  -5.6702  -5.6643  -4.8326  -4.8121
     2.9030   3.3757   4.4607   5.5004   5.5197   7.0258   7.9680   9.0557
     9.0696   9.2488   9.3337  10.4535

          k =-0.1111 0.1925 0.0000 (  5758 PWs)   bands (ev):

   -19.4562 -19.3267  -7.2639  -6.3182  -6.1707  -6.1411  -5.1473  -5.1256
     3.2088   3.6615   4.7691   5.7011   5.8082   7.1229   7.9806   8.8811
     9.0879   9.3111   9.4160  10.6768

          k =-0.1270 0.2199 0.0000 (  5758 PWs)   bands (ev):

   -19.2495 -19.1240  -6.9928  -6.7143  -6.6764  -5.9972  -5.4888  -5.4652
     3.5581   3.9815   5.1207   5.8592   6.1213   7.2069   7.7143   8.9837
     9.1531   9.4284   9.5695  10.9101

          k =-0.1429 0.2474 0.0000 (  5786 PWs)   bands (ev):

   -19.0205 -18.8995  -7.2325  -7.2320  -6.6405  -5.8495  -5.8333  -5.6946
     3.9502   4.3231   5.4992   5.9136   6.3995   7.3331   7.3744   9.2635
     9.3040   9.5944   9.7718  11.1547

          k =-0.1587 0.2749 0.0000 (  5774 PWs)   bands (ev):

   -18.7712 -18.6553  -7.7426  -7.7390  -6.3096  -6.2097  -6.2007  -5.3747
     4.3838   4.6516   5.6605   6.0567   6.4165   7.3395   7.5666   9.5459
     9.6183   9.8029  10.0159  11.4135

          k =-0.1746 0.3024 0.0000 (  5786 PWs)   bands (ev):

   -18.5052 -18.3952  -8.2357  -8.2325  -6.6076  -6.5802  -5.9155  -5.0270
     4.8503   4.8525   5.4133   6.2465   6.5164   7.6894   7.9066   9.8567
    10.0160  10.0480  10.2916  11.6900

          k =-0.1905 0.3299 0.0000 (  5790 PWs)   bands (ev):

   -18.2265 -18.1232  -8.7011  -8.7000  -6.9887  -6.9614  -5.5154  -4.6615
     4.7297   4.9845   5.4224   6.3507   7.0521   8.1772   8.3190  10.1948
    10.3322  10.4434  10.5840  11.9918

          k =-0.2063 0.3574 0.0000 (  5808 PWs)   bands (ev):

   -17.9404 -17.8449  -9.1328  -9.1308  -7.3666  -7.3393  -5.0970  -4.2856
     4.3519   4.5805   5.9637   6.7433   7.6369   8.7309   8.7716  10.4887
    10.6687  10.8652  10.8970  12.3269

          k =-0.2222 0.3849 0.0000 (  5812 PWs)   bands (ev):

   -17.6538 -17.5673  -9.5210  -9.5145  -7.7366  -7.7095  -4.6679  -3.9081
     3.9023   4.1491   6.5602   7.2676   8.2642   9.2259   9.3316  10.6934
    11.0180  11.1161  11.3598  12.4839

          k =-0.2381 0.4124 0.0000 (  5826 PWs)   bands (ev):

   -17.3755 -17.2992  -9.8553  -9.8432  -8.0947  -8.0688  -4.2381  -3.5413
     3.4593   3.7269   7.1944   7.8567   8.9186   9.6075   9.9677  10.8095
    11.2995  11.3487  11.8311  12.6895

          k =-0.2540 0.4399 0.0000 (  5816 PWs)   bands (ev):

   -17.1155 -17.0509 -10.1250 -10.1055  -8.4369  -8.4128  -3.8201  -3.2008
     3.0585   3.3345   7.8596   8.4810   9.4647   9.8942  10.6206  10.9843
    11.3974  11.6876  12.2843  13.0858

          k =-0.2698 0.4674 0.0000 (  5810 PWs)   bands (ev):

   -16.8859 -16.8342 -10.3198 -10.2911  -8.7597  -8.7380  -3.4304  -2.9062
     2.7238   2.9888   8.5462   9.1138   9.4643  10.5044  11.2058  11.2765
    11.4444  12.0779  12.6623  13.4637

          k =-0.2857 0.4949 0.0000 (  5794 PWs)   bands (ev):

   -16.6981 -16.6601 -10.4320 -10.3915  -9.0573  -9.0396  -3.0874  -2.6776
     2.4735   2.7037   9.2355   9.2559   9.7135  11.1926  11.2354  11.6101
    11.8612  12.5386  12.9898  13.8103

          k =-0.3016 0.5224 0.0000 (  5796 PWs)   bands (ev):

   -16.5613 -16.5372 -10.4612 -10.4077  -9.3212  -9.3092  -2.8109  -2.5329
     2.3189   2.4897   9.0438   9.8948  10.2058  11.0850  11.5431  12.2254
    12.2421  12.9769  13.4377  14.0380

          k =-0.3175 0.5499 0.0000 (  5792 PWs)   bands (ev):

   -16.4795 -16.4682 -10.4273 -10.3593  -9.5278  -9.5238  -2.6158  -2.4790
     2.2587   2.3499   8.8947  10.4431  10.4972  10.9227  11.6706  12.5442
    12.8159  13.3068  13.8706  14.1288

          k =-0.3333 0.5774 0.0000 (  5814 PWs)   bands (ev):

   -16.4507 -16.4504 -10.3933 -10.3170  -9.6188  -9.6186  -2.5088  -2.5085
     2.2757   2.2759   8.8401  10.5749  10.7589  10.7591  11.7300  12.7715
    12.7720  13.8888  13.8893  14.1110

          k =-0.3030 0.5774 0.0000 (  5792 PWs)   bands (ev):

   -16.4732 -16.4643 -10.4418 -10.3736  -9.5260  -9.5150  -2.5968  -2.4803
     2.2480   2.3393   8.8936  10.5072  10.6053  10.8136  11.6265  12.6428
    12.8008  13.6051  13.6273  14.0637

          k =-0.2727 0.5774 0.0000 (  5788 PWs)   bands (ev):

   -16.5251 -16.5091 -10.5620 -10.5060  -9.2799  -9.2563  -2.7243  -2.5107
     2.2396   2.4227   9.0551  10.2617  10.5472  10.7136  11.3336  12.4584
    12.6131  13.2509  13.3323  13.6484

          k =-0.2424 0.5774 0.0000 (  5788 PWs)   bands (ev):

   -16.5959 -16.5746 -10.7047 -10.6567  -8.9463  -8.9151  -2.8724  -2.5812
     2.2323   2.5056   9.3158   9.9333  10.5110  10.5143  10.9544  12.1628
    12.2603  12.9021  13.0479  13.3101

          k =-0.2121 0.5774 0.0000 (  5796 PWs)   bands (ev):

   -16.6764 -16.6512 -10.8449 -10.8024  -8.5669  -8.5322  -3.0265  -2.6747
     2.2157   2.5757   9.5471   9.6496  10.1767  10.4732  10.6119  11.8336
    11.8345  12.5937  12.7111  13.0818

          k =-0.1818 0.5774 0.0000 (  5788 PWs)   bands (ev):

   -16.7589 -16.7307 -10.9727 -10.9340  -8.1692  -8.1335  -3.1750  -2.7767
     2.1874   2.6277   9.1137   9.6811  10.0065  10.3788  10.4265  11.4154
    11.5606  12.3286  12.4061  12.8882

          k =-0.1515 0.5774 0.0000 (  5794 PWs)   bands (ev):

   -16.8374 -16.8070 -11.0841 -11.0476  -7.7771  -7.7420  -3.3105  -2.8770
     2.1504   2.6620   8.6537   9.1317  10.1703  10.3354  10.3710  11.0558
    11.4067  12.1102  12.1532  12.7168

          k =-0.1212 0.5774 0.0000 (  5800 PWs)   bands (ev):

   -16.9072 -16.8753 -11.1765 -11.1419  -7.4123  -7.3780  -3.4274  -2.9674
     2.1102   2.6813   8.2016   8.6027  10.0372  10.3118  10.4616  10.7721
    11.4164  11.9476  11.9503  12.5723

          k =-0.0909 0.5774 0.0000 (  5794 PWs)   bands (ev):

   -16.9645 -16.9317 -11.2487 -11.2159  -7.0964  -7.0635  -3.5216  -3.0431
     2.0724   2.6904   7.7974   8.1427   9.9240  10.2563  10.4531  10.5627
    11.4961  11.7945  11.8666  12.4582

          k =-0.0606 0.5774 0.0000 (  5794 PWs)   bands (ev):

   -17.0071 -16.9737 -11.3008 -11.2691  -6.8511  -6.8195  -3.5910  -3.0989
     2.0418   2.6934   7.4782   7.7870   9.8412  10.2104  10.4015  10.4204
    11.5074  11.6840  11.8788  12.3758

          k =-0.0303 0.5774 0.0000 (  5788 PWs)   bands (ev):

   -17.0333 -16.9995 -11.3321 -11.3012  -6.6948  -6.6642  -3.6330  -3.1334
     2.0220   2.6936   7.2738   7.5622   9.7910  10.1798  10.3387  10.3596
    11.4818  11.6180  11.9126  12.3261

          k = 0.0000 0.5774 0.0000 (  5812 PWs)   bands (ev):

   -17.0423 -17.0084 -11.3426 -11.3120  -6.6420  -6.6114  -3.6477  -3.1454
     2.0150   2.6931   7.2034   7.4852   9.7740  10.1687  10.3122  10.3442
    11.4693  11.5960  11.9252  12.3094

          k = 0.0000 0.5453 0.0000 (  5818 PWs)   bands (ev):

   -17.0899 -17.0494 -11.2746 -11.2424  -6.6259  -6.5954  -3.7314  -3.2003
     2.1093   2.7792   7.1566   7.4797   9.3364   9.5706  10.5702  10.8674
    10.9211  11.6085  11.9501  12.4424

          k = 0.0000 0.5132 0.0000 (  5824 PWs)   bands (ev):

   -17.2231 -17.1686 -11.0760 -11.0405  -6.5782  -6.5480  -3.9601  -3.3612
     2.3777   3.0222   7.0027   7.4548   8.7932   8.9139   9.9310  10.7898
    10.9226  11.6023  12.0769  12.6328

          k = 0.0000 0.4811 0.0000 (  5816 PWs)   bands (ev):

   -17.4214 -17.3524 -10.7636 -10.7250  -6.4996  -6.4696  -4.2861  -3.6117
     2.7848   3.3859   6.7165   7.3674   8.3325   8.3756   9.2336  10.2268
    10.4094  11.8350  12.2106  12.8479

          k = 0.0000 0.4491 0.0000 (  5808 PWs)   bands (ev):

   -17.6633 -17.5817 -10.3584 -10.3188  -6.3907  -6.3609  -4.6677  -3.9252
     3.2869   3.8272   6.3084   7.1145   7.9791   8.0156   8.6297   9.5735
     9.9594  11.3907  12.0928  13.1390

          k = 0.0000 0.4170 0.0000 (  5822 PWs)   bands (ev):

   -17.9301 -17.8379  -9.8822  -9.8431  -6.2536  -6.2240  -5.0737  -4.2743
     3.8367   4.3016   5.8325   6.7046   7.5702   7.8642   8.2000   8.9807
     9.5437  10.9411  11.5826  13.4991

          k = 0.0000 0.3849 0.0000 (  5814 PWs)   bands (ev):

   -18.2068 -18.1057  -9.3519  -9.3147  -6.0893  -6.0600  -5.4832  -4.6372
     4.3702   4.7542   5.3428   6.3162   7.0595   7.7726   7.9113   8.4981
     9.2051  10.5243  11.0572  13.3222

          k = 0.0000 0.3528 0.0000 (  5800 PWs)   bands (ev):

   -18.4822 -18.3737  -8.7834  -8.7490  -5.9007  -5.8826  -5.8720  -4.9983
     4.7093   4.8362   5.1744   6.1537   6.5456   7.5598   7.6584   8.2401
     8.9614  10.1602  10.5632  12.9635

          k = 0.0000 0.3208 0.0000 (  5792 PWs)   bands (ev):

   -18.7487 -18.6337  -8.1902  -8.1594  -6.2621  -5.6908  -5.6628  -5.3471
     4.3817   4.6359   5.5015   6.0763   6.3222   7.2693   7.4320   8.1910
     8.8038   9.8649  10.1171  12.6278

          k = 0.0000 0.2887 0.0000 (  5802 PWs)   bands (ev):

   -19.0002 -18.8798  -7.5844  -7.5597  -6.6143  -5.6752  -5.4644  -5.4373
     3.9582   4.3365   5.4988   5.8536   6.3840   7.2293   7.3093   8.2135
     8.7158   9.6485   9.7349  12.3333

          k = 0.0000 0.2566 0.0000 (  5764 PWs)   bands (ev):

   -19.2323 -19.1072  -7.0289  -6.9767  -6.8672  -5.9758  -5.2248  -5.1993
     3.5706   4.0003   5.1412   5.8262   6.1340   7.1771   7.6407   8.2595
     8.6964   9.4400   9.5103  12.0622

          k = 0.0000 0.2245 0.0000 (  5762 PWs)   bands (ev):

   -19.4424 -19.3133  -7.2457  -6.4122  -6.3489  -6.2187  -4.9800  -4.9557
     3.2225   3.6793   4.7886   5.6912   5.8243   7.1174   7.9315   8.3907
     8.7440   9.2802   9.4282  11.6492

          k = 0.0000 0.1925 0.0000 (  5740 PWs)   bands (ev):

   -19.6279 -19.4952  -7.4989  -6.5063  -5.7968  -5.7826  -4.7359  -4.7134
     2.9157   3.3904   4.4765   5.5018   5.5339   7.0291   7.9292   8.6581
     8.8348   9.3122   9.3810  11.2578

          k = 0.0000 0.1604 0.0000 (  5732 PWs)   bands (ev):

   -19.7872 -19.6517  -7.7174  -6.7098  -5.2702  -5.2556  -4.5031  -4.4819
     2.6515   3.1402   4.2098   5.2801   5.3057   6.9166   7.7993   8.8478
     8.9353   9.3411   9.5454  10.7407

          k = 0.0000 0.1283 0.0000 (  5750 PWs)   bands (ev):

   -19.9191 -19.7812  -7.8981  -6.8802  -4.7996  -4.7857  -4.2914  -4.2713
     2.4311   2.9323   3.9900   5.0687   5.1270   6.8002   7.6447   8.9622
     9.0252   9.3048   9.8369  10.2039

          k = 0.0000 0.0962 0.0000 (  5752 PWs)   bands (ev):

   -20.0225 -19.8828  -8.0393  -7.0144  -4.4044  -4.3910  -4.1103  -4.0925
     2.2561   2.7684   3.8179   4.9022   4.9781   6.6967   7.5035   9.0475
     9.1010   9.2676   9.7683   9.8275

          k = 0.0000 0.0642 0.0000 (  5753 PWs)   bands (ev):

   -20.0968 -19.9558  -8.1408  -7.1108  -4.1053  -4.0906  -3.9715  -3.9546
     2.1285   2.6502   3.6943   4.7823   4.8667   6.6165   7.3934   9.1086
     9.1639   9.2354   9.4457   9.5062

          k = 0.0000 0.0321 0.0000 (  5747 PWs)   bands (ev):

   -20.1415 -19.9998  -8.2016  -7.1687  -3.9182  -3.9022  -3.8840  -3.8670
     2.0506   2.5788   3.6199   4.7099   4.7979   6.5662   7.3240   9.1465
     9.1909   9.2290   9.2475   9.3087

          k = 0.0000 0.0000 0.0000 (  5727 PWs)   bands (ev):

   -20.1564 -20.0144  -8.2217  -7.1879  -3.8540  -3.8539  -3.8373  -3.8373
     2.0244   2.5549   3.5950   4.6856   4.7747   6.5493   7.3003   9.1654
     9.1807   9.1808   9.2425   9.2426

     Writing all to output data dir ./tmp/BN2L_AA1_PBE_vdW.save/

     init_run     :      9.29s CPU      9.31s WALL (       1 calls)
     electrons    :     17.25s CPU     16.06s WALL (       1 calls)

     Called by init_run:
     wfcinit      :      0.00s CPU      0.00s WALL (       1 calls)
     wfcinit:atom :      0.01s CPU      0.01s WALL (      51 calls)
     wfcinit:wfcr :      0.44s CPU      0.44s WALL (      51 calls)
     potinit      :      8.91s CPU      8.93s WALL (       1 calls)
     hinit0       :      0.35s CPU      0.35s WALL (       1 calls)

     Called by electrons:
     c_bands      :     17.25s CPU     16.05s WALL (       1 calls)
     v_of_rho     :      8.91s CPU      8.93s WALL (       1 calls)
     v_h          :      0.00s CPU      0.00s WALL (       1 calls)
     v_xc         :      8.91s CPU      8.92s WALL (       1 calls)
     vdW_kernel   :      8.86s CPU      8.88s WALL (       1 calls)

     Called by c_bands:
     init_us_2    :      0.01s CPU      0.01s WALL (      51 calls)
     init_us_2:cp :      0.01s CPU      0.01s WALL (      51 calls)
     cegterg      :     16.75s CPU     15.55s WALL (     146 calls)

     Called by sum_band:

     Called by *egterg:
     cdiaghg      :      1.44s CPU      1.45s WALL (    2459 calls)
     cegterg:over :      1.81s CPU      1.36s WALL (    2408 calls)
     cegterg:upda :      1.22s CPU      0.95s WALL (    2408 calls)
     cegterg:last :      2.05s CPU      1.35s WALL (    1289 calls)
     h_psi        :     10.08s CPU     10.20s WALL (    2605 calls)
     g_psi        :      0.11s CPU      0.14s WALL (    2408 calls)

     Called by h_psi:
     h_psi:calbec :      0.74s CPU      0.75s WALL (    2605 calls)
     vloc_psi     :      8.31s CPU      8.61s WALL (    2605 calls)
     add_vuspsi   :      0.94s CPU      0.74s WALL (    2605 calls)

     General routines
     calbec       :      0.73s CPU      0.74s WALL (    2605 calls)
     fft          :      0.27s CPU      0.28s WALL (      61 calls)
     fftw         :      7.37s CPU      7.59s WALL (   50646 calls)
     davcio       :      0.00s CPU      0.01s WALL (     102 calls)

     Parallel routines

     PWSCF        :     26.76s CPU     25.67s WALL


   This run was terminated on:  17: 5:35  12Apr2024            

=------------------------------------------------------------------------------=
   JOB DONE.
=------------------------------------------------------------------------------=
