
     Program PWSCF v.7.0 starts on 14Apr2025 at  5:59:57 

     This program is part of the open-source Quantum ESPRESSO suite
     for quantum simulation of materials; please cite
         "P. Giannozzi et al., J. Phys.:Condens. Matter 21 395502 (2009);
         "P. Giannozzi et al., J. Phys.:Condens. Matter 29 465901 (2017);
         "P. Giannozzi et al., J. Chem. Phys. 152 154105 (2020);
          URL http://www.quantum-espresso.org", 
     in publications or presentations arising from this work. More details at
     http://www.quantum-espresso.org/quote

     Parallel version (MPI & OpenMP), running on       8 processor cores
     Number of MPI processes:                 8
     Threads/MPI process:                     1

     MPI processes distributed on     1 nodes
     R & G space division:  proc/nbgrp/npool/nimage =       8
     0 MiB available memory on the printing compute node when the environment starts

     Waiting for input...
     Reading input from standard input
Warning: card &IONS ignored
Warning: card / ignored
Warning: card &CELL ignored
Warning: card CELL_DOFREE = 'Z' ignored
Warning: card / ignored

     Current dimensions of program PWSCF are:
     Max number of different atomic species (ntypx) = 10
     Max number of k-points (npk) =  40000
     Max angular momentum in pseudopotentials (lmaxx) =  4

     Atomic positions and unit cell read from directory:
     ./tmp/BN2L_AA1_PBE_vdW.save/
     Atomic positions from file used, from input discarded


     IMPORTANT: XC functional enforced from input :
     Exchange-correlation= VDW-DF2-B86R
                           (   1   4  26   0   2   0   0)
     Any further DFT definition will be discarded
     Please, verify this is what you really want


     Subspace diagonalization in iterative solution of the eigenvalue problem:
     one sub-group per band group will be used
     scalapack distributed-memory algorithm (size of sub-group:  2*  2 procs)


     Parallelization info
     --------------------
     sticks:   dense  smooth     PW     G-vecs:    dense   smooth      PW
     Min          45      45     14                 5791     5791    1010
     Max          46      46     16                 5824     5824    1027
     Sum         367     367    121                46525    46525    8181

     Using Slab Decomposition



     bravais-lattice index     =            4
     lattice parameter (alat)  =       4.7489  a.u.
     unit-cell volume          =     741.9928 (a.u.)^3
     number of atoms/cell      =            4
     number of atomic types    =            2
     number of electrons       =        16.00
     number of Kohn-Sham states=           20
     kinetic-energy cutoff     =      60.0000  Ry
     charge density cutoff     =     240.0000  Ry
     Exchange-correlation= VDW-DF2-B86R
                           (   1   4  26   0   2   0   0)

     celldm(1)=   4.748900  celldm(2)=   0.000000  celldm(3)=   8.000000
     celldm(4)=   0.000000  celldm(5)=   0.000000  celldm(6)=   0.000000

     crystal axes: (cart. coord. in units of alat)
               a(1) = (   1.000000   0.000000   0.000000 )  
               a(2) = (  -0.500000   0.866025   0.000000 )  
               a(3) = (   0.000000   0.000000   8.000000 )  

     reciprocal axes: (cart. coord. in units 2 pi/alat)
               b(1) = (  1.000000  0.577350 -0.000000 )  
               b(2) = (  0.000000  1.154701  0.000000 )  
               b(3) = (  0.000000 -0.000000  0.125000 )  


     PseudoPot. # 1 for B  read from file:
     ../../../../Pseudo/PBE/B.upf
     MD5 check sum: 72f82fc31bc892420d0cab7e25c88ab8
     Pseudo is Norm-conserving + core correction, Zval =  3.0
     Generated using ONCVPSP code by D. R. Hamann
     Using radial grid of 1534 points,  4 beta functions with: 
                l(1) =   0
                l(2) =   0
                l(3) =   1
                l(4) =   1

     PseudoPot. # 2 for N  read from file:
     ../../../../Pseudo/PBE/N.upf
     MD5 check sum: d34365f73bb0e2ee98afc20ec3e87676
     Pseudo is Norm-conserving + core correction, Zval =  5.0
     Generated using ONCVPSP code by D. R. Hamann
     Using radial grid of 1058 points,  4 beta functions with: 
                l(1) =   0
                l(2) =   0
                l(3) =   1
                l(4) =   1

     atomic species   valence    mass     pseudopotential
        B              3.00    10.00000     B ( 1.00)
        N              5.00    14.01100     N ( 1.00)

      6 Sym. Ops. (no inversion) found


                                    s                        frac. trans.

      isym =  1     identity                                     

 cryst.   s( 1) = (     1          0          0      )
                  (     0          1          0      )
                  (     0          0          1      )

 cart.    s( 1) = (  1.0000000  0.0000000  0.0000000 )
                  (  0.0000000  1.0000000  0.0000000 )
                  (  0.0000000  0.0000000  1.0000000 )


      isym =  2     120 deg rotation - cryst. axis [0,0,1]       

 cryst.   s( 2) = (     0          1          0      )
                  (    -1         -1          0      )
                  (     0          0          1      )

 cart.    s( 2) = ( -0.5000000 -0.8660254  0.0000000 )
                  (  0.8660254 -0.5000000  0.0000000 )
                  (  0.0000000  0.0000000  1.0000000 )


      isym =  3     120 deg rotation - cryst. axis [0,0,-1]      

 cryst.   s( 3) = (    -1         -1          0      )
                  (     1          0          0      )
                  (     0          0          1      )

 cart.    s( 3) = ( -0.5000000  0.8660254  0.0000000 )
                  ( -0.8660254 -0.5000000  0.0000000 )
                  (  0.0000000  0.0000000  1.0000000 )


      isym =  4     inv. 180 deg rotation - cart. axis [1,0,0]   

 cryst.   s( 4) = (    -1          0          0      )
                  (     1          1          0      )
                  (     0          0          1      )

 cart.    s( 4) = ( -1.0000000  0.0000000  0.0000000 )
                  (  0.0000000  1.0000000  0.0000000 )
                  (  0.0000000  0.0000000  1.0000000 )


      isym =  5     inv. 180 deg rotation - cryst. axis [0,1,0]  

 cryst.   s( 5) = (     1          1          0      )
                  (     0         -1          0      )
                  (     0          0          1      )

 cart.    s( 5) = (  0.5000000  0.8660254  0.0000000 )
                  (  0.8660254 -0.5000000  0.0000000 )
                  (  0.0000000  0.0000000  1.0000000 )


      isym =  6     inv. 180 deg rotation - cryst. axis [1,1,0]  

 cryst.   s( 6) = (     0         -1          0      )
                  (    -1          0          0      )
                  (     0          0          1      )

 cart.    s( 6) = (  0.5000000 -0.8660254  0.0000000 )
                  ( -0.8660254 -0.5000000  0.0000000 )
                  (  0.0000000  0.0000000  1.0000000 )


     point group C_3v (3m)  
     there are  3 classes
     the character table:

       E     2C3   3s_v 
A_1    1.00  1.00  1.00
A_2    1.00  1.00 -1.00
E      2.00 -1.00  0.00

     the symmetry operations in each class and the name of the first element:

     E        1
          identity                                               
     2C3      2    3
          120 deg rotation - cryst. axis [0,0,1]                 
     3s_v     4    5    6
          inv. 180 deg rotation - cart. axis [1,0,0]             

   Cartesian axes

     site n.     atom                  positions (alat units)
         1           B   tau(   1) = (   0.0000000   0.0000000   0.0000000  )
         2           N   tau(   2) = (   0.5000005   0.2886748   0.0000000  )
         3           N   tau(   3) = (   0.0000000   0.0000000   1.3119520  )
         4           B   tau(   4) = (   0.5000005   0.2886748   1.3119520  )

   Crystallographic axes

     site n.     atom                  positions (cryst. coord.)
         1           B   tau(   1) = (  0.0000000  0.0000000  0.0000000  )
         2           N   tau(   2) = (  0.6666670  0.3333330  0.0000000  )
         3           N   tau(   3) = (  0.0000000  0.0000000  0.1639940  )
         4           B   tau(   4) = (  0.6666670  0.3333330  0.1639940  )

     number of k points=    51
                       cart. coord. in units 2pi/alat
        k(    1) = (   0.0000000   0.0000000   0.0000000), wk =   0.0392157
        k(    2) = (  -0.0158729   0.0274930   0.0000000), wk =   0.0392157
        k(    3) = (  -0.0317457   0.0549860   0.0000000), wk =   0.0392157
        k(    4) = (  -0.0476186   0.0824789   0.0000000), wk =   0.0392157
        k(    5) = (  -0.0634914   0.1099719   0.0000000), wk =   0.0392157
        k(    6) = (  -0.0793643   0.1374649   0.0000000), wk =   0.0392157
        k(    7) = (  -0.0952371   0.1649579   0.0000000), wk =   0.0392157
        k(    8) = (  -0.1111100   0.1924509   0.0000000), wk =   0.0392157
        k(    9) = (  -0.1269829   0.2199438   0.0000000), wk =   0.0392157
        k(   10) = (  -0.1428557   0.2474368   0.0000000), wk =   0.0392157
        k(   11) = (  -0.1587286   0.2749298   0.0000000), wk =   0.0392157
        k(   12) = (  -0.1746014   0.3024228   0.0000000), wk =   0.0392157
        k(   13) = (  -0.1904743   0.3299158   0.0000000), wk =   0.0392157
        k(   14) = (  -0.2063471   0.3574087   0.0000000), wk =   0.0392157
        k(   15) = (  -0.2222200   0.3849017   0.0000000), wk =   0.0392157
        k(   16) = (  -0.2380929   0.4123947   0.0000000), wk =   0.0392157
        k(   17) = (  -0.2539657   0.4398877   0.0000000), wk =   0.0392157
        k(   18) = (  -0.2698386   0.4673807   0.0000000), wk =   0.0392157
        k(   19) = (  -0.2857114   0.4948736   0.0000000), wk =   0.0392157
        k(   20) = (  -0.3015843   0.5223666   0.0000000), wk =   0.0392157
        k(   21) = (  -0.3174571   0.5498596   0.0000000), wk =   0.0392157
        k(   22) = (  -0.3333300   0.5773526   0.0000000), wk =   0.0392157
        k(   23) = (  -0.3030273   0.5773524   0.0000000), wk =   0.0392157
        k(   24) = (  -0.2727245   0.5773522   0.0000000), wk =   0.0392157
        k(   25) = (  -0.2424218   0.5773519   0.0000000), wk =   0.0392157
        k(   26) = (  -0.2121191   0.5773517   0.0000000), wk =   0.0392157
        k(   27) = (  -0.1818164   0.5773515   0.0000000), wk =   0.0392157
        k(   28) = (  -0.1515136   0.5773513   0.0000000), wk =   0.0392157
        k(   29) = (  -0.1212109   0.5773511   0.0000000), wk =   0.0392157
        k(   30) = (  -0.0909082   0.5773509   0.0000000), wk =   0.0392157
        k(   31) = (  -0.0606055   0.5773507   0.0000000), wk =   0.0392157
        k(   32) = (  -0.0303027   0.5773505   0.0000000), wk =   0.0392157
        k(   33) = (   0.0000000   0.5773503   0.0000000), wk =   0.0392157
        k(   34) = (   0.0000000   0.5452753   0.0000000), wk =   0.0392157
        k(   35) = (   0.0000000   0.5132002   0.0000000), wk =   0.0392157
        k(   36) = (   0.0000000   0.4811252   0.0000000), wk =   0.0392157
        k(   37) = (   0.0000000   0.4490502   0.0000000), wk =   0.0392157
        k(   38) = (   0.0000000   0.4169752   0.0000000), wk =   0.0392157
        k(   39) = (   0.0000000   0.3849002   0.0000000), wk =   0.0392157
        k(   40) = (   0.0000000   0.3528252   0.0000000), wk =   0.0392157
        k(   41) = (   0.0000000   0.3207501   0.0000000), wk =   0.0392157
        k(   42) = (   0.0000000   0.2886751   0.0000000), wk =   0.0392157
        k(   43) = (   0.0000000   0.2566001   0.0000000), wk =   0.0392157
        k(   44) = (   0.0000000   0.2245251   0.0000000), wk =   0.0392157
        k(   45) = (   0.0000000   0.1924501   0.0000000), wk =   0.0392157
        k(   46) = (   0.0000000   0.1603751   0.0000000), wk =   0.0392157
        k(   47) = (   0.0000000   0.1283001   0.0000000), wk =   0.0392157
        k(   48) = (   0.0000000   0.0962250   0.0000000), wk =   0.0392157
        k(   49) = (   0.0000000   0.0641500   0.0000000), wk =   0.0392157
        k(   50) = (   0.0000000   0.0320750   0.0000000), wk =   0.0392157
        k(   51) = (   0.0000000   0.0000000   0.0000000), wk =   0.0392157

                       cryst. coord.
        k(    1) = (   0.0000000   0.0000000   0.0000000), wk =   0.0392157
        k(    2) = (  -0.0158729   0.0317460   0.0000000), wk =   0.0392157
        k(    3) = (  -0.0317457   0.0634921   0.0000000), wk =   0.0392157
        k(    4) = (  -0.0476186   0.0952381   0.0000000), wk =   0.0392157
        k(    5) = (  -0.0634914   0.1269842   0.0000000), wk =   0.0392157
        k(    6) = (  -0.0793643   0.1587302   0.0000000), wk =   0.0392157
        k(    7) = (  -0.0952371   0.1904763   0.0000000), wk =   0.0392157
        k(    8) = (  -0.1111100   0.2222223   0.0000000), wk =   0.0392157
        k(    9) = (  -0.1269829   0.2539684   0.0000000), wk =   0.0392157
        k(   10) = (  -0.1428557   0.2857144   0.0000000), wk =   0.0392157
        k(   11) = (  -0.1587286   0.3174605   0.0000000), wk =   0.0392157
        k(   12) = (  -0.1746014   0.3492065   0.0000000), wk =   0.0392157
        k(   13) = (  -0.1904743   0.3809526   0.0000000), wk =   0.0392157
        k(   14) = (  -0.2063471   0.4126986   0.0000000), wk =   0.0392157
        k(   15) = (  -0.2222200   0.4444447   0.0000000), wk =   0.0392157
        k(   16) = (  -0.2380929   0.4761907   0.0000000), wk =   0.0392157
        k(   17) = (  -0.2539657   0.5079368   0.0000000), wk =   0.0392157
        k(   18) = (  -0.2698386   0.5396828   0.0000000), wk =   0.0392157
        k(   19) = (  -0.2857114   0.5714289   0.0000000), wk =   0.0392157
        k(   20) = (  -0.3015843   0.6031749   0.0000000), wk =   0.0392157
        k(   21) = (  -0.3174571   0.6349210   0.0000000), wk =   0.0392157
        k(   22) = (  -0.3333300   0.6666670   0.0000000), wk =   0.0392157
        k(   23) = (  -0.3030273   0.6515155   0.0000000), wk =   0.0392157
        k(   24) = (  -0.2727245   0.6363639   0.0000000), wk =   0.0392157
        k(   25) = (  -0.2424218   0.6212124   0.0000000), wk =   0.0392157
        k(   26) = (  -0.2121191   0.6060608   0.0000000), wk =   0.0392157
        k(   27) = (  -0.1818164   0.5909093   0.0000000), wk =   0.0392157
        k(   28) = (  -0.1515136   0.5757577   0.0000000), wk =   0.0392157
        k(   29) = (  -0.1212109   0.5606062   0.0000000), wk =   0.0392157
        k(   30) = (  -0.0909082   0.5454546   0.0000000), wk =   0.0392157
        k(   31) = (  -0.0606055   0.5303031   0.0000000), wk =   0.0392157
        k(   32) = (  -0.0303027   0.5151515   0.0000000), wk =   0.0392157
        k(   33) = (   0.0000000   0.5000000   0.0000000), wk =   0.0392157
        k(   34) = (   0.0000000   0.4722222   0.0000000), wk =   0.0392157
        k(   35) = (   0.0000000   0.4444444   0.0000000), wk =   0.0392157
        k(   36) = (   0.0000000   0.4166667   0.0000000), wk =   0.0392157
        k(   37) = (   0.0000000   0.3888889   0.0000000), wk =   0.0392157
        k(   38) = (   0.0000000   0.3611111   0.0000000), wk =   0.0392157
        k(   39) = (   0.0000000   0.3333333   0.0000000), wk =   0.0392157
        k(   40) = (   0.0000000   0.3055556   0.0000000), wk =   0.0392157
        k(   41) = (   0.0000000   0.2777778   0.0000000), wk =   0.0392157
        k(   42) = (   0.0000000   0.2500000   0.0000000), wk =   0.0392157
        k(   43) = (   0.0000000   0.2222222   0.0000000), wk =   0.0392157
        k(   44) = (   0.0000000   0.1944444   0.0000000), wk =   0.0392157
        k(   45) = (   0.0000000   0.1666667   0.0000000), wk =   0.0392157
        k(   46) = (   0.0000000   0.1388889   0.0000000), wk =   0.0392157
        k(   47) = (   0.0000000   0.1111111   0.0000000), wk =   0.0392157
        k(   48) = (   0.0000000   0.0833333   0.0000000), wk =   0.0392157
        k(   49) = (   0.0000000   0.0555556   0.0000000), wk =   0.0392157
        k(   50) = (   0.0000000   0.0277778   0.0000000), wk =   0.0392157
        k(   51) = (   0.0000000   0.0000000   0.0000000), wk =   0.0392157

     Dense  grid:    46525 G-vectors     FFT dimensions: (  24,  24, 192)

     Dynamical RAM for                 wfc:       0.22 MB

     Dynamical RAM for     wfc (w. buffer):       0.22 MB

     Dynamical RAM for           str. fact:       0.18 MB

     Dynamical RAM for           local pot:       0.00 MB

     Dynamical RAM for          nlocal pot:       0.35 MB

     Dynamical RAM for                qrad:       0.71 MB

     Dynamical RAM for          rho,v,vnew:       0.58 MB

     Dynamical RAM for           G-vectors:       0.38 MB

     Dynamical RAM for          h,s,v(r/c):       0.02 MB

     Dynamical RAM for          <psi|beta>:       0.01 MB

     Dynamical RAM for                 psi:       0.44 MB

     Dynamical RAM for                hpsi:       0.44 MB

     Dynamical RAM for      wfcinit/wfcrot:       0.45 MB

     Estimated static dynamical RAM per process >       3.22 MB

     Estimated max dynamical RAM per process >       4.13 MB

     Estimated total dynamical RAM >      33.07 MB

     The potential is recalculated from file :
     ./tmp/BN2L_AA1_PBE_vdW.save/charge-density



     %%%%%%%%%%%%%%%%%%%%%%%%%%%%%%%%%%%%%%%%%%%%%%%%%%%%%%%%%%%%%%%%%%%%%%%%
     %                                                                      %
     % You are using vdW-DF, which was implemented by the Thonhauser group. %
     % Please cite the following two papers that made this development      %
     % possible and the two reviews that describe the various versions:     %
     %                                                                      %
     %   T. Thonhauser et al., PRL 115, 136402 (2015).                      %
     %   T. Thonhauser et al., PRB 76, 125112 (2007).                       %
     %   K. Berland et al., Rep. Prog. Phys. 78, 066501 (2015).             %
     %   D.C. Langreth et al., J. Phys.: Condens. Matter 21, 084203 (2009). %
     %                                                                      %
     %                                                                      %
     % If you are calculating the stress with vdW-DF, please also cite:     %
     %                                                                      %
     %   R. Sabatini et al., J. Phys.: Condens. Matter 24, 424209 (2012).   %
     %                                                                      %
     %%%%%%%%%%%%%%%%%%%%%%%%%%%%%%%%%%%%%%%%%%%%%%%%%%%%%%%%%%%%%%%%%%%%%%%%


     Carrying out vdW-DF run using the following parameters:
     Nqs    =  20  Npoints =  1024  r_max =  100.000
     q_mesh =  0.00001000  0.04494208  0.09755937  0.15916263
               0.23128650  0.31572767  0.41458969  0.53033537
               0.66584808  0.82450364  1.01025438  1.22772762
               1.48234092  1.78043706  2.12944203  2.53805004
               3.01644009  3.57652955  4.23227104  5.00000000


     -----------------------------------------------
     Non-local corr. energy    =       0.20102192 Ry
     -----------------------------------------------

     Starting wfcs are   16 randomized atomic wfcs +    4 random wfcs

     Band Structure Calculation
     Davidson diagonalization with overlap

     Computing kpt #:     1  of    51
     total cpu time spent up to now is        9.7 secs

     Computing kpt #:     2  of    51
     total cpu time spent up to now is       10.2 secs

     Computing kpt #:     3  of    51
     total cpu time spent up to now is       10.6 secs

     Computing kpt #:     4  of    51
     total cpu time spent up to now is       11.1 secs

     Computing kpt #:     5  of    51
     total cpu time spent up to now is       11.7 secs

     Computing kpt #:     6  of    51
     total cpu time spent up to now is       12.1 secs

     Computing kpt #:     7  of    51
     total cpu time spent up to now is       12.6 secs

     Computing kpt #:     8  of    51
     total cpu time spent up to now is       12.9 secs

     Computing kpt #:     9  of    51
     total cpu time spent up to now is       13.3 secs

     Computing kpt #:    10  of    51
     total cpu time spent up to now is       13.8 secs

     Computing kpt #:    11  of    51
     total cpu time spent up to now is       14.2 secs

     Computing kpt #:    12  of    51
     total cpu time spent up to now is       14.6 secs

     Computing kpt #:    13  of    51
     total cpu time spent up to now is       14.9 secs

     Computing kpt #:    14  of    51
     total cpu time spent up to now is       15.3 secs

     Computing kpt #:    15  of    51
     total cpu time spent up to now is       15.6 secs

     Computing kpt #:    16  of    51
     total cpu time spent up to now is       15.9 secs

     Computing kpt #:    17  of    51
     total cpu time spent up to now is       16.2 secs

     Computing kpt #:    18  of    51
     total cpu time spent up to now is       16.6 secs

     Computing kpt #:    19  of    51
     total cpu time spent up to now is       17.0 secs

     Computing kpt #:    20  of    51
     total cpu time spent up to now is       17.5 secs

     Computing kpt #:    21  of    51
     total cpu time spent up to now is       17.9 secs

     Computing kpt #:    22  of    51
     total cpu time spent up to now is       18.3 secs

     Computing kpt #:    23  of    51
     total cpu time spent up to now is       18.7 secs

     Computing kpt #:    24  of    51
     total cpu time spent up to now is       19.1 secs

     Computing kpt #:    25  of    51
     total cpu time spent up to now is       19.4 secs

     Computing kpt #:    26  of    51
     total cpu time spent up to now is       19.8 secs

     Computing kpt #:    27  of    51
     total cpu time spent up to now is       20.2 secs

     Computing kpt #:    28  of    51
     total cpu time spent up to now is       20.5 secs

     Computing kpt #:    29  of    51
     total cpu time spent up to now is       20.8 secs

     Computing kpt #:    30  of    51
     total cpu time spent up to now is       21.2 secs

     Computing kpt #:    31  of    51
     total cpu time spent up to now is       21.5 secs

     Computing kpt #:    32  of    51
     total cpu time spent up to now is       21.8 secs

     Computing kpt #:    33  of    51
     total cpu time spent up to now is       22.2 secs

     Computing kpt #:    34  of    51
     total cpu time spent up to now is       22.5 secs

     Computing kpt #:    35  of    51
     total cpu time spent up to now is       22.7 secs

     Computing kpt #:    36  of    51
     total cpu time spent up to now is       23.1 secs

     Computing kpt #:    37  of    51
     total cpu time spent up to now is       23.4 secs

     Computing kpt #:    38  of    51
     total cpu time spent up to now is       23.7 secs

     Computing kpt #:    39  of    51
     total cpu time spent up to now is       24.1 secs

     Computing kpt #:    40  of    51
     total cpu time spent up to now is       24.6 secs

     Computing kpt #:    41  of    51
     total cpu time spent up to now is       25.0 secs

     Computing kpt #:    42  of    51
     total cpu time spent up to now is       25.5 secs

     Computing kpt #:    43  of    51
     total cpu time spent up to now is       26.0 secs

     Computing kpt #:    44  of    51
     total cpu time spent up to now is       26.5 secs

     Computing kpt #:    45  of    51
     total cpu time spent up to now is       27.0 secs

     Computing kpt #:    46  of    51
     total cpu time spent up to now is       27.4 secs

     Computing kpt #:    47  of    51
     total cpu time spent up to now is       27.8 secs

     Computing kpt #:    48  of    51
     total cpu time spent up to now is       28.3 secs

     Computing kpt #:    49  of    51
     total cpu time spent up to now is       28.7 secs

     Computing kpt #:    50  of    51
     total cpu time spent up to now is       29.2 secs

     Computing kpt #:    51  of    51
     total cpu time spent up to now is       29.6 secs

     ethr =  6.25E-09,  avg # of iterations = 46.8

     total cpu time spent up to now is       29.6 secs

     End of band structure calculation

          k = 0.0000 0.0000 0.0000 (  5775 PWs)   bands (ev):

   -20.1582 -19.9975  -8.2577  -7.1420  -3.8854  -3.8854  -3.8649  -3.8648
     2.0230   2.5463   3.5848   4.6549   4.8106   6.5464   7.2433   9.0951
     9.1022   9.1023   9.1725   9.1725

          k =-0.0159 0.0275 0.0000 (  5787 PWs)   bands (ev):

   -20.1437 -19.9832  -8.2377  -7.1229  -3.9482  -3.9290  -3.9151  -3.8945
     2.0486   2.5695   3.6091   4.6785   4.8336   6.5629   7.2662   9.0742
     9.1171   9.1556   9.1692   9.2379

          k =-0.0317 0.0550 0.0000 (  5795 PWs)   bands (ev):

   -20.1001 -19.9403  -8.1782  -7.0666  -4.1291  -4.1126  -4.0020  -3.9817
     2.1247   2.6391   3.6818   4.7491   4.9020   6.6112   7.3338   9.0431
     9.1242   9.1318   9.3467   9.4274

          k =-0.0476 0.0825 0.0000 (  5773 PWs)   bands (ev):

   -20.0274 -19.8691  -8.0792  -6.9728  -4.4144  -4.3992  -4.1441  -4.1230
     2.2495   2.7544   3.8026   4.8661   5.0129   6.6878   7.4420   9.0116
     9.0963   9.1435   9.5848   9.7229

          k =-0.0635 0.1100 0.0000 (  5767 PWs)   bands (ev):

   -19.9264 -19.7700  -7.9412  -6.8424  -4.7852  -4.7721  -4.3378  -4.3161
     2.4211   2.9143   3.9710   5.0287   5.1618   6.7860   7.5845   8.9898
     9.0875   9.1494   9.6754   9.9638

          k =-0.0794 0.1375 0.0000 (  5776 PWs)   bands (ev):

   -19.7976 -19.6438  -7.7650  -6.6764  -5.2198  -5.2082  -4.5784  -4.5552
     2.6377   3.1175   4.1865   5.2356   5.3426   6.8947   7.7488   8.9829
     9.0951   9.1517   9.4236  10.1450

          k =-0.0952 0.1650 0.0000 (  5776 PWs)   bands (ev):

   -19.6418 -19.4912  -7.5516  -6.4784  -5.6955  -5.6876  -4.8587  -4.8342
     2.8986   3.3624   4.4487   5.4847   5.5446   6.9984   7.8976   8.9887
     8.9925   9.1707   9.2661  10.3583

          k =-0.1111 0.1925 0.0000 (  5784 PWs)   bands (ev):

   -19.4602 -19.3133  -7.3035  -6.3062  -6.1922  -6.1389  -5.1726  -5.1464
     3.2032   3.6462   4.7569   5.7457   5.7712   7.0817   7.9022   8.8269
     9.0128   9.2342   9.3474  10.5793

          k =-0.1270 0.2199 0.0000 (  5786 PWs)   bands (ev):

   -19.2542 -19.1116  -7.0349  -6.7392  -6.6955  -5.9585  -5.5125  -5.4843
     3.5509   3.9633   5.1094   5.8981   6.0808   7.1558   7.6375   8.9290
     9.0904   9.3511   9.5015  10.8101

          k =-0.1429 0.2474 0.0000 (  5816 PWs)   bands (ev):

   -19.0259 -18.8885  -7.2552  -7.2543  -6.6795  -5.8717  -5.8500  -5.6590
     3.9411   4.3006   5.4950   5.9283   6.3505   7.2859   7.3101   9.2047
     9.2528   9.5158   9.7042  11.0523

          k =-0.1587 0.2749 0.0000 (  5824 PWs)   bands (ev):

   -18.7776 -18.6459  -7.7640  -7.7579  -6.3506  -6.2311  -6.2176  -5.3410
     4.3721   4.6206   5.6783   6.0274   6.3557   7.2944   7.5343   9.5007
     9.5551   9.7235   9.9484  11.3087

          k =-0.1746 0.3024 0.0000 (  5812 PWs)   bands (ev):

   -18.5123 -18.3873  -8.2544  -8.2491  -6.6279  -6.5952  -5.9578  -4.9959
     4.8036   4.8323   5.4160   6.1982   6.4901   7.6481   7.8874   9.8092
     9.9485   9.9713  10.2244  11.5845

          k =-0.1905 0.3299 0.0000 (  5836 PWs)   bands (ev):

   -18.2347 -18.1172  -8.7175  -8.7147  -7.0076  -6.9754  -5.5598  -4.6343
     4.6619   4.9593   5.4199   6.3202   7.0261   8.1347   8.3079  10.1300
    10.2688  10.3714  10.5154  11.8873

          k =-0.2063 0.3574 0.0000 (  5850 PWs)   bands (ev):

   -17.9497 -17.8410  -9.1454  -9.1445  -7.3845  -7.3525  -5.1425  -4.2623
     4.2797   4.5582   5.9523   6.7177   7.6106   8.6862   8.7651  10.4057
    10.6159  10.7936  10.8204  12.2269

          k =-0.2222 0.3849 0.0000 (  5860 PWs)   bands (ev):

   -17.6642 -17.5656  -9.5317  -9.5262  -7.7532  -7.7222  -4.7145  -3.8895
     3.8308   4.1263   6.5451   7.2410   8.2375   9.2205   9.2845  10.6054
    10.9578  11.0407  11.2792  12.3985

          k =-0.2381 0.4124 0.0000 (  5858 PWs)   bands (ev):

   -17.3868 -17.2998  -9.8639  -9.8517  -8.1104  -8.0804  -4.2853  -3.5283
     3.3910   3.7049   7.1759   7.8277   8.8938   9.5932   9.9179  10.7200
    11.2216  11.2778  11.7479  12.6007

          k =-0.2540 0.4399 0.0000 (  5854 PWs)   bands (ev):

   -17.1279 -17.0542 -10.1321 -10.1108  -8.4523  -8.4239  -3.8676  -3.1939
     2.9943   3.3131   7.8376   8.4490   9.4466   9.8479  10.5677  10.9047
    11.3215  11.6145  12.2008  12.9985

          k =-0.2698 0.4674 0.0000 (  5842 PWs)   bands (ev):

   -16.8990 -16.8399 -10.3253 -10.2933  -8.7747  -8.7492  -3.4767  -2.9060
     2.6648   2.9671   8.5203   9.0788   9.4211  10.4581  11.1424  11.2053
    11.3847  12.0118  12.5886  13.4483

          k =-0.2857 0.4949 0.0000 (  5832 PWs)   bands (ev):

   -16.7117 -16.6684 -10.4356 -10.3907  -9.0728  -9.0515  -3.1318  -2.6851
     2.4204   2.6806   9.1891   9.2143   9.6763  11.1406  11.1717  11.5471
    11.8140  12.4795  12.9299  13.7866

          k =-0.3016 0.5224 0.0000 (  5814 PWs)   bands (ev):

   -16.5751 -16.5473 -10.4632 -10.4026  -9.3368  -9.3224  -2.8516  -2.5486
     2.2723   2.4639   8.9800   9.8582  10.1696  11.0290  11.4825  12.1760
    12.1997  12.9198  13.3788  13.9901

          k =-0.3175 0.5499 0.0000 (  5828 PWs)   bands (ev):

   -16.4931 -16.4801 -10.4277 -10.3502  -9.5451  -9.5401  -2.6518  -2.5025
     2.2183   2.3201   8.8283  10.3974  10.4667  10.8688  11.6172  12.5008
    12.7661  13.2546  13.8150  14.0755

          k =-0.3333 0.5774 0.0000 (  5826 PWs)   bands (ev):

   -16.4637 -16.4629 -10.3924 -10.3046  -9.6374  -9.6368  -2.5390  -2.5382
     2.2410   2.2412   8.7731  10.5489  10.7066  10.7069  11.6815  12.7246
    12.7254  13.8349  13.8353  14.0546

          k =-0.3030 0.5774 0.0000 (  5824 PWs)   bands (ev):

   -16.4867 -16.4764 -10.4425 -10.3644  -9.5436  -9.5305  -2.6321  -2.5049
     2.2083   2.3091   8.8270  10.4683  10.5668  10.7606  11.5754  12.5936
    12.7519  13.5592  13.5737  14.0129

          k =-0.2727 0.5774 0.0000 (  5812 PWs)   bands (ev):

   -16.5386 -16.5202 -10.5645 -10.5006  -9.2963  -9.2681  -2.7633  -2.5297
     2.1956   2.3963   8.9899  10.2162  10.5125  10.6621  11.2804  12.4017
    12.5594  13.1987  13.2875  13.6022

          k =-0.2424 0.5774 0.0000 (  5812 PWs)   bands (ev):

   -16.6093 -16.5847 -10.7084 -10.6540  -8.9621  -8.9252  -2.9141  -2.5954
     2.1846   2.4826   9.2530   9.8857  10.4587  10.4728  10.9035  12.1038
    12.2027  12.8509  12.9954  13.2696

          k =-0.2121 0.5774 0.0000 (  5836 PWs)   bands (ev):

   -16.6895 -16.6605 -10.8495 -10.8013  -8.5830  -8.5421  -3.0700  -2.6851
     2.1651   2.5555   9.4956   9.5897  10.1079  10.4323  10.5711  11.7758
    11.7795  12.5432  12.6605  13.0370

          k =-0.1818 0.5774 0.0000 (  5824 PWs)   bands (ev):

   -16.7716 -16.7391 -10.9777 -10.9336  -8.1858  -8.1437  -3.2194  -2.7838
     2.1349   2.6103   9.0575   9.5979   9.9587  10.3420  10.3847  11.3606
    11.5128  12.2785  12.3590  12.8412

          k =-0.1515 0.5774 0.0000 (  5818 PWs)   bands (ev):

   -16.8496 -16.8146 -11.0891 -11.0477  -7.7939  -7.7526  -3.3554  -2.8814
     2.0966   2.6468   8.5930   9.0465  10.1486  10.2781  10.3298  11.0053
    11.3681  12.0597  12.1086  12.6706

          k =-0.1212 0.5774 0.0000 (  5836 PWs)   bands (ev):

   -16.9190 -16.8823 -11.1818 -11.1425  -7.4295  -7.3892  -3.4732  -2.9703
     2.0554   2.6681   8.1372   8.5159  10.0118  10.2719  10.4118  10.7255
    11.3902  11.8963  11.9073  12.5280

          k =-0.0909 0.5774 0.0000 (  5836 PWs)   bands (ev):

   -16.9761 -16.9382 -11.2544 -11.2166  -7.1139  -7.0754  -3.5680  -3.0441
     2.0169   2.6787   7.7308   8.0551   9.8984  10.2179  10.4056  10.5188
    11.4774  11.7525  11.8182  12.4156

          k =-0.0606 0.5774 0.0000 (  5824 PWs)   bands (ev):

   -17.0184 -16.9798 -11.3064 -11.2699  -6.8687  -6.8318  -3.6370  -3.0989
     1.9861   2.6832   7.4103   7.6991   9.8160  10.1737  10.3557  10.3780
    11.4833  11.6426  11.8424  12.3347

          k =-0.0303 0.5774 0.0000 (  5816 PWs)   bands (ev):

   -17.0445 -17.0054 -11.3376 -11.3020  -6.7128  -6.6771  -3.6791  -3.1325
     1.9660   2.6844   7.2053   7.4745   9.7660  10.1444  10.2970  10.3145
    11.4528  11.5770  11.8835  12.2859

          k = 0.0000 0.5774 0.0000 (  5820 PWs)   bands (ev):

   -17.0533 -17.0141 -11.3481 -11.3127  -6.6596  -6.6239  -3.6934  -3.1442
     1.9591   2.6843   7.1348   7.3975   9.7492  10.1339  10.2706  10.2994
    11.4390  11.5551  11.8980  12.2696

          k = 0.0000 0.5453 0.0000 (  5846 PWs)   bands (ev):

   -17.1010 -17.0544 -11.2808 -11.2437  -6.6436  -6.6082  -3.7779  -3.1973
     2.0522   2.7695   7.0908   7.3932   9.3027   9.5302  10.5469  10.8302
    10.8791  11.5606  11.9337  12.4025

          k = 0.0000 0.5132 0.0000 (  5850 PWs)   bands (ev):

   -17.2342 -17.1718 -11.0837 -11.0425  -6.5963  -6.5610  -4.0071  -3.3540
     2.3180   3.0106   6.9464   7.3730   8.7518   8.8712   9.8965  10.7916
    10.8763  11.5622  12.0192  12.5960

          k = 0.0000 0.4811 0.0000 (  5848 PWs)   bands (ev):

   -17.4320 -17.3534 -10.7734 -10.7287  -6.5179  -6.4829  -4.3335  -3.5992
     2.7220   3.3715   6.6742   7.2988   8.2827   8.3242   9.1958  10.1744
    10.4278  11.7873  12.1663  12.7786

          k = 0.0000 0.4491 0.0000 (  5862 PWs)   bands (ev):

   -17.6734 -17.5805 -10.3708 -10.3244  -6.4100  -6.3753  -4.7147  -3.9075
     3.2211   3.8093   6.2793   7.0707   7.9170   7.9581   8.5849   9.5215
     9.9711  11.3677  12.0246  13.0792

          k = 0.0000 0.4170 0.0000 (  5848 PWs)   bands (ev):

   -17.9392 -17.8342  -9.8965  -9.8506  -6.2731  -6.2388  -5.1195  -4.2517
     3.7695   4.2815   5.8128   6.6757   7.5345   7.7848   8.1459   8.9275
     9.5397  10.9367  11.5121  13.4279

          k = 0.0000 0.3849 0.0000 (  5838 PWs)   bands (ev):

   -18.2149 -18.0999  -9.3686  -9.3247  -6.1095  -6.0756  -5.5279  -4.6103
     4.3029   4.7331   5.3314   6.2894   7.0308   7.7014   7.8604   8.4368
     9.1790  10.5312  10.9876  13.2491

          k = 0.0000 0.3528 0.0000 (  5832 PWs)   bands (ev):

   -18.4895 -18.3660  -8.8023  -8.7614  -5.9260  -5.9219  -5.8886  -4.9683
     4.6530   4.8159   5.1733   6.1153   6.5186   7.5086   7.6160   8.1616
     8.9129  10.1711  10.4950  12.9018

          k = 0.0000 0.3208 0.0000 (  5818 PWs)   bands (ev):

   -18.7550 -18.6243  -8.2109  -8.1743  -6.3040  -5.7130  -5.6806  -5.3136
     4.3688   4.6021   5.5087   6.0467   6.2673   7.2249   7.3909   8.1066
     8.7399   9.8712  10.0502  12.5742

          k = 0.0000 0.2887 0.0000 (  5810 PWs)   bands (ev):

   -19.0056 -18.8688  -7.6072  -7.5776  -6.6538  -5.6386  -5.4874  -5.4558
     3.9487   4.3131   5.5004   5.8534   6.3344   7.1735   7.2573   8.1311
     8.6452   9.6409   9.6692  12.2839

          k = 0.0000 0.2566 0.0000 (  5786 PWs)   bands (ev):

   -19.2370 -19.0950  -7.0654  -7.0018  -6.8892  -5.9369  -5.2492  -5.2190
     3.5632   3.9818   5.1308   5.8577   6.0932   7.1245   7.5669   8.1822
     8.6234   9.3742   9.4830  11.9776

          k = 0.0000 0.2245 0.0000 (  5788 PWs)   bands (ev):

   -19.4464 -19.2999  -7.2859  -6.4327  -6.3686  -6.1843  -5.0055  -4.9768
     3.2167   3.6638   4.7766   5.7321   5.7872   7.0750   7.8533   8.3161
     8.6702   9.2129   9.3809  11.5645

          k = 0.0000 0.1925 0.0000 (  5778 PWs)   bands (ev):

   -19.6314 -19.4810  -7.5376  -6.4667  -5.8220  -5.8048  -4.7634  -4.7361
     2.9112   3.3769   4.4645   5.4987   5.5444   7.0003   7.8586   8.5777
     8.7614   9.2437   9.3172  11.1721

          k = 0.0000 0.1604 0.0000 (  5768 PWs)   bands (ev):

   -19.7902 -19.6365  -7.7551  -6.6673  -5.2982  -5.2799  -4.5314  -4.5059
     2.6480   3.1284   4.1981   5.2464   5.3473   6.8988   7.7346   8.7654
     8.8634   9.2674   9.4757  10.6538

          k = 0.0000 0.1283 0.0000 (  5792 PWs)   bands (ev):

   -19.9217 -19.7655  -7.9350  -6.8364  -4.8289  -4.8112  -4.3211  -4.2976
     2.4284   2.9215   3.9787   5.0361   5.1669   6.7896   7.5834   8.8817
     8.9544   9.2275   9.7670  10.1204

          k = 0.0000 0.0962 0.0000 (  5782 PWs)   bands (ev):

   -20.0248 -19.8665  -8.0757  -6.9694  -4.4347  -4.4172  -4.1408  -4.1191
     2.2540   2.7586   3.8071   4.8705   5.0166   6.6904   7.4444   8.9699
     9.0302   9.1909   9.6871   9.7549

          k = 0.0000 0.0642 0.0000 (  5797 PWs)   bands (ev):

   -20.0989 -19.9392  -8.1766  -7.0650  -4.1364  -4.1185  -4.0033  -3.9823
     2.1268   2.6411   3.6839   4.7511   4.9039   6.6126   7.3355   9.0336
     9.0913   9.1609   9.3663   9.4355

          k = 0.0000 0.0321 0.0000 (  5777 PWs)   bands (ev):

   -20.1434 -19.9828  -8.2372  -7.1225  -3.9496  -3.9303  -3.9151  -3.8948
     2.0492   2.5700   3.6096   4.6790   4.8342   6.5634   7.2668   9.0735
     9.1156   9.1594   9.1692   9.2393

          k = 0.0000 0.0000 0.0000 (  5775 PWs)   bands (ev):

   -20.1582 -19.9975  -8.2577  -7.1420  -3.8854  -3.8854  -3.8649  -3.8648
     2.0230   2.5463   3.5848   4.6549   4.8106   6.5464   7.2433   9.0951
     9.1022   9.1023   9.1725   9.1725

     Writing all to output data dir ./tmp/BN2L_AA1_PBE_vdW.save/

     init_run     :      9.13s CPU      9.15s WALL (       1 calls)
     electrons    :     20.11s CPU     20.28s WALL (       1 calls)

     Called by init_run:
     wfcinit      :      0.00s CPU      0.00s WALL (       1 calls)
     wfcinit:atom :      0.01s CPU      0.01s WALL (      51 calls)
     wfcinit:wfcr :      0.48s CPU      0.48s WALL (      51 calls)
     potinit      :      8.76s CPU      8.77s WALL (       1 calls)
     hinit0       :      0.34s CPU      0.34s WALL (       1 calls)

     Called by electrons:
     c_bands      :     20.11s CPU     20.28s WALL (       1 calls)
     v_of_rho     :      8.76s CPU      8.77s WALL (       1 calls)
     v_h          :      0.00s CPU      0.00s WALL (       1 calls)
     v_xc         :      8.76s CPU      8.77s WALL (       1 calls)
     vdW_kernel   :      8.71s CPU      8.72s WALL (       1 calls)

     Called by c_bands:
     init_us_2    :      0.01s CPU      0.01s WALL (      51 calls)
     init_us_2:cp :      0.01s CPU      0.01s WALL (      51 calls)
     cegterg      :     19.58s CPU     19.73s WALL (     145 calls)

     Called by sum_band:

     Called by *egterg:
     cdiaghg      :      2.16s CPU      2.20s WALL (    2440 calls)
     cegterg:over :      1.71s CPU      1.74s WALL (    2389 calls)
     cegterg:upda :      1.95s CPU      2.26s WALL (    2389 calls)
     cegterg:last :      2.46s CPU      2.10s WALL (    1265 calls)
     cdiaghg:chol :      0.16s CPU      0.16s WALL (    2440 calls)
     cdiaghg:inve :      0.05s CPU      0.05s WALL (    2440 calls)
     cdiaghg:para :      0.30s CPU      0.31s WALL (    4880 calls)
     h_psi        :     11.32s CPU     11.42s WALL (    2585 calls)
     g_psi        :      0.09s CPU      0.10s WALL (    2389 calls)

     Called by h_psi:
     h_psi:calbec :      0.76s CPU      0.78s WALL (    2585 calls)
     vloc_psi     :      9.58s CPU      9.84s WALL (    2585 calls)
     add_vuspsi   :      0.89s CPU      0.70s WALL (    2585 calls)

     General routines
     calbec       :      0.76s CPU      0.77s WALL (    2585 calls)
     fft          :      0.28s CPU      0.28s WALL (      61 calls)
     fftw         :      8.69s CPU      8.88s WALL (   50166 calls)
     davcio       :      0.00s CPU      0.01s WALL (     102 calls)

     Parallel routines

     PWSCF        :     29.47s CPU     29.72s WALL


   This run was terminated on:   6: 0:27  14Apr2025            

=------------------------------------------------------------------------------=
   JOB DONE.
=------------------------------------------------------------------------------=
