
     Program BANDS v.7.2 starts on 18Apr2024 at 14:19:25 

     This program is part of the open-source Quantum ESPRESSO suite
     for quantum simulation of materials; please cite
         "P. Giannozzi et al., J. Phys.:Condens. Matter 21 395502 (2009);
         "P. Giannozzi et al., J. Phys.:Condens. Matter 29 465901 (2017);
         "P. Giannozzi et al., J. Chem. Phys. 152 154105 (2020);
          URL http://www.quantum-espresso.org", 
     in publications or presentations arising from this work. More details at
     http://www.quantum-espresso.org/quote

     Parallel version (MPI & OpenMP), running on       8 processor cores
     Number of MPI processes:                 8
     Threads/MPI process:                     1

     MPI processes distributed on     1 nodes
     R & G space division:  proc/nbgrp/npool/nimage =       8
     0 MiB available memory on the printing compute node when the environment starts


     Reading xml data from directory:

     ./tmp/MoS2_2L_pbe_wsoc.save/

     IMPORTANT: XC functional enforced from input :
     Exchange-correlation= PBE
                           (   1   4   3   4   0   0   0)
     Any further DFT definition will be discarded
     Please, verify this is what you really want


     Parallelization info
     --------------------
     sticks:   dense  smooth     PW     G-vecs:    dense   smooth      PW
     Min          85      85     24                14701    14701    2318
     Max          86      86     25                14726    14726    2353
     Sum         685     685    199               117747   117747   18769

     Using Slab Decomposition

     Reading collected, re-writing distributed wavefunctions
     high-symmetry point:  0.0000 0.0000 0.0000   x coordinate   0.0000
     high-symmetry point: -0.3333 0.5774 0.0000   x coordinate   0.6667
     high-symmetry point:  0.0000 0.5774 0.0000   x coordinate   1.0000
     high-symmetry point:  0.0000 0.0000 0.0000   x coordinate   1.5773

     Plottable bands (eV) written to file Bande_MoS2_2L_pbe_wsoc.dat.gnu
     Bands written to file Bande_MoS2_2L_pbe_wsoc.dat

 **************************************************************************

                    xk=(   0.00000,   0.00000,   0.00000  )

     double point group D_3d (-3m) 
     there are 12 classes and  6 irreducible representations
     the character table:

       E     -E    2C3   -2C3  3C2'  -3C2' i     -i    2S6   -2S6  3s_v  -3s_v
                                                                              
G_4+   2.00 -2.00  1.00 -1.00  0.00  0.00  2.00 -2.00  1.00 -1.00  0.00  0.00
G_5+   1.00 -1.00 -1.00  1.00  0.00  0.00  1.00 -1.00 -1.00  1.00  0.00  0.00
G_6+   1.00 -1.00 -1.00  1.00  0.00  0.00  1.00 -1.00 -1.00  1.00  0.00  0.00
G_4-   2.00 -2.00  1.00 -1.00  0.00  0.00 -2.00  2.00 -1.00  1.00  0.00  0.00
G_5-   1.00 -1.00 -1.00  1.00  0.00  0.00 -1.00  1.00  1.00 -1.00  0.00  0.00
G_6-   1.00 -1.00 -1.00  1.00  0.00  0.00 -1.00  1.00  1.00 -1.00  0.00  0.00

     imaginary part

       E     -E    2C3   -2C3  3C2'  -3C2' i     -i    2S6   -2S6  3s_v  -3s_v
                                                                              
G_4+   0.00  0.00  0.00  0.00  0.00  0.00  0.00  0.00  0.00  0.00  0.00  0.00
G_5+   0.00  0.00  0.00  0.00  1.00 -1.00  0.00  0.00  0.00  0.00  1.00 -1.00
G_6+   0.00  0.00  0.00  0.00 -1.00  1.00  0.00  0.00  0.00  0.00 -1.00  1.00
G_4-   0.00  0.00  0.00  0.00  0.00  0.00  0.00  0.00  0.00  0.00  0.00  0.00
G_5-   0.00  0.00  0.00  0.00  1.00 -1.00  0.00  0.00  0.00  0.00 -1.00  1.00
G_6-   0.00  0.00  0.00  0.00 -1.00  1.00  0.00  0.00  0.00  0.00  1.00 -1.00

     the symmetry operations in each class and the name of the first element:

     E             1
                                                                 
     -E           -1
                                                                 
     2C3           3    4
                                                                 
     -2C3         -3   -4
                                                                 
     3C2'          5    6   -2
                                                                 
     -3C2'         2   -5   -6
                                                                 
     i             7
                                                                 
     -i           -7
                                                                 
     2S6           9   10
                                                                 
     -2S6         -9  -10
                                                                 
     3s_v         11   12   -8
                                                                 
     -3s_v         8  -11  -12
                                                                 

     Band symmetry, D_3d (-3m)  double point group:

     e(  1 -  4) =    -58.86729  eV     4   --> G_4+  L_6+     
     e(  1 -  4) =    -58.86729  eV     4   --> G_4-  L_6-     
     e(  5 -  6) =    -34.59365  eV     2   --> G_4+  L_6+     
     e(  7 -  8) =    -34.59355  eV     2   --> G_4-  L_6-     
     e(  9 - 10) =    -32.16699  eV     2   --> G_4+  L_6+     
     e( 11 - 12) =    -32.16685  eV     2   --> G_4-  L_6-     
     e( 13 - 16) =    -32.00688  eV     4   --> G_5+  L_4+     
     e( 13 - 16) =    -32.00688  eV     4   --> G_6+  L_5+     
     e( 13 - 16) =    -32.00688  eV     4   --> G_5-  L_4-     
     e( 13 - 16) =    -32.00688  eV     4   --> G_6-  L_5-     
     e( 17 - 18) =    -12.22660  eV     2   --> G_4+  L_6+     
     e( 19 - 20) =    -12.08992  eV     2   --> G_4-  L_6-     
     e( 21 - 22) =    -10.97044  eV     2   --> G_4+  L_6+     
     e( 23 - 24) =    -10.75828  eV     2   --> G_4-  L_6-     
     e( 25 - 26) =     -3.95320  eV     2   --> G_4+  L_6+     
     e( 27 - 28) =     -3.43933  eV     2   --> G_4-  L_6-     
     e( 29 - 30) =     -0.64192  eV     2   --> G_5+  L_4+     
     e( 29 - 30) =     -0.64192  eV     2   --> G_6+  L_5+     
     e( 31 - 32) =     -0.63576  eV     2   --> G_5-  L_4-     
     e( 31 - 32) =     -0.63576  eV     2   --> G_6-  L_5-     
     e( 33 - 34) =     -0.58100  eV     2   --> G_4+  L_6+     
     e( 35 - 36) =     -0.56927  eV     2   --> G_4-  L_6-     
     e( 37 - 38) =     -0.36877  eV     2   --> G_4+  L_6+     
     e( 39 - 40) =      0.44674  eV     2   --> G_4+  L_6+     
     e( 41 - 42) =      0.46842  eV     2   --> G_4-  L_6-     
     e( 43 - 44) =      0.53166  eV     2   --> G_5+  L_4+     
     e( 43 - 44) =      0.53166  eV     2   --> G_6+  L_5+     
     e( 45 - 46) =      0.55459  eV     2   --> G_5-  L_4-     
     e( 45 - 46) =      0.55459  eV     2   --> G_6-  L_5-     
     e( 47 - 48) =      0.67039  eV     2   --> G_4-  L_6-     
     e( 49 - 50) =      1.74760  eV     2   --> G_4+  L_6+     
     e( 51 - 52) =      2.39628  eV     2   --> G_4-  L_6-     
     e( 53 - 54) =      4.69336  eV     2   --> G_4+  L_6+     
     e( 55 - 56) =      4.71225  eV     2   --> G_4-  L_6-     
     e( 57 - 58) =      4.76838  eV     2   --> G_5+  L_4+     
     e( 57 - 58) =      4.76838  eV     2   --> G_6+  L_5+     
     e( 59 - 60) =      4.79196  eV     2   --> G_5-  L_4-     
     e( 59 - 60) =      4.79196  eV     2   --> G_6-  L_5-     
     e( 61 - 62) =      4.94309  eV     2   --> G_4+  L_6+     
     e( 63 - 64) =      4.94819  eV     2   --> G_5+  L_4+     
     e( 63 - 64) =      4.94819  eV     2   --> G_6+  L_5+     
     e( 65 - 66) =      5.02196  eV     2   -->   ?
     e( 67 - 68) =      5.02216  eV     2   -->   ?
     e( 69 - 70) =      7.42143  eV     2   --> G_4+  L_6+     

 **************************************************************************

 **************************************************************************

                    xk=(  -0.01587,   0.02749,   0.00000  )

     double point group C_2  (2)   
     there are  4 classes and  2 irreducible representations
     the character table:

       E     -E    C2    -C2  
                              
G_3    1.00 -1.00  0.00  0.00
G_4    1.00 -1.00  0.00  0.00

     imaginary part

       E     -E    C2    -C2  
                              
G_3    0.00  0.00  1.00 -1.00
G_4    0.00  0.00 -1.00  1.00

     the symmetry operations in each class and the name of the first element:

     E             1
                                                                 
     -E           -1
                                                                 
     C2            2
                                                                 
     -C2          -2
                                                                 

     Band symmetry, C_2  (2)    double point group:

     e(  1 -  4) =    -58.86700  eV     4   -->   2 G_3            
     e(  1 -  4) =    -58.86700  eV     4   -->   2 G_4            
     e(  5 -  8) =    -34.59440  eV     4   -->   2 G_3            
     e(  5 -  8) =    -34.59440  eV     4   -->   2 G_4            
     e(  9 - 10) =    -32.16727  eV     2   --> G_3            
     e(  9 - 10) =    -32.16727  eV     2   --> G_4            
     e( 11 - 12) =    -32.16717  eV     2   --> G_3            
     e( 11 - 12) =    -32.16717  eV     2   --> G_4            
     e( 13 - 16) =    -32.00881  eV     4   -->   2 G_3            
     e( 13 - 16) =    -32.00881  eV     4   -->   2 G_4            
     e( 17 - 18) =    -12.21516  eV     2   --> G_3            
     e( 17 - 18) =    -12.21516  eV     2   --> G_4            
     e( 19 - 20) =    -12.07855  eV     2   --> G_3            
     e( 19 - 20) =    -12.07855  eV     2   --> G_4            
     e( 21 - 22) =    -10.96525  eV     2   --> G_3            
     e( 21 - 22) =    -10.96525  eV     2   --> G_4            
     e( 23 - 24) =    -10.75380  eV     2   --> G_3            
     e( 23 - 24) =    -10.75380  eV     2   --> G_4            
     e( 25 - 26) =     -3.94000  eV     2   --> G_3            
     e( 25 - 26) =     -3.94000  eV     2   --> G_4            
     e( 27 - 28) =     -3.42619  eV     2   --> G_3            
     e( 27 - 28) =     -3.42619  eV     2   --> G_4            
     e( 29 - 30) =     -0.65499  eV     2   --> G_3            
     e( 29 - 30) =     -0.65499  eV     2   --> G_4            
     e( 31 - 32) =     -0.64831  eV     2   --> G_3            
     e( 31 - 32) =     -0.64831  eV     2   --> G_4            
     e( 33 - 34) =     -0.58384  eV     2   --> G_3            
     e( 33 - 34) =     -0.58384  eV     2   --> G_4            
     e( 35 - 36) =     -0.57162  eV     2   --> G_3            
     e( 35 - 36) =     -0.57162  eV     2   --> G_4            
     e( 37 - 38) =     -0.40545  eV     2   --> G_3            
     e( 37 - 38) =     -0.40545  eV     2   --> G_4            
     e( 39 - 40) =      0.35066  eV     2   --> G_3            
     e( 39 - 40) =      0.35066  eV     2   --> G_4            
     e( 41 - 42) =      0.46785  eV     2   --> G_3            
     e( 41 - 42) =      0.46785  eV     2   --> G_4            
     e( 43 - 44) =      0.48014  eV     2   --> G_3            
     e( 43 - 44) =      0.48014  eV     2   --> G_4            
     e( 45 - 46) =      0.56018  eV     2   --> G_3            
     e( 45 - 46) =      0.56018  eV     2   --> G_4            
     e( 47 - 48) =      0.77761  eV     2   --> G_3            
     e( 47 - 48) =      0.77761  eV     2   --> G_4            
     e( 49 - 50) =      1.74631  eV     2   --> G_3            
     e( 49 - 50) =      1.74631  eV     2   --> G_4            
     e( 51 - 52) =      2.38227  eV     2   --> G_3            
     e( 51 - 52) =      2.38227  eV     2   --> G_4            
     e( 53 - 54) =      4.69205  eV     2   --> G_3            
     e( 53 - 54) =      4.69205  eV     2   --> G_4            
     e( 55 - 56) =      4.70872  eV     2   --> G_3            
     e( 55 - 56) =      4.70872  eV     2   --> G_4            
     e( 57 - 58) =      4.77218  eV     2   --> G_3            
     e( 57 - 58) =      4.77218  eV     2   --> G_4            
     e( 59 - 60) =      4.79628  eV     2   --> G_3            
     e( 59 - 60) =      4.79628  eV     2   --> G_4            
     e( 61 - 62) =      4.91952  eV     2   --> G_3            
     e( 61 - 62) =      4.91952  eV     2   --> G_4            
     e( 63 - 64) =      4.93417  eV     2   --> G_3            
     e( 63 - 64) =      4.93417  eV     2   --> G_4            
     e( 65 - 66) =      4.98473  eV     2   --> G_3            
     e( 65 - 66) =      4.98473  eV     2   --> G_4            
     e( 67 - 68) =      5.00978  eV     2   --> G_3            
     e( 67 - 68) =      5.00978  eV     2   --> G_4            
     e( 69 - 70) =      7.44086  eV     2   --> G_3            
     e( 69 - 70) =      7.44086  eV     2   --> G_4            

 **************************************************************************

 **************************************************************************

                    xk=(  -0.03175,   0.05499,   0.00000  )

     Band symmetry, C_2  (2)    double point group:

     e(  1 -  4) =    -58.86613  eV     4   -->   2 G_3            
     e(  1 -  4) =    -58.86613  eV     4   -->   2 G_4            
     e(  5 -  8) =    -34.59674  eV     4   -->   2 G_3            
     e(  5 -  8) =    -34.59674  eV     4   -->   2 G_4            
     e(  9 - 10) =    -32.16827  eV     2   --> G_3            
     e(  9 - 10) =    -32.16827  eV     2   --> G_4            
     e( 11 - 12) =    -32.16815  eV     2   --> G_3            
     e( 11 - 12) =    -32.16815  eV     2   --> G_4            
     e( 13 - 14) =    -32.01465  eV     2   --> G_3            
     e( 13 - 14) =    -32.01465  eV     2   --> G_4            
     e( 15 - 16) =    -32.01449  eV     2   --> G_3            
     e( 15 - 16) =    -32.01449  eV     2   --> G_4            
     e( 17 - 18) =    -12.18102  eV     2   --> G_3            
     e( 17 - 18) =    -12.18102  eV     2   --> G_4            
     e( 19 - 20) =    -12.04463  eV     2   --> G_3            
     e( 19 - 20) =    -12.04463  eV     2   --> G_4            
     e( 21 - 22) =    -10.94979  eV     2   --> G_3            
     e( 21 - 22) =    -10.94979  eV     2   --> G_4            
     e( 23 - 24) =    -10.74045  eV     2   --> G_3            
     e( 23 - 24) =    -10.74045  eV     2   --> G_4            
     e( 25 - 26) =     -3.90093  eV     2   --> G_3            
     e( 25 - 26) =     -3.90093  eV     2   --> G_4            
     e( 27 - 28) =     -3.38735  eV     2   --> G_3            
     e( 27 - 28) =     -3.38735  eV     2   --> G_4            
     e( 29 - 30) =     -0.72293  eV     2   --> G_3            
     e( 29 - 30) =     -0.72293  eV     2   --> G_4            
     e( 31 - 32) =     -0.71358  eV     2   --> G_3            
     e( 31 - 32) =     -0.71358  eV     2   --> G_4            
     e( 33 - 34) =     -0.56731  eV     2   --> G_3            
     e( 33 - 34) =     -0.56731  eV     2   --> G_4            
     e( 35 - 36) =     -0.54913  eV     2   --> G_3            
     e( 35 - 36) =     -0.54913  eV     2   --> G_4            
     e( 37 - 38) =     -0.49676  eV     2   --> G_3            
     e( 37 - 38) =     -0.49676  eV     2   --> G_4            
     e( 39 - 40) =      0.15964  eV     2   --> G_3            
     e( 39 - 40) =      0.15964  eV     2   --> G_4            
     e( 41 - 42) =      0.41302  eV     2   --> G_3            
     e( 41 - 42) =      0.41302  eV     2   --> G_4            
     e( 43 - 44) =      0.42769  eV     2   --> G_3            
     e( 43 - 44) =      0.42769  eV     2   --> G_4            
     e( 45 - 46) =      0.60095  eV     2   --> G_3            
     e( 45 - 46) =      0.60095  eV     2   --> G_4            
     e( 47 - 48) =      0.91723  eV     2   --> G_3            
     e( 47 - 48) =      0.91723  eV     2   --> G_4            
     e( 49 - 50) =      1.74117  eV     2   --> G_3            
     e( 49 - 50) =      1.74117  eV     2   --> G_4            
     e( 51 - 52) =      2.33877  eV     2   --> G_3            
     e( 51 - 52) =      2.33877  eV     2   --> G_4            
     e( 53 - 54) =      4.65959  eV     2   --> G_3            
     e( 53 - 54) =      4.65959  eV     2   --> G_4            
     e( 55 - 56) =      4.67742  eV     2   --> G_3            
     e( 55 - 56) =      4.67742  eV     2   --> G_4            
     e( 57 - 58) =      4.79758  eV     2   --> G_3            
     e( 57 - 58) =      4.79758  eV     2   --> G_4            
     e( 59 - 60) =      4.82716  eV     2   --> G_3            
     e( 59 - 60) =      4.82716  eV     2   --> G_4            
     e( 61 - 62) =      4.85481  eV     2   --> G_3            
     e( 61 - 62) =      4.85481  eV     2   --> G_4            
     e( 63 - 64) =      4.89116  eV     2   --> G_3            
     e( 63 - 64) =      4.89116  eV     2   --> G_4            
     e( 65 - 66) =      4.91011  eV     2   --> G_3            
     e( 65 - 66) =      4.91011  eV     2   --> G_4            
     e( 67 - 68) =      4.97391  eV     2   --> G_3            
     e( 67 - 68) =      4.97391  eV     2   --> G_4            
     e( 69 - 70) =      7.49592  eV     2   --> G_3            
     e( 69 - 70) =      7.49592  eV     2   --> G_4            

 **************************************************************************

 **************************************************************************

                    xk=(  -0.04762,   0.08248,   0.00000  )

     Band symmetry, C_2  (2)    double point group:

     e(  1 -  4) =    -58.86471  eV     4   -->   2 G_3            
     e(  1 -  4) =    -58.86471  eV     4   -->   2 G_4            
     e(  5 -  6) =    -34.60058  eV     2   --> G_3            
     e(  5 -  6) =    -34.60058  eV     2   --> G_4            
     e(  7 -  8) =    -34.60036  eV     2   --> G_3            
     e(  7 -  8) =    -34.60036  eV     2   --> G_4            
     e(  9 - 10) =    -32.17000  eV     2   --> G_3            
     e(  9 - 10) =    -32.17000  eV     2   --> G_4            
     e( 11 - 12) =    -32.16981  eV     2   --> G_3            
     e( 11 - 12) =    -32.16981  eV     2   --> G_4            
     e( 13 - 14) =    -32.02405  eV     2   --> G_3            
     e( 13 - 14) =    -32.02405  eV     2   --> G_4            
     e( 15 - 16) =    -32.02354  eV     2   --> G_3            
     e( 15 - 16) =    -32.02354  eV     2   --> G_4            
     e( 17 - 18) =    -12.12473  eV     2   --> G_3            
     e( 17 - 18) =    -12.12473  eV     2   --> G_4            
     e( 19 - 20) =    -11.98874  eV     2   --> G_3            
     e( 19 - 20) =    -11.98874  eV     2   --> G_4            
     e( 21 - 22) =    -10.92428  eV     2   --> G_3            
     e( 21 - 22) =    -10.92428  eV     2   --> G_4            
     e( 23 - 24) =    -10.71846  eV     2   --> G_3            
     e( 23 - 24) =    -10.71846  eV     2   --> G_4            
     e( 25 - 26) =     -3.83755  eV     2   --> G_3            
     e( 25 - 26) =     -3.83755  eV     2   --> G_4            
     e( 27 - 28) =     -3.32463  eV     2   --> G_3            
     e( 27 - 28) =     -3.32463  eV     2   --> G_4            
     e( 29 - 30) =     -0.84335  eV     2   --> G_3            
     e( 29 - 30) =     -0.84335  eV     2   --> G_4            
     e( 31 - 32) =     -0.83188  eV     2   --> G_3            
     e( 31 - 32) =     -0.83188  eV     2   --> G_4            
     e( 33 - 34) =     -0.65081  eV     2   --> G_3            
     e( 33 - 34) =     -0.65081  eV     2   --> G_4            
     e( 35 - 36) =     -0.50256  eV     2   --> G_3            
     e( 35 - 36) =     -0.50256  eV     2   --> G_4            
     e( 37 - 38) =     -0.48893  eV     2   --> G_3            
     e( 37 - 38) =     -0.48893  eV     2   --> G_4            
     e( 39 - 40) =     -0.04801  eV     2   --> G_3            
     e( 39 - 40) =     -0.04801  eV     2   --> G_4            
     e( 41 - 42) =      0.31121  eV     2   --> G_3            
     e( 41 - 42) =      0.31121  eV     2   --> G_4            
     e( 43 - 44) =      0.33445  eV     2   --> G_3            
     e( 43 - 44) =      0.33445  eV     2   --> G_4            
     e( 45 - 46) =      0.66680  eV     2   --> G_3            
     e( 45 - 46) =      0.66680  eV     2   --> G_4            
     e( 47 - 48) =      1.03307  eV     2   --> G_3            
     e( 47 - 48) =      1.03307  eV     2   --> G_4            
     e( 49 - 50) =      1.72847  eV     2   --> G_3            
     e( 49 - 50) =      1.72847  eV     2   --> G_4            
     e( 51 - 52) =      2.26248  eV     2   --> G_3            
     e( 51 - 52) =      2.26248  eV     2   --> G_4            
     e( 53 - 54) =      4.58918  eV     2   --> G_3            
     e( 53 - 54) =      4.58918  eV     2   --> G_4            
     e( 55 - 56) =      4.62273  eV     2   --> G_3            
     e( 55 - 56) =      4.62273  eV     2   --> G_4            
     e( 57 - 58) =      4.70494  eV     2   --> G_3            
     e( 57 - 58) =      4.70494  eV     2   --> G_4            
     e( 59 - 60) =      4.75936  eV     2   --> G_3            
     e( 59 - 60) =      4.75936  eV     2   --> G_4            
     e( 61 - 62) =      4.81599  eV     2   --> G_3            
     e( 61 - 62) =      4.81599  eV     2   --> G_4            
     e( 63 - 64) =      4.89363  eV     2   --> G_3            
     e( 63 - 64) =      4.89363  eV     2   --> G_4            
     e( 65 - 66) =      4.93223  eV     2   --> G_3            
     e( 65 - 66) =      4.93223  eV     2   --> G_4            
     e( 67 - 68) =      4.97058  eV     2   --> G_3            
     e( 67 - 68) =      4.97058  eV     2   --> G_4            
     e( 69 - 70) =      7.58088  eV     2   --> G_3            
     e( 69 - 70) =      7.58088  eV     2   --> G_4            

 **************************************************************************

 **************************************************************************

                    xk=(  -0.06349,   0.10997,   0.00000  )

     Band symmetry, C_2  (2)    double point group:

     e(  1 -  4) =    -58.86279  eV     4   -->   2 G_3            
     e(  1 -  4) =    -58.86279  eV     4   -->   2 G_4            
     e(  5 -  6) =    -34.60597  eV     2   --> G_3            
     e(  5 -  6) =    -34.60597  eV     2   --> G_4            
     e(  7 -  8) =    -34.60545  eV     2   --> G_3            
     e(  7 -  8) =    -34.60545  eV     2   --> G_4            
     e(  9 - 10) =    -32.17275  eV     2   --> G_3            
     e(  9 - 10) =    -32.17275  eV     2   --> G_4            
     e( 11 - 12) =    -32.17232  eV     2   --> G_3            
     e( 11 - 12) =    -32.17232  eV     2   --> G_4            
     e( 13 - 14) =    -32.03663  eV     2   --> G_3            
     e( 13 - 14) =    -32.03663  eV     2   --> G_4            
     e( 15 - 16) =    -32.03544  eV     2   --> G_3            
     e( 15 - 16) =    -32.03544  eV     2   --> G_4            
     e( 17 - 18) =    -12.04720  eV     2   --> G_3            
     e( 17 - 18) =    -12.04720  eV     2   --> G_4            
     e( 19 - 20) =    -11.91185  eV     2   --> G_3            
     e( 19 - 20) =    -11.91185  eV     2   --> G_4            
     e( 21 - 22) =    -10.88914  eV     2   --> G_3            
     e( 21 - 22) =    -10.88914  eV     2   --> G_4            
     e( 23 - 24) =    -10.68823  eV     2   --> G_3            
     e( 23 - 24) =    -10.68823  eV     2   --> G_4            
     e( 25 - 26) =     -3.75260  eV     2   --> G_3            
     e( 25 - 26) =     -3.75260  eV     2   --> G_4            
     e( 27 - 28) =     -3.24124  eV     2   --> G_3            
     e( 27 - 28) =     -3.24124  eV     2   --> G_4            
     e( 29 - 30) =     -0.99989  eV     2   --> G_3            
     e( 29 - 30) =     -0.99989  eV     2   --> G_4            
     e( 31 - 32) =     -0.98700  eV     2   --> G_3            
     e( 31 - 32) =     -0.98700  eV     2   --> G_4            
     e( 33 - 34) =     -0.80352  eV     2   --> G_3            
     e( 33 - 34) =     -0.80352  eV     2   --> G_4            
     e( 35 - 36) =     -0.42957  eV     2   --> G_3            
     e( 35 - 36) =     -0.42957  eV     2   --> G_4            
     e( 37 - 38) =     -0.41337  eV     2   --> G_3            
     e( 37 - 38) =     -0.41337  eV     2   --> G_4            
     e( 39 - 40) =     -0.25571  eV     2   --> G_3            
     e( 39 - 40) =     -0.25571  eV     2   --> G_4            
     e( 41 - 42) =      0.16820  eV     2   --> G_3            
     e( 41 - 42) =      0.16820  eV     2   --> G_4            
     e( 43 - 44) =      0.19697  eV     2   --> G_3            
     e( 43 - 44) =      0.19697  eV     2   --> G_4            
     e( 45 - 46) =      0.73513  eV     2   --> G_3            
     e( 45 - 46) =      0.73513  eV     2   --> G_4            
     e( 47 - 48) =      1.11823  eV     2   --> G_3            
     e( 47 - 48) =      1.11823  eV     2   --> G_4            
     e( 49 - 50) =      1.70273  eV     2   --> G_3            
     e( 49 - 50) =      1.70273  eV     2   --> G_4            
     e( 51 - 52) =      2.15102  eV     2   --> G_3            
     e( 51 - 52) =      2.15102  eV     2   --> G_4            
     e( 53 - 54) =      4.49541  eV     2   --> G_3            
     e( 53 - 54) =      4.49541  eV     2   --> G_4            
     e( 55 - 56) =      4.52397  eV     2   --> G_3            
     e( 55 - 56) =      4.52397  eV     2   --> G_4            
     e( 57 - 58) =      4.56881  eV     2   --> G_3            
     e( 57 - 58) =      4.56881  eV     2   --> G_4            
     e( 59 - 60) =      4.68774  eV     2   --> G_3            
     e( 59 - 60) =      4.68774  eV     2   --> G_4            
     e( 61 - 62) =      4.74085  eV     2   --> G_3            
     e( 61 - 62) =      4.74085  eV     2   --> G_4            
     e( 63 - 64) =      4.82201  eV     2   --> G_3            
     e( 63 - 64) =      4.82201  eV     2   --> G_4            
     e( 65 - 66) =      5.04580  eV     2   --> G_3            
     e( 65 - 66) =      5.04580  eV     2   --> G_4            
     e( 67 - 68) =      5.09804  eV     2   --> G_3            
     e( 67 - 68) =      5.09804  eV     2   --> G_4            
     e( 69 - 70) =      7.69222  eV     2   --> G_3            
     e( 69 - 70) =      7.69222  eV     2   --> G_4            

 **************************************************************************

 **************************************************************************

                    xk=(  -0.07936,   0.13746,   0.00000  )

     Band symmetry, C_2  (2)    double point group:

     e(  1 -  4) =    -58.86041  eV     4   -->   2 G_3            
     e(  1 -  4) =    -58.86041  eV     4   -->   2 G_4            
     e(  5 -  6) =    -34.61271  eV     2   --> G_3            
     e(  5 -  6) =    -34.61271  eV     2   --> G_4            
     e(  7 -  8) =    -34.61171  eV     2   --> G_3            
     e(  7 -  8) =    -34.61171  eV     2   --> G_4            
     e(  9 - 10) =    -32.17659  eV     2   --> G_3            
     e(  9 - 10) =    -32.17659  eV     2   --> G_4            
     e( 11 - 12) =    -32.17583  eV     2   --> G_3            
     e( 11 - 12) =    -32.17583  eV     2   --> G_4            
     e( 13 - 14) =    -32.05159  eV     2   --> G_3            
     e( 13 - 14) =    -32.05159  eV     2   --> G_4            
     e( 15 - 16) =    -32.04936  eV     2   --> G_3            
     e( 15 - 16) =    -32.04936  eV     2   --> G_4            
     e( 17 - 18) =    -11.94970  eV     2   --> G_3            
     e( 17 - 18) =    -11.94970  eV     2   --> G_4            
     e( 19 - 20) =    -11.81529  eV     2   --> G_3            
     e( 19 - 20) =    -11.81529  eV     2   --> G_4            
     e( 21 - 22) =    -10.84493  eV     2   --> G_3            
     e( 21 - 22) =    -10.84493  eV     2   --> G_4            
     e( 23 - 24) =    -10.65028  eV     2   --> G_3            
     e( 23 - 24) =    -10.65028  eV     2   --> G_4            
     e( 25 - 26) =     -3.65019  eV     2   --> G_3            
     e( 25 - 26) =     -3.65019  eV     2   --> G_4            
     e( 27 - 28) =     -3.14212  eV     2   --> G_3            
     e( 27 - 28) =     -3.14212  eV     2   --> G_4            
     e( 29 - 30) =     -1.17881  eV     2   --> G_3            
     e( 29 - 30) =     -1.17881  eV     2   --> G_4            
     e( 31 - 32) =     -1.16550  eV     2   --> G_3            
     e( 31 - 32) =     -1.16550  eV     2   --> G_4            
     e( 33 - 34) =     -0.96308  eV     2   --> G_3            
     e( 33 - 34) =     -0.96308  eV     2   --> G_4            
     e( 35 - 36) =     -0.46676  eV     2   --> G_3            
     e( 35 - 36) =     -0.46676  eV     2   --> G_4            
     e( 37 - 38) =     -0.33865  eV     2   --> G_3            
     e( 37 - 38) =     -0.33865  eV     2   --> G_4            
     e( 39 - 40) =     -0.31141  eV     2   --> G_3            
     e( 39 - 40) =     -0.31141  eV     2   --> G_4            
     e( 41 - 42) =     -0.01518  eV     2   --> G_3            
     e( 41 - 42) =     -0.01518  eV     2   --> G_4            
     e( 43 - 44) =      0.01958  eV     2   --> G_3            
     e( 43 - 44) =      0.01958  eV     2   --> G_4            
     e( 45 - 46) =      0.79604  eV     2   --> G_3            
     e( 45 - 46) =      0.79604  eV     2   --> G_4            
     e( 47 - 48) =      1.17152  eV     2   --> G_3            
     e( 47 - 48) =      1.17152  eV     2   --> G_4            
     e( 49 - 50) =      1.65793  eV     2   --> G_3            
     e( 49 - 50) =      1.65793  eV     2   --> G_4            
     e( 51 - 52) =      2.00578  eV     2   --> G_3            
     e( 51 - 52) =      2.00578  eV     2   --> G_4            
     e( 53 - 54) =      4.32537  eV     2   --> G_3            
     e( 53 - 54) =      4.32537  eV     2   --> G_4            
     e( 55 - 56) =      4.43367  eV     2   --> G_3            
     e( 55 - 56) =      4.43367  eV     2   --> G_4            
     e( 57 - 58) =      4.49006  eV     2   --> G_3            
     e( 57 - 58) =      4.49006  eV     2   --> G_4            
     e( 59 - 60) =      4.62879  eV     2   --> G_3            
     e( 59 - 60) =      4.62879  eV     2   --> G_4            
     e( 61 - 62) =      4.66756  eV     2   --> G_3            
     e( 61 - 62) =      4.66756  eV     2   --> G_4            
     e( 63 - 64) =      4.73435  eV     2   --> G_3            
     e( 63 - 64) =      4.73435  eV     2   --> G_4            
     e( 65 - 66) =      5.19563  eV     2   --> G_3            
     e( 65 - 66) =      5.19563  eV     2   --> G_4            
     e( 67 - 68) =      5.26148  eV     2   --> G_3            
     e( 67 - 68) =      5.26148  eV     2   --> G_4            
     e( 69 - 70) =      7.82875  eV     2   --> G_3            
     e( 69 - 70) =      7.82875  eV     2   --> G_4            

 **************************************************************************

 **************************************************************************

                    xk=(  -0.09524,   0.16496,   0.00000  )

     Band symmetry, C_2  (2)    double point group:

     e(  1 -  4) =    -58.85765  eV     4   -->   2 G_3            
     e(  1 -  4) =    -58.85765  eV     4   -->   2 G_4            
     e(  5 -  6) =    -34.62070  eV     2   --> G_3            
     e(  5 -  6) =    -34.62070  eV     2   --> G_4            
     e(  7 -  8) =    -34.61901  eV     2   --> G_3            
     e(  7 -  8) =    -34.61901  eV     2   --> G_4            
     e(  9 - 10) =    -32.18185  eV     2   --> G_3            
     e(  9 - 10) =    -32.18185  eV     2   --> G_4            
     e( 11 - 12) =    -32.18070  eV     2   --> G_3            
     e( 11 - 12) =    -32.18070  eV     2   --> G_4            
     e( 13 - 14) =    -32.06807  eV     2   --> G_3            
     e( 13 - 14) =    -32.06807  eV     2   --> G_4            
     e( 15 - 16) =    -32.06445  eV     2   --> G_3            
     e( 15 - 16) =    -32.06445  eV     2   --> G_4            
     e( 17 - 18) =    -11.83385  eV     2   --> G_3            
     e( 17 - 18) =    -11.83385  eV     2   --> G_4            
     e( 19 - 20) =    -11.70078  eV     2   --> G_3            
     e( 19 - 20) =    -11.70078  eV     2   --> G_4            
     e( 21 - 22) =    -10.79240  eV     2   --> G_3            
     e( 21 - 22) =    -10.79240  eV     2   --> G_4            
     e( 23 - 24) =    -10.60532  eV     2   --> G_3            
     e( 23 - 24) =    -10.60532  eV     2   --> G_4            
     e( 25 - 26) =     -3.53612  eV     2   --> G_3            
     e( 25 - 26) =     -3.53612  eV     2   --> G_4            
     e( 27 - 28) =     -3.03469  eV     2   --> G_3            
     e( 27 - 28) =     -3.03469  eV     2   --> G_4            
     e( 29 - 30) =     -1.36605  eV     2   --> G_3            
     e( 29 - 30) =     -1.36605  eV     2   --> G_4            
     e( 31 - 32) =     -1.35406  eV     2   --> G_3            
     e( 31 - 32) =     -1.35406  eV     2   --> G_4            
     e( 33 - 34) =     -1.11914  eV     2   --> G_3            
     e( 33 - 34) =     -1.11914  eV     2   --> G_4            
     e( 35 - 36) =     -0.66082  eV     2   --> G_3            
     e( 35 - 36) =     -0.66082  eV     2   --> G_4            
     e( 37 - 38) =     -0.25673  eV     2   --> G_3            
     e( 37 - 38) =     -0.25673  eV     2   --> G_4            
     e( 39 - 40) =     -0.22629  eV     2   --> G_3            
     e( 39 - 40) =     -0.22629  eV     2   --> G_4            
     e( 41 - 42) =     -0.20381  eV     2   --> G_3            
     e( 41 - 42) =     -0.20381  eV     2   --> G_4            
     e( 43 - 44) =     -0.18267  eV     2   --> G_3            
     e( 43 - 44) =     -0.18267  eV     2   --> G_4            
     e( 45 - 46) =      0.84496  eV     2   --> G_3            
     e( 45 - 46) =      0.84496  eV     2   --> G_4            
     e( 47 - 48) =      1.19389  eV     2   --> G_3            
     e( 47 - 48) =      1.19389  eV     2   --> G_4            
     e( 49 - 50) =      1.58951  eV     2   --> G_3            
     e( 49 - 50) =      1.58951  eV     2   --> G_4            
     e( 51 - 52) =      1.83338  eV     2   --> G_3            
     e( 51 - 52) =      1.83338  eV     2   --> G_4            
     e( 53 - 54) =      4.15176  eV     2   --> G_3            
     e( 53 - 54) =      4.15176  eV     2   --> G_4            
     e( 55 - 56) =      4.35511  eV     2   --> G_3            
     e( 55 - 56) =      4.35511  eV     2   --> G_4            
     e( 57 - 58) =      4.43622  eV     2   --> G_3            
     e( 57 - 58) =      4.43622  eV     2   --> G_4            
     e( 59 - 60) =      4.54045  eV     2   --> G_3            
     e( 59 - 60) =      4.54045  eV     2   --> G_4            
     e( 61 - 62) =      4.61183  eV     2   --> G_3            
     e( 61 - 62) =      4.61183  eV     2   --> G_4            
     e( 63 - 64) =      4.68943  eV     2   --> G_3            
     e( 63 - 64) =      4.68943  eV     2   --> G_4            
     e( 65 - 66) =      5.36293  eV     2   --> G_3            
     e( 65 - 66) =      5.36293  eV     2   --> G_4            
     e( 67 - 68) =      5.44664  eV     2   --> G_3            
     e( 67 - 68) =      5.44664  eV     2   --> G_4            
     e( 69 - 70) =      7.99007  eV     2   --> G_3            
     e( 69 - 70) =      7.99007  eV     2   --> G_4            

 **************************************************************************

 **************************************************************************

                    xk=(  -0.11111,   0.19245,   0.00000  )

     Band symmetry, C_2  (2)    double point group:

     e(  1 -  4) =    -58.85458  eV     4   -->   2 G_3            
     e(  1 -  4) =    -58.85458  eV     4   -->   2 G_4            
     e(  5 -  6) =    -34.62975  eV     2   --> G_3            
     e(  5 -  6) =    -34.62975  eV     2   --> G_4            
     e(  7 -  8) =    -34.62714  eV     2   --> G_3            
     e(  7 -  8) =    -34.62714  eV     2   --> G_4            
     e(  9 - 10) =    -32.18874  eV     2   --> G_3            
     e(  9 - 10) =    -32.18874  eV     2   --> G_4            
     e( 11 - 12) =    -32.18733  eV     2   --> G_3            
     e( 11 - 12) =    -32.18733  eV     2   --> G_4            
     e( 13 - 14) =    -32.08501  eV     2   --> G_3            
     e( 13 - 14) =    -32.08501  eV     2   --> G_4            
     e( 15 - 16) =    -32.07980  eV     2   --> G_3            
     e( 15 - 16) =    -32.07980  eV     2   --> G_4            
     e( 17 - 18) =    -11.70166  eV     2   --> G_3            
     e( 17 - 18) =    -11.70166  eV     2   --> G_4            
     e( 19 - 20) =    -11.57041  eV     2   --> G_3            
     e( 19 - 20) =    -11.57041  eV     2   --> G_4            
     e( 21 - 22) =    -10.73242  eV     2   --> G_3            
     e( 21 - 22) =    -10.73242  eV     2   --> G_4            
     e( 23 - 24) =    -10.55418  eV     2   --> G_3            
     e( 23 - 24) =    -10.55418  eV     2   --> G_4            
     e( 25 - 26) =     -3.41849  eV     2   --> G_3            
     e( 25 - 26) =     -3.41849  eV     2   --> G_4            
     e( 27 - 28) =     -2.93011  eV     2   --> G_3            
     e( 27 - 28) =     -2.93011  eV     2   --> G_4            
     e( 29 - 30) =     -1.54718  eV     2   --> G_3            
     e( 29 - 30) =     -1.54718  eV     2   --> G_4            
     e( 31 - 32) =     -1.53761  eV     2   --> G_3            
     e( 31 - 32) =     -1.53761  eV     2   --> G_4            
     e( 33 - 34) =     -1.26592  eV     2   --> G_3            
     e( 33 - 34) =     -1.26592  eV     2   --> G_4            
     e( 35 - 36) =     -0.84897  eV     2   --> G_3            
     e( 35 - 36) =     -0.84897  eV     2   --> G_4            
     e( 37 - 38) =     -0.48834  eV     2   --> G_3            
     e( 37 - 38) =     -0.48834  eV     2   --> G_4            
     e( 39 - 40) =     -0.42566  eV     2   --> G_3            
     e( 39 - 40) =     -0.42566  eV     2   --> G_4            
     e( 41 - 42) =     -0.13060  eV     2   --> G_3            
     e( 41 - 42) =     -0.13060  eV     2   --> G_4            
     e( 43 - 44) =     -0.09297  eV     2   --> G_3            
     e( 43 - 44) =     -0.09297  eV     2   --> G_4            
     e( 45 - 46) =      0.87927  eV     2   --> G_3            
     e( 45 - 46) =      0.87927  eV     2   --> G_4            
     e( 47 - 48) =      1.18721  eV     2   --> G_3            
     e( 47 - 48) =      1.18721  eV     2   --> G_4            
     e( 49 - 50) =      1.49718  eV     2   --> G_3            
     e( 49 - 50) =      1.49718  eV     2   --> G_4            
     e( 51 - 52) =      1.64599  eV     2   --> G_3            
     e( 51 - 52) =      1.64599  eV     2   --> G_4            
     e( 53 - 54) =      3.99768  eV     2   --> G_3            
     e( 53 - 54) =      3.99768  eV     2   --> G_4            
     e( 55 - 56) =      4.27606  eV     2   --> G_3            
     e( 55 - 56) =      4.27606  eV     2   --> G_4            
     e( 57 - 58) =      4.41217  eV     2   --> G_3            
     e( 57 - 58) =      4.41217  eV     2   --> G_4            
     e( 59 - 60) =      4.45694  eV     2   --> G_3            
     e( 59 - 60) =      4.45694  eV     2   --> G_4            
     e( 61 - 62) =      4.54548  eV     2   --> G_3            
     e( 61 - 62) =      4.54548  eV     2   --> G_4            
     e( 63 - 64) =      4.70939  eV     2   --> G_3            
     e( 63 - 64) =      4.70939  eV     2   --> G_4            
     e( 65 - 66) =      5.53634  eV     2   --> G_3            
     e( 65 - 66) =      5.53634  eV     2   --> G_4            
     e( 67 - 68) =      5.64353  eV     2   --> G_3            
     e( 67 - 68) =      5.64353  eV     2   --> G_4            
     e( 69 - 70) =      8.17573  eV     2   --> G_3            
     e( 69 - 70) =      8.17573  eV     2   --> G_4            

 **************************************************************************

 **************************************************************************

                    xk=(  -0.12698,   0.21994,   0.00000  )

     Band symmetry, C_2  (2)    double point group:

     e(  1 -  4) =    -58.85130  eV     4   -->   2 G_3            
     e(  1 -  4) =    -58.85130  eV     4   -->   2 G_4            
     e(  5 -  6) =    -34.63964  eV     2   --> G_3            
     e(  5 -  6) =    -34.63964  eV     2   --> G_4            
     e(  7 -  8) =    -34.63586  eV     2   --> G_3            
     e(  7 -  8) =    -34.63586  eV     2   --> G_4            
     e(  9 - 10) =    -32.19741  eV     2   --> G_3            
     e(  9 - 10) =    -32.19741  eV     2   --> G_4            
     e( 11 - 12) =    -32.19617  eV     2   --> G_3            
     e( 11 - 12) =    -32.19617  eV     2   --> G_4            
     e( 13 - 14) =    -32.10124  eV     2   --> G_3            
     e( 13 - 14) =    -32.10124  eV     2   --> G_4            
     e( 15 - 16) =    -32.09454  eV     2   --> G_3            
     e( 15 - 16) =    -32.09454  eV     2   --> G_4            
     e( 17 - 18) =    -11.55548  eV     2   --> G_3            
     e( 17 - 18) =    -11.55548  eV     2   --> G_4            
     e( 19 - 20) =    -11.42666  eV     2   --> G_3            
     e( 19 - 20) =    -11.42666  eV     2   --> G_4            
     e( 21 - 22) =    -10.66604  eV     2   --> G_3            
     e( 21 - 22) =    -10.66604  eV     2   --> G_4            
     e( 23 - 24) =    -10.49785  eV     2   --> G_3            
     e( 23 - 24) =    -10.49785  eV     2   --> G_4            
     e( 25 - 26) =     -3.30842  eV     2   --> G_3            
     e( 25 - 26) =     -3.30842  eV     2   --> G_4            
     e( 27 - 28) =     -2.84517  eV     2   --> G_3            
     e( 27 - 28) =     -2.84517  eV     2   --> G_4            
     e( 29 - 30) =     -1.71220  eV     2   --> G_3            
     e( 29 - 30) =     -1.71220  eV     2   --> G_4            
     e( 31 - 32) =     -1.69249  eV     2   --> G_3            
     e( 31 - 32) =     -1.69249  eV     2   --> G_4            
     e( 33 - 34) =     -1.40114  eV     2   --> G_3            
     e( 33 - 34) =     -1.40114  eV     2   --> G_4            
     e( 35 - 36) =     -1.03860  eV     2   --> G_3            
     e( 35 - 36) =     -1.03860  eV     2   --> G_4            
     e( 37 - 38) =     -0.75458  eV     2   --> G_3            
     e( 37 - 38) =     -0.75458  eV     2   --> G_4            
     e( 39 - 40) =     -0.65669  eV     2   --> G_3            
     e( 39 - 40) =     -0.65669  eV     2   --> G_4            
     e( 41 - 42) =     -0.04183  eV     2   --> G_3            
     e( 41 - 42) =     -0.04183  eV     2   --> G_4            
     e( 43 - 44) =      0.00633  eV     2   --> G_3            
     e( 43 - 44) =      0.00633  eV     2   --> G_4            
     e( 45 - 46) =      0.89689  eV     2   --> G_3            
     e( 45 - 46) =      0.89689  eV     2   --> G_4            
     e( 47 - 48) =      1.15343  eV     2   --> G_3            
     e( 47 - 48) =      1.15343  eV     2   --> G_4            
     e( 49 - 50) =      1.38702  eV     2   --> G_3            
     e( 49 - 50) =      1.38702  eV     2   --> G_4            
     e( 51 - 52) =      1.46285  eV     2   --> G_3            
     e( 51 - 52) =      1.46285  eV     2   --> G_4            
     e( 53 - 54) =      3.86798  eV     2   --> G_3            
     e( 53 - 54) =      3.86798  eV     2   --> G_4            
     e( 55 - 56) =      4.19432  eV     2   --> G_3            
     e( 55 - 56) =      4.19432  eV     2   --> G_4            
     e( 57 - 58) =      4.39353  eV     2   --> G_3            
     e( 57 - 58) =      4.39353  eV     2   --> G_4            
     e( 59 - 60) =      4.41892  eV     2   --> G_3            
     e( 59 - 60) =      4.41892  eV     2   --> G_4            
     e( 61 - 62) =      4.51466  eV     2   --> G_3            
     e( 61 - 62) =      4.51466  eV     2   --> G_4            
     e( 63 - 64) =      4.75586  eV     2   --> G_3            
     e( 63 - 64) =      4.75586  eV     2   --> G_4            
     e( 65 - 66) =      5.70554  eV     2   --> G_3            
     e( 65 - 66) =      5.70554  eV     2   --> G_4            
     e( 67 - 68) =      5.84204  eV     2   --> G_3            
     e( 67 - 68) =      5.84204  eV     2   --> G_4            
     e( 69 - 70) =      8.38483  eV     2   --> G_3            
     e( 69 - 70) =      8.38483  eV     2   --> G_4            

 **************************************************************************

 **************************************************************************

                    xk=(  -0.14286,   0.24744,   0.00000  )

     Band symmetry, C_2  (2)    double point group:

     e(  1 -  4) =    -58.84788  eV     4   -->   2 G_3            
     e(  1 -  4) =    -58.84788  eV     4   -->   2 G_4            
     e(  5 -  6) =    -34.65007  eV     2   --> G_3            
     e(  5 -  6) =    -34.65007  eV     2   --> G_4            
     e(  7 -  8) =    -34.64490  eV     2   --> G_3            
     e(  7 -  8) =    -34.64490  eV     2   --> G_4            
     e(  9 - 10) =    -32.20773  eV     2   --> G_3            
     e(  9 - 10) =    -32.20773  eV     2   --> G_4            
     e( 11 - 12) =    -32.20746  eV     2   --> G_3            
     e( 11 - 12) =    -32.20746  eV     2   --> G_4            
     e( 13 - 14) =    -32.11578  eV     2   --> G_3            
     e( 13 - 14) =    -32.11578  eV     2   --> G_4            
     e( 15 - 16) =    -32.10806  eV     2   --> G_3            
     e( 15 - 16) =    -32.10806  eV     2   --> G_4            
     e( 17 - 18) =    -11.39808  eV     2   --> G_3            
     e( 17 - 18) =    -11.39808  eV     2   --> G_4            
     e( 19 - 20) =    -11.27237  eV     2   --> G_3            
     e( 19 - 20) =    -11.27237  eV     2   --> G_4            
     e( 21 - 22) =    -10.59448  eV     2   --> G_3            
     e( 21 - 22) =    -10.59448  eV     2   --> G_4            
     e( 23 - 24) =    -10.43746  eV     2   --> G_3            
     e( 23 - 24) =    -10.43746  eV     2   --> G_4            
     e( 25 - 26) =     -3.22021  eV     2   --> G_3            
     e( 25 - 26) =     -3.22021  eV     2   --> G_4            
     e( 27 - 28) =     -2.80169  eV     2   --> G_3            
     e( 27 - 28) =     -2.80169  eV     2   --> G_4            
     e( 29 - 30) =     -1.84779  eV     2   --> G_3            
     e( 29 - 30) =     -1.84779  eV     2   --> G_4            
     e( 31 - 32) =     -1.79552  eV     2   --> G_3            
     e( 31 - 32) =     -1.79552  eV     2   --> G_4            
     e( 33 - 34) =     -1.52856  eV     2   --> G_3            
     e( 33 - 34) =     -1.52856  eV     2   --> G_4            
     e( 35 - 36) =     -1.24865  eV     2   --> G_3            
     e( 35 - 36) =     -1.24865  eV     2   --> G_4            
     e( 37 - 38) =     -1.01980  eV     2   --> G_3            
     e( 37 - 38) =     -1.01980  eV     2   --> G_4            
     e( 39 - 40) =     -0.85547  eV     2   --> G_3            
     e( 39 - 40) =     -0.85547  eV     2   --> G_4            
     e( 41 - 42) =      0.01283  eV     2   --> G_3            
     e( 41 - 42) =      0.01283  eV     2   --> G_4            
     e( 43 - 44) =      0.07311  eV     2   --> G_3            
     e( 43 - 44) =      0.07311  eV     2   --> G_4            
     e( 45 - 46) =      0.89571  eV     2   --> G_3            
     e( 45 - 46) =      0.89571  eV     2   --> G_4            
     e( 47 - 48) =      1.09333  eV     2   --> G_3            
     e( 47 - 48) =      1.09333  eV     2   --> G_4            
     e( 49 - 50) =      1.26828  eV     2   --> G_3            
     e( 49 - 50) =      1.26828  eV     2   --> G_4            
     e( 51 - 52) =      1.31699  eV     2   --> G_3            
     e( 51 - 52) =      1.31699  eV     2   --> G_4            
     e( 53 - 54) =      3.76581  eV     2   --> G_3            
     e( 53 - 54) =      3.76581  eV     2   --> G_4            
     e( 55 - 56) =      4.12035  eV     2   --> G_3            
     e( 55 - 56) =      4.12035  eV     2   --> G_4            
     e( 57 - 58) =      4.36798  eV     2   --> G_3            
     e( 57 - 58) =      4.36798  eV     2   --> G_4            
     e( 59 - 60) =      4.44462  eV     2   --> G_3            
     e( 59 - 60) =      4.44462  eV     2   --> G_4            
     e( 61 - 62) =      4.52466  eV     2   --> G_3            
     e( 61 - 62) =      4.52466  eV     2   --> G_4            
     e( 63 - 64) =      4.81806  eV     2   --> G_3            
     e( 63 - 64) =      4.81806  eV     2   --> G_4            
     e( 65 - 66) =      5.86132  eV     2   --> G_3            
     e( 65 - 66) =      5.86132  eV     2   --> G_4            
     e( 67 - 68) =      6.03243  eV     2   --> G_3            
     e( 67 - 68) =      6.03243  eV     2   --> G_4            
     e( 69 - 70) =      8.61585  eV     2   --> G_3            
     e( 69 - 70) =      8.61585  eV     2   --> G_4            

 **************************************************************************

 **************************************************************************

                    xk=(  -0.15873,   0.27493,   0.00000  )

     Band symmetry, C_2  (2)    double point group:

     e(  1 -  4) =    -58.84443  eV     4   -->   2 G_3            
     e(  1 -  4) =    -58.84443  eV     4   -->   2 G_4            
     e(  5 -  6) =    -34.66082  eV     2   --> G_3            
     e(  5 -  6) =    -34.66082  eV     2   --> G_4            
     e(  7 -  8) =    -34.65404  eV     2   --> G_3            
     e(  7 -  8) =    -34.65404  eV     2   --> G_4            
     e(  9 - 10) =    -32.22108  eV     2   --> G_3            
     e(  9 - 10) =    -32.22108  eV     2   --> G_4            
     e( 11 - 12) =    -32.21931  eV     2   --> G_3            
     e( 11 - 12) =    -32.21931  eV     2   --> G_4            
     e( 13 - 14) =    -32.12820  eV     2   --> G_3            
     e( 13 - 14) =    -32.12820  eV     2   --> G_4            
     e( 15 - 16) =    -32.12022  eV     2   --> G_3            
     e( 15 - 16) =    -32.12022  eV     2   --> G_4            
     e( 17 - 18) =    -11.23264  eV     2   --> G_3            
     e( 17 - 18) =    -11.23264  eV     2   --> G_4            
     e( 19 - 20) =    -11.11084  eV     2   --> G_3            
     e( 19 - 20) =    -11.11084  eV     2   --> G_4            
     e( 21 - 22) =    -10.51909  eV     2   --> G_3            
     e( 21 - 22) =    -10.51909  eV     2   --> G_4            
     e( 23 - 24) =    -10.37428  eV     2   --> G_3            
     e( 23 - 24) =    -10.37428  eV     2   --> G_4            
     e( 25 - 26) =     -3.16838  eV     2   --> G_3            
     e( 25 - 26) =     -3.16838  eV     2   --> G_4            
     e( 27 - 28) =     -2.81486  eV     2   --> G_3            
     e( 27 - 28) =     -2.81486  eV     2   --> G_4            
     e( 29 - 30) =     -1.94123  eV     2   --> G_3            
     e( 29 - 30) =     -1.94123  eV     2   --> G_4            
     e( 31 - 32) =     -1.83836  eV     2   --> G_3            
     e( 31 - 32) =     -1.83836  eV     2   --> G_4            
     e( 33 - 34) =     -1.66447  eV     2   --> G_3            
     e( 33 - 34) =     -1.66447  eV     2   --> G_4            
     e( 35 - 36) =     -1.48847  eV     2   --> G_3            
     e( 35 - 36) =     -1.48847  eV     2   --> G_4            
     e( 37 - 38) =     -1.25053  eV     2   --> G_3            
     e( 37 - 38) =     -1.25053  eV     2   --> G_4            
     e( 39 - 40) =     -0.99802  eV     2   --> G_3            
     e( 39 - 40) =     -0.99802  eV     2   --> G_4            
     e( 41 - 42) =      0.00874  eV     2   --> G_3            
     e( 41 - 42) =      0.00874  eV     2   --> G_4            
     e( 43 - 44) =      0.08015  eV     2   --> G_3            
     e( 43 - 44) =      0.08015  eV     2   --> G_4            
     e( 45 - 46) =      0.87347  eV     2   --> G_3            
     e( 45 - 46) =      0.87347  eV     2   --> G_4            
     e( 47 - 48) =      1.00610  eV     2   --> G_3            
     e( 47 - 48) =      1.00610  eV     2   --> G_4            
     e( 49 - 50) =      1.16946  eV     2   --> G_3            
     e( 49 - 50) =      1.16946  eV     2   --> G_4            
     e( 51 - 52) =      1.23355  eV     2   --> G_3            
     e( 51 - 52) =      1.23355  eV     2   --> G_4            
     e( 53 - 54) =      3.69769  eV     2   --> G_3            
     e( 53 - 54) =      3.69769  eV     2   --> G_4            
     e( 55 - 56) =      4.07329  eV     2   --> G_3            
     e( 55 - 56) =      4.07329  eV     2   --> G_4            
     e( 57 - 58) =      4.37747  eV     2   --> G_3            
     e( 57 - 58) =      4.37747  eV     2   --> G_4            
     e( 59 - 60) =      4.48752  eV     2   --> G_3            
     e( 59 - 60) =      4.48752  eV     2   --> G_4            
     e( 61 - 62) =      4.56408  eV     2   --> G_3            
     e( 61 - 62) =      4.56408  eV     2   --> G_4            
     e( 63 - 64) =      4.89039  eV     2   --> G_3            
     e( 63 - 64) =      4.89039  eV     2   --> G_4            
     e( 65 - 66) =      5.99621  eV     2   --> G_3            
     e( 65 - 66) =      5.99621  eV     2   --> G_4            
     e( 67 - 68) =      6.20611  eV     2   --> G_3            
     e( 67 - 68) =      6.20611  eV     2   --> G_4            
     e( 69 - 70) =      8.86632  eV     2   --> G_3            
     e( 69 - 70) =      8.86632  eV     2   --> G_4            

 **************************************************************************

 **************************************************************************

                    xk=(  -0.17460,   0.30242,   0.00000  )

     Band symmetry, C_2  (2)    double point group:

     e(  1 -  4) =    -58.84103  eV     4   -->   2 G_3            
     e(  1 -  4) =    -58.84103  eV     4   -->   2 G_4            
     e(  5 -  6) =    -34.67160  eV     2   --> G_3            
     e(  5 -  6) =    -34.67160  eV     2   --> G_4            
     e(  7 -  8) =    -34.66302  eV     2   --> G_3            
     e(  7 -  8) =    -34.66302  eV     2   --> G_4            
     e(  9 - 10) =    -32.23629  eV     2   --> G_3            
     e(  9 - 10) =    -32.23629  eV     2   --> G_4            
     e( 11 - 12) =    -32.23146  eV     2   --> G_3            
     e( 11 - 12) =    -32.23146  eV     2   --> G_4            
     e( 13 - 14) =    -32.13860  eV     2   --> G_3            
     e( 13 - 14) =    -32.13860  eV     2   --> G_4            
     e( 15 - 16) =    -32.13113  eV     2   --> G_3            
     e( 15 - 16) =    -32.13113  eV     2   --> G_4            
     e( 17 - 18) =    -11.06278  eV     2   --> G_3            
     e( 17 - 18) =    -11.06278  eV     2   --> G_4            
     e( 19 - 20) =    -10.94573  eV     2   --> G_3            
     e( 19 - 20) =    -10.94573  eV     2   --> G_4            
     e( 21 - 22) =    -10.44139  eV     2   --> G_3            
     e( 21 - 22) =    -10.44139  eV     2   --> G_4            
     e( 23 - 24) =    -10.30972  eV     2   --> G_3            
     e( 23 - 24) =    -10.30972  eV     2   --> G_4            
     e( 25 - 26) =     -3.15922  eV     2   --> G_3            
     e( 25 - 26) =     -3.15922  eV     2   --> G_4            
     e( 27 - 28) =     -2.87564  eV     2   --> G_3            
     e( 27 - 28) =     -2.87564  eV     2   --> G_4            
     e( 29 - 30) =     -2.00996  eV     2   --> G_3            
     e( 29 - 30) =     -2.00996  eV     2   --> G_4            
     e( 31 - 32) =     -1.86918  eV     2   --> G_3            
     e( 31 - 32) =     -1.86918  eV     2   --> G_4            
     e( 33 - 34) =     -1.81895  eV     2   --> G_3            
     e( 33 - 34) =     -1.81895  eV     2   --> G_4            
     e( 35 - 36) =     -1.71075  eV     2   --> G_3            
     e( 35 - 36) =     -1.71075  eV     2   --> G_4            
     e( 37 - 38) =     -1.40140  eV     2   --> G_3            
     e( 37 - 38) =     -1.40140  eV     2   --> G_4            
     e( 39 - 40) =     -1.08760  eV     2   --> G_3            
     e( 39 - 40) =     -1.08760  eV     2   --> G_4            
     e( 41 - 42) =     -0.06734  eV     2   --> G_3            
     e( 41 - 42) =     -0.06734  eV     2   --> G_4            
     e( 43 - 44) =      0.00960  eV     2   --> G_3            
     e( 43 - 44) =      0.00960  eV     2   --> G_4            
     e( 45 - 46) =      0.82863  eV     2   --> G_3            
     e( 45 - 46) =      0.82863  eV     2   --> G_4            
     e( 47 - 48) =      0.89746  eV     2   --> G_3            
     e( 47 - 48) =      0.89746  eV     2   --> G_4            
     e( 49 - 50) =      1.12608  eV     2   --> G_3            
     e( 49 - 50) =      1.12608  eV     2   --> G_4            
     e( 51 - 52) =      1.20578  eV     2   --> G_3            
     e( 51 - 52) =      1.20578  eV     2   --> G_4            
     e( 53 - 54) =      3.67277  eV     2   --> G_3            
     e( 53 - 54) =      3.67277  eV     2   --> G_4            
     e( 55 - 56) =      4.06971  eV     2   --> G_3            
     e( 55 - 56) =      4.06971  eV     2   --> G_4            
     e( 57 - 58) =      4.41671  eV     2   --> G_3            
     e( 57 - 58) =      4.41671  eV     2   --> G_4            
     e( 59 - 60) =      4.53536  eV     2   --> G_3            
     e( 59 - 60) =      4.53536  eV     2   --> G_4            
     e( 61 - 62) =      4.62233  eV     2   --> G_3            
     e( 61 - 62) =      4.62233  eV     2   --> G_4            
     e( 63 - 64) =      4.96884  eV     2   --> G_3            
     e( 63 - 64) =      4.96884  eV     2   --> G_4            
     e( 65 - 66) =      6.10572  eV     2   --> G_3            
     e( 65 - 66) =      6.10572  eV     2   --> G_4            
     e( 67 - 68) =      6.35668  eV     2   --> G_3            
     e( 67 - 68) =      6.35668  eV     2   --> G_4            
     e( 69 - 70) =      9.13211  eV     2   --> G_3            
     e( 69 - 70) =      9.13211  eV     2   --> G_4            

 **************************************************************************

 **************************************************************************

                    xk=(  -0.19047,   0.32992,   0.00000  )

     Band symmetry, C_2  (2)    double point group:

     e(  1 -  4) =    -58.83777  eV     4   -->   2 G_3            
     e(  1 -  4) =    -58.83777  eV     4   -->   2 G_4            
     e(  5 -  6) =    -34.68209  eV     2   --> G_3            
     e(  5 -  6) =    -34.68209  eV     2   --> G_4            
     e(  7 -  8) =    -34.67156  eV     2   --> G_3            
     e(  7 -  8) =    -34.67156  eV     2   --> G_4            
     e(  9 - 10) =    -32.25204  eV     2   --> G_3            
     e(  9 - 10) =    -32.25204  eV     2   --> G_4            
     e( 11 - 12) =    -32.24333  eV     2   --> G_3            
     e( 11 - 12) =    -32.24333  eV     2   --> G_4            
     e( 13 - 14) =    -32.14742  eV     2   --> G_3            
     e( 13 - 14) =    -32.14742  eV     2   --> G_4            
     e( 15 - 16) =    -32.14112  eV     2   --> G_3            
     e( 15 - 16) =    -32.14112  eV     2   --> G_4            
     e( 17 - 18) =    -10.89255  eV     2   --> G_3            
     e( 17 - 18) =    -10.89255  eV     2   --> G_4            
     e( 19 - 20) =    -10.78111  eV     2   --> G_3            
     e( 19 - 20) =    -10.78111  eV     2   --> G_4            
     e( 21 - 22) =    -10.36304  eV     2   --> G_3            
     e( 21 - 22) =    -10.36304  eV     2   --> G_4            
     e( 23 - 24) =    -10.24530  eV     2   --> G_3            
     e( 23 - 24) =    -10.24530  eV     2   --> G_4            
     e( 25 - 26) =     -3.18334  eV     2   --> G_3            
     e( 25 - 26) =     -3.18334  eV     2   --> G_4            
     e( 27 - 28) =     -2.95728  eV     2   --> G_3            
     e( 27 - 28) =     -2.95728  eV     2   --> G_4            
     e( 29 - 30) =     -2.16348  eV     2   --> G_3            
     e( 29 - 30) =     -2.16348  eV     2   --> G_4            
     e( 31 - 32) =     -2.07006  eV     2   --> G_3            
     e( 31 - 32) =     -2.07006  eV     2   --> G_4            
     e( 33 - 34) =     -1.89314  eV     2   --> G_3            
     e( 33 - 34) =     -1.89314  eV     2   --> G_4            
     e( 35 - 36) =     -1.74098  eV     2   --> G_3            
     e( 35 - 36) =     -1.74098  eV     2   --> G_4            
     e( 37 - 38) =     -1.46686  eV     2   --> G_3            
     e( 37 - 38) =     -1.46686  eV     2   --> G_4            
     e( 39 - 40) =     -1.13639  eV     2   --> G_3            
     e( 39 - 40) =     -1.13639  eV     2   --> G_4            
     e( 41 - 42) =     -0.20605  eV     2   --> G_3            
     e( 41 - 42) =     -0.20605  eV     2   --> G_4            
     e( 43 - 44) =     -0.13012  eV     2   --> G_3            
     e( 43 - 44) =     -0.13012  eV     2   --> G_4            
     e( 45 - 46) =      0.75461  eV     2   --> G_3            
     e( 45 - 46) =      0.75461  eV     2   --> G_4            
     e( 47 - 48) =      0.78186  eV     2   --> G_3            
     e( 47 - 48) =      0.78186  eV     2   --> G_4            
     e( 49 - 50) =      1.13290  eV     2   --> G_3            
     e( 49 - 50) =      1.13290  eV     2   --> G_4            
     e( 51 - 52) =      1.22217  eV     2   --> G_3            
     e( 51 - 52) =      1.22217  eV     2   --> G_4            
     e( 53 - 54) =      3.69718  eV     2   --> G_3            
     e( 53 - 54) =      3.69718  eV     2   --> G_4            
     e( 55 - 56) =      4.11739  eV     2   --> G_3            
     e( 55 - 56) =      4.11739  eV     2   --> G_4            
     e( 57 - 58) =      4.47468  eV     2   --> G_3            
     e( 57 - 58) =      4.47468  eV     2   --> G_4            
     e( 59 - 60) =      4.57455  eV     2   --> G_3            
     e( 59 - 60) =      4.57455  eV     2   --> G_4            
     e( 61 - 62) =      4.69177  eV     2   --> G_3            
     e( 61 - 62) =      4.69177  eV     2   --> G_4            
     e( 63 - 64) =      5.05004  eV     2   --> G_3            
     e( 63 - 64) =      5.05004  eV     2   --> G_4            
     e( 65 - 66) =      6.18969  eV     2   --> G_3            
     e( 65 - 66) =      6.18969  eV     2   --> G_4            
     e( 67 - 68) =      6.48088  eV     2   --> G_3            
     e( 67 - 68) =      6.48088  eV     2   --> G_4            
     e( 69 - 70) =      9.40520  eV     2   --> G_3            
     e( 69 - 70) =      9.40520  eV     2   --> G_4            

 **************************************************************************

 **************************************************************************

                    xk=(  -0.20635,   0.35741,   0.00000  )

     Band symmetry, C_2  (2)    double point group:

     e(  1 -  4) =    -58.83472  eV     4   -->   2 G_3            
     e(  1 -  4) =    -58.83472  eV     4   -->   2 G_4            
     e(  5 -  6) =    -34.69198  eV     2   --> G_3            
     e(  5 -  6) =    -34.69198  eV     2   --> G_4            
     e(  7 -  8) =    -34.67942  eV     2   --> G_3            
     e(  7 -  8) =    -34.67942  eV     2   --> G_4            
     e(  9 - 10) =    -32.26729  eV     2   --> G_3            
     e(  9 - 10) =    -32.26729  eV     2   --> G_4            
     e( 11 - 12) =    -32.25408  eV     2   --> G_3            
     e( 11 - 12) =    -32.25408  eV     2   --> G_4            
     e( 13 - 14) =    -32.15517  eV     2   --> G_3            
     e( 13 - 14) =    -32.15517  eV     2   --> G_4            
     e( 15 - 16) =    -32.15051  eV     2   --> G_3            
     e( 15 - 16) =    -32.15051  eV     2   --> G_4            
     e( 17 - 18) =    -10.72637  eV     2   --> G_3            
     e( 17 - 18) =    -10.72637  eV     2   --> G_4            
     e( 19 - 20) =    -10.62133  eV     2   --> G_3            
     e( 19 - 20) =    -10.62133  eV     2   --> G_4            
     e( 21 - 22) =    -10.28582  eV     2   --> G_3            
     e( 21 - 22) =    -10.28582  eV     2   --> G_4            
     e( 23 - 24) =    -10.18266  eV     2   --> G_3            
     e( 23 - 24) =    -10.18266  eV     2   --> G_4            
     e( 25 - 26) =     -3.22070  eV     2   --> G_3            
     e( 25 - 26) =     -3.22070  eV     2   --> G_4            
     e( 27 - 28) =     -3.03516  eV     2   --> G_3            
     e( 27 - 28) =     -3.03516  eV     2   --> G_4            
     e( 29 - 30) =     -2.39522  eV     2   --> G_3            
     e( 29 - 30) =     -2.39522  eV     2   --> G_4            
     e( 31 - 32) =     -2.32480  eV     2   --> G_3            
     e( 31 - 32) =     -2.32480  eV     2   --> G_4            
     e( 33 - 34) =     -1.87687  eV     2   --> G_3            
     e( 33 - 34) =     -1.87687  eV     2   --> G_4            
     e( 35 - 36) =     -1.70850  eV     2   --> G_3            
     e( 35 - 36) =     -1.70850  eV     2   --> G_4            
     e( 37 - 38) =     -1.47726  eV     2   --> G_3            
     e( 37 - 38) =     -1.47726  eV     2   --> G_4            
     e( 39 - 40) =     -1.15460  eV     2   --> G_3            
     e( 39 - 40) =     -1.15460  eV     2   --> G_4            
     e( 41 - 42) =     -0.38755  eV     2   --> G_3            
     e( 41 - 42) =     -0.38755  eV     2   --> G_4            
     e( 43 - 44) =     -0.31346  eV     2   --> G_3            
     e( 43 - 44) =     -0.31346  eV     2   --> G_4            
     e( 45 - 46) =      0.62593  eV     2   --> G_3            
     e( 45 - 46) =      0.62593  eV     2   --> G_4            
     e( 47 - 48) =      0.68950  eV     2   --> G_3            
     e( 47 - 48) =      0.68950  eV     2   --> G_4            
     e( 49 - 50) =      1.17304  eV     2   --> G_3            
     e( 49 - 50) =      1.17304  eV     2   --> G_4            
     e( 51 - 52) =      1.26895  eV     2   --> G_3            
     e( 51 - 52) =      1.26895  eV     2   --> G_4            
     e( 53 - 54) =      3.76757  eV     2   --> G_3            
     e( 53 - 54) =      3.76757  eV     2   --> G_4            
     e( 55 - 56) =      4.20878  eV     2   --> G_3            
     e( 55 - 56) =      4.20878  eV     2   --> G_4            
     e( 57 - 58) =      4.54007  eV     2   --> G_3            
     e( 57 - 58) =      4.54007  eV     2   --> G_4            
     e( 59 - 60) =      4.59844  eV     2   --> G_3            
     e( 59 - 60) =      4.59844  eV     2   --> G_4            
     e( 61 - 62) =      4.76437  eV     2   --> G_3            
     e( 61 - 62) =      4.76437  eV     2   --> G_4            
     e( 63 - 64) =      5.13005  eV     2   --> G_3            
     e( 63 - 64) =      5.13005  eV     2   --> G_4            
     e( 65 - 66) =      6.25333  eV     2   --> G_3            
     e( 65 - 66) =      6.25333  eV     2   --> G_4            
     e( 67 - 68) =      6.57934  eV     2   --> G_3            
     e( 67 - 68) =      6.57934  eV     2   --> G_4            
     e( 69 - 70) =      9.66469  eV     2   --> G_3            
     e( 69 - 70) =      9.66469  eV     2   --> G_4            

 **************************************************************************

 **************************************************************************

                    xk=(  -0.22222,   0.38490,   0.00000  )

     Band symmetry, C_2  (2)    double point group:

     e(  1 -  4) =    -58.83194  eV     4   -->   2 G_3            
     e(  1 -  4) =    -58.83194  eV     4   -->   2 G_4            
     e(  5 -  6) =    -34.70105  eV     2   --> G_3            
     e(  5 -  6) =    -34.70105  eV     2   --> G_4            
     e(  7 -  8) =    -34.68643  eV     2   --> G_3            
     e(  7 -  8) =    -34.68643  eV     2   --> G_4            
     e(  9 - 10) =    -32.28125  eV     2   --> G_3            
     e(  9 - 10) =    -32.28125  eV     2   --> G_4            
     e( 11 - 12) =    -32.26314  eV     2   --> G_3            
     e( 11 - 12) =    -32.26314  eV     2   --> G_4            
     e( 13 - 14) =    -32.16224  eV     2   --> G_3            
     e( 13 - 14) =    -32.16224  eV     2   --> G_4            
     e( 15 - 16) =    -32.15962  eV     2   --> G_3            
     e( 15 - 16) =    -32.15962  eV     2   --> G_4            
     e( 17 - 18) =    -10.56890  eV     2   --> G_3            
     e( 17 - 18) =    -10.56890  eV     2   --> G_4            
     e( 19 - 20) =    -10.47089  eV     2   --> G_3            
     e( 19 - 20) =    -10.47089  eV     2   --> G_4            
     e( 21 - 22) =    -10.21162  eV     2   --> G_3            
     e( 21 - 22) =    -10.21162  eV     2   --> G_4            
     e( 23 - 24) =    -10.12352  eV     2   --> G_3            
     e( 23 - 24) =    -10.12352  eV     2   --> G_4            
     e( 25 - 26) =     -3.25144  eV     2   --> G_3            
     e( 25 - 26) =     -3.25144  eV     2   --> G_4            
     e( 27 - 28) =     -3.09269  eV     2   --> G_3            
     e( 27 - 28) =     -3.09269  eV     2   --> G_4            
     e( 29 - 30) =     -2.63094  eV     2   --> G_3            
     e( 29 - 30) =     -2.63094  eV     2   --> G_4            
     e( 31 - 32) =     -2.56797  eV     2   --> G_3            
     e( 31 - 32) =     -2.56797  eV     2   --> G_4            
     e( 33 - 34) =     -1.83658  eV     2   --> G_3            
     e( 33 - 34) =     -1.83658  eV     2   --> G_4            
     e( 35 - 36) =     -1.68364  eV     2   --> G_3            
     e( 35 - 36) =     -1.68364  eV     2   --> G_4            
     e( 37 - 38) =     -1.45660  eV     2   --> G_3            
     e( 37 - 38) =     -1.45660  eV     2   --> G_4            
     e( 39 - 40) =     -1.15104  eV     2   --> G_3            
     e( 39 - 40) =     -1.15104  eV     2   --> G_4            
     e( 41 - 42) =     -0.59764  eV     2   --> G_3            
     e( 41 - 42) =     -0.59764  eV     2   --> G_4            
     e( 43 - 44) =     -0.51525  eV     2   --> G_3            
     e( 43 - 44) =     -0.51525  eV     2   --> G_4            
     e( 45 - 46) =      0.47762  eV     2   --> G_3            
     e( 45 - 46) =      0.47762  eV     2   --> G_4            
     e( 47 - 48) =      0.59100  eV     2   --> G_3            
     e( 47 - 48) =      0.59100  eV     2   --> G_4            
     e( 49 - 50) =      1.23674  eV     2   --> G_3            
     e( 49 - 50) =      1.23674  eV     2   --> G_4            
     e( 51 - 52) =      1.33948  eV     2   --> G_3            
     e( 51 - 52) =      1.33948  eV     2   --> G_4            
     e( 53 - 54) =      3.86628  eV     2   --> G_3            
     e( 53 - 54) =      3.86628  eV     2   --> G_4            
     e( 55 - 56) =      4.30484  eV     2   --> G_3            
     e( 55 - 56) =      4.30484  eV     2   --> G_4            
     e( 57 - 58) =      4.59964  eV     2   --> G_3            
     e( 57 - 58) =      4.59964  eV     2   --> G_4            
     e( 59 - 60) =      4.63310  eV     2   --> G_3            
     e( 59 - 60) =      4.63310  eV     2   --> G_4            
     e( 61 - 62) =      4.83177  eV     2   --> G_3            
     e( 61 - 62) =      4.83177  eV     2   --> G_4            
     e( 63 - 64) =      5.20325  eV     2   --> G_3            
     e( 63 - 64) =      5.20325  eV     2   --> G_4            
     e( 65 - 66) =      6.30680  eV     2   --> G_3            
     e( 65 - 66) =      6.30680  eV     2   --> G_4            
     e( 67 - 68) =      6.65645  eV     2   --> G_3            
     e( 67 - 68) =      6.65645  eV     2   --> G_4            
     e( 69 - 70) =      9.77372  eV     2   --> G_3            
     e( 69 - 70) =      9.77372  eV     2   --> G_4            

 **************************************************************************

 **************************************************************************

                    xk=(  -0.23809,   0.41239,   0.00000  )

     Band symmetry, C_2  (2)    double point group:

     e(  1 -  4) =    -58.82951  eV     4   -->   2 G_3            
     e(  1 -  4) =    -58.82951  eV     4   -->   2 G_4            
     e(  5 -  6) =    -34.70908  eV     2   --> G_3            
     e(  5 -  6) =    -34.70908  eV     2   --> G_4            
     e(  7 -  8) =    -34.69244  eV     2   --> G_3            
     e(  7 -  8) =    -34.69244  eV     2   --> G_4            
     e(  9 - 10) =    -32.29335  eV     2   --> G_3            
     e(  9 - 10) =    -32.29335  eV     2   --> G_4            
     e( 11 - 12) =    -32.27008  eV     2   --> G_3            
     e( 11 - 12) =    -32.27008  eV     2   --> G_4            
     e( 13 - 14) =    -32.16883  eV     2   --> G_3            
     e( 13 - 14) =    -32.16883  eV     2   --> G_4            
     e( 15 - 16) =    -32.16859  eV     2   --> G_3            
     e( 15 - 16) =    -32.16859  eV     2   --> G_4            
     e( 17 - 18) =    -10.42482  eV     2   --> G_3            
     e( 17 - 18) =    -10.42482  eV     2   --> G_4            
     e( 19 - 20) =    -10.33420  eV     2   --> G_3            
     e( 19 - 20) =    -10.33420  eV     2   --> G_4            
     e( 21 - 22) =    -10.14237  eV     2   --> G_3            
     e( 21 - 22) =    -10.14237  eV     2   --> G_4            
     e( 23 - 24) =    -10.06963  eV     2   --> G_3            
     e( 23 - 24) =    -10.06963  eV     2   --> G_4            
     e( 25 - 26) =     -3.26094  eV     2   --> G_3            
     e( 25 - 26) =     -3.26094  eV     2   --> G_4            
     e( 27 - 28) =     -3.11941  eV     2   --> G_3            
     e( 27 - 28) =     -3.11941  eV     2   --> G_4            
     e( 29 - 30) =     -2.84900  eV     2   --> G_3            
     e( 29 - 30) =     -2.84900  eV     2   --> G_4            
     e( 31 - 32) =     -2.78810  eV     2   --> G_3            
     e( 31 - 32) =     -2.78810  eV     2   --> G_4            
     e( 33 - 34) =     -1.78975  eV     2   --> G_3            
     e( 33 - 34) =     -1.78975  eV     2   --> G_4            
     e( 35 - 36) =     -1.67839  eV     2   --> G_3            
     e( 35 - 36) =     -1.67839  eV     2   --> G_4            
     e( 37 - 38) =     -1.42044  eV     2   --> G_3            
     e( 37 - 38) =     -1.42044  eV     2   --> G_4            
     e( 39 - 40) =     -1.13425  eV     2   --> G_3            
     e( 39 - 40) =     -1.13425  eV     2   --> G_4            
     e( 41 - 42) =     -0.82577  eV     2   --> G_3            
     e( 41 - 42) =     -0.82577  eV     2   --> G_4            
     e( 43 - 44) =     -0.71729  eV     2   --> G_3            
     e( 43 - 44) =     -0.71729  eV     2   --> G_4            
     e( 45 - 46) =      0.32301  eV     2   --> G_3            
     e( 45 - 46) =      0.32301  eV     2   --> G_4            
     e( 47 - 48) =      0.48061  eV     2   --> G_3            
     e( 47 - 48) =      0.48061  eV     2   --> G_4            
     e( 49 - 50) =      1.32165  eV     2   --> G_3            
     e( 49 - 50) =      1.32165  eV     2   --> G_4            
     e( 51 - 52) =      1.43292  eV     2   --> G_3            
     e( 51 - 52) =      1.43292  eV     2   --> G_4            
     e( 53 - 54) =      3.95868  eV     2   --> G_3            
     e( 53 - 54) =      3.95868  eV     2   --> G_4            
     e( 55 - 56) =      4.32355  eV     2   --> G_3            
     e( 55 - 56) =      4.32355  eV     2   --> G_4            
     e( 57 - 58) =      4.65334  eV     2   --> G_3            
     e( 57 - 58) =      4.65334  eV     2   --> G_4            
     e( 59 - 60) =      4.74233  eV     2   --> G_3            
     e( 59 - 60) =      4.74233  eV     2   --> G_4            
     e( 61 - 62) =      4.89033  eV     2   --> G_3            
     e( 61 - 62) =      4.89033  eV     2   --> G_4            
     e( 63 - 64) =      5.26306  eV     2   --> G_3            
     e( 63 - 64) =      5.26306  eV     2   --> G_4            
     e( 65 - 66) =      6.36254  eV     2   --> G_3            
     e( 65 - 66) =      6.36254  eV     2   --> G_4            
     e( 67 - 68) =      6.71880  eV     2   --> G_3            
     e( 67 - 68) =      6.71880  eV     2   --> G_4            
     e( 69 - 70) =      9.58541  eV     2   --> G_3            
     e( 69 - 70) =      9.58541  eV     2   --> G_4            

 **************************************************************************

 **************************************************************************

                    xk=(  -0.25397,   0.43989,   0.00000  )

     Band symmetry, C_2  (2)    double point group:

     e(  1 -  4) =    -58.82744  eV     4   -->   2 G_3            
     e(  1 -  4) =    -58.82744  eV     4   -->   2 G_4            
     e(  5 -  6) =    -34.71590  eV     2   --> G_3            
     e(  5 -  6) =    -34.71590  eV     2   --> G_4            
     e(  7 -  8) =    -34.69737  eV     2   --> G_3            
     e(  7 -  8) =    -34.69737  eV     2   --> G_4            
     e(  9 - 10) =    -32.30323  eV     2   --> G_3            
     e(  9 - 10) =    -32.30323  eV     2   --> G_4            
     e( 11 - 12) =    -32.27463  eV     2   --> G_3            
     e( 11 - 12) =    -32.27463  eV     2   --> G_4            
     e( 13 - 14) =    -32.17749  eV     2   --> G_3            
     e( 13 - 14) =    -32.17749  eV     2   --> G_4            
     e( 15 - 16) =    -32.17503  eV     2   --> G_3            
     e( 15 - 16) =    -32.17503  eV     2   --> G_4            
     e( 17 - 18) =    -10.29840  eV     2   --> G_3            
     e( 17 - 18) =    -10.29840  eV     2   --> G_4            
     e( 19 - 20) =    -10.21522  eV     2   --> G_3            
     e( 19 - 20) =    -10.21522  eV     2   --> G_4            
     e( 21 - 22) =    -10.08000  eV     2   --> G_3            
     e( 21 - 22) =    -10.08000  eV     2   --> G_4            
     e( 23 - 24) =    -10.02268  eV     2   --> G_3            
     e( 23 - 24) =    -10.02268  eV     2   --> G_4            
     e( 25 - 26) =     -3.24144  eV     2   --> G_3            
     e( 25 - 26) =     -3.24144  eV     2   --> G_4            
     e( 27 - 28) =     -3.10968  eV     2   --> G_3            
     e( 27 - 28) =     -3.10968  eV     2   --> G_4            
     e( 29 - 30) =     -3.03802  eV     2   --> G_3            
     e( 29 - 30) =     -3.03802  eV     2   --> G_4            
     e( 31 - 32) =     -2.97860  eV     2   --> G_3            
     e( 31 - 32) =     -2.97860  eV     2   --> G_4            
     e( 33 - 34) =     -1.74433  eV     2   --> G_3            
     e( 33 - 34) =     -1.74433  eV     2   --> G_4            
     e( 35 - 36) =     -1.69791  eV     2   --> G_3            
[...]
     e( 55 - 56) =      4.54811  eV     2   --> G_3            
     e( 55 - 56) =      4.54811  eV     2   --> G_4            
     e( 57 - 58) =      4.57564  eV     2   --> G_3            
     e( 57 - 58) =      4.57564  eV     2   --> G_4            
     e( 59 - 60) =      4.68843  eV     2   --> G_3            
     e( 59 - 60) =      4.68843  eV     2   --> G_4            
     e( 61 - 62) =      4.72704  eV     2   --> G_3            
     e( 61 - 62) =      4.72704  eV     2   --> G_4            
     e( 63 - 64) =      4.82869  eV     2   --> G_3            
     e( 63 - 64) =      4.82869  eV     2   --> G_4            
     e( 65 - 66) =      5.04240  eV     2   --> G_3            
     e( 65 - 66) =      5.04240  eV     2   --> G_4            
     e( 67 - 68) =      5.07882  eV     2   --> G_3            
     e( 67 - 68) =      5.07882  eV     2   --> G_4            
     e( 69 - 70) =      7.69646  eV     2   --> G_3            
     e( 69 - 70) =      7.69646  eV     2   --> G_4            

 **************************************************************************

 **************************************************************************

                    xk=(   0.00000,   0.09623,   0.00000  )

     Band symmetry, C_s (m)     double point group:

     e(  1 -  4) =    -58.86466  eV     4   -->   2 G_3            
     e(  1 -  4) =    -58.86466  eV     4   -->   2 G_4            
     e(  5 -  8) =    -34.60064  eV     4   -->   2 G_3            
     e(  5 -  8) =    -34.60064  eV     4   -->   2 G_4            
     e(  9 - 12) =    -32.17003  eV     4   -->   2 G_3            
     e(  9 - 12) =    -32.17003  eV     4   -->   2 G_4            
     e( 13 - 16) =    -32.02414  eV     4   -->   2 G_3            
     e( 13 - 16) =    -32.02414  eV     4   -->   2 G_4            
     e( 17 - 18) =    -12.12264  eV     2   --> G_3            
     e( 17 - 18) =    -12.12264  eV     2   --> G_4            
     e( 19 - 20) =    -11.98667  eV     2   --> G_3            
     e( 19 - 20) =    -11.98667  eV     2   --> G_4            
     e( 21 - 22) =    -10.92333  eV     2   --> G_3            
     e( 21 - 22) =    -10.92333  eV     2   --> G_4            
     e( 23 - 24) =    -10.71765  eV     2   --> G_3            
     e( 23 - 24) =    -10.71765  eV     2   --> G_4            
     e( 25 - 26) =     -3.83528  eV     2   --> G_3            
     e( 25 - 26) =     -3.83528  eV     2   --> G_4            
     e( 27 - 28) =     -3.32243  eV     2   --> G_3            
     e( 27 - 28) =     -3.32243  eV     2   --> G_4            
     e( 29 - 30) =     -0.84800  eV     2   --> G_3            
     e( 29 - 30) =     -0.84800  eV     2   --> G_4            
     e( 31 - 32) =     -0.83720  eV     2   --> G_3            
     e( 31 - 32) =     -0.83720  eV     2   --> G_4            
     e( 33 - 34) =     -0.65728  eV     2   --> G_3            
     e( 33 - 34) =     -0.65728  eV     2   --> G_4            
     e( 35 - 36) =     -0.49796  eV     2   --> G_3            
     e( 35 - 36) =     -0.49796  eV     2   --> G_4            
     e( 37 - 38) =     -0.48835  eV     2   --> G_3            
     e( 37 - 38) =     -0.48835  eV     2   --> G_4            
     e( 39 - 40) =     -0.06250  eV     2   --> G_3            
     e( 39 - 40) =     -0.06250  eV     2   --> G_4            
     e( 41 - 42) =      0.32449  eV     2   --> G_3            
     e( 41 - 42) =      0.32449  eV     2   --> G_4            
     e( 43 - 44) =      0.34498  eV     2   --> G_3            
     e( 43 - 44) =      0.34498  eV     2   --> G_4            
     e( 45 - 46) =      0.65450  eV     2   --> G_3            
     e( 45 - 46) =      0.65450  eV     2   --> G_4            
     e( 47 - 48) =      1.02781  eV     2   --> G_3            
     e( 47 - 48) =      1.02781  eV     2   --> G_4            
     e( 49 - 50) =      1.72764  eV     2   --> G_3            
     e( 49 - 50) =      1.72764  eV     2   --> G_4            
     e( 51 - 52) =      2.25899  eV     2   --> G_3            
     e( 51 - 52) =      2.25899  eV     2   --> G_4            
     e( 53 - 54) =      4.60330  eV     2   --> G_3            
     e( 53 - 54) =      4.60330  eV     2   --> G_4            
     e( 55 - 56) =      4.62055  eV     2   --> G_3            
     e( 55 - 56) =      4.62055  eV     2   --> G_4            
     e( 57 - 58) =      4.70632  eV     2   --> G_3            
     e( 57 - 58) =      4.70632  eV     2   --> G_4            
     e( 59 - 60) =      4.75535  eV     2   --> G_3            
     e( 59 - 60) =      4.75535  eV     2   --> G_4            
     e( 61 - 62) =      4.79875  eV     2   --> G_3            
     e( 61 - 62) =      4.79875  eV     2   --> G_4            
     e( 63 - 64) =      4.89479  eV     2   --> G_3            
     e( 63 - 64) =      4.89479  eV     2   --> G_4            
     e( 65 - 66) =      4.93895  eV     2   --> G_3            
     e( 65 - 66) =      4.93895  eV     2   --> G_4            
     e( 67 - 68) =      4.96527  eV     2   --> G_3            
     e( 67 - 68) =      4.96527  eV     2   --> G_4            
     e( 69 - 70) =      7.58371  eV     2   --> G_3            
     e( 69 - 70) =      7.58371  eV     2   --> G_4            

 **************************************************************************

 **************************************************************************

                    xk=(   0.00000,   0.06415,   0.00000  )

     Band symmetry, C_s (m)     double point group:

     e(  1 -  4) =    -58.86611  eV     4   -->   2 G_3            
     e(  1 -  4) =    -58.86611  eV     4   -->   2 G_4            
     e(  5 -  8) =    -34.59679  eV     4   -->   2 G_3            
     e(  5 -  8) =    -34.59679  eV     4   -->   2 G_4            
     e(  9 - 12) =    -32.16829  eV     4   -->   2 G_3            
     e(  9 - 12) =    -32.16829  eV     4   -->   2 G_4            
     e( 13 - 16) =    -32.01475  eV     4   -->   2 G_3            
     e( 13 - 16) =    -32.01475  eV     4   -->   2 G_4            
     e( 17 - 18) =    -12.18008  eV     2   --> G_3            
     e( 17 - 18) =    -12.18008  eV     2   --> G_4            
     e( 19 - 20) =    -12.04369  eV     2   --> G_3            
     e( 19 - 20) =    -12.04369  eV     2   --> G_4            
     e( 21 - 22) =    -10.94936  eV     2   --> G_3            
     e( 21 - 22) =    -10.94936  eV     2   --> G_4            
     e( 23 - 24) =    -10.74009  eV     2   --> G_3            
     e( 23 - 24) =    -10.74009  eV     2   --> G_4            
     e( 25 - 26) =     -3.89986  eV     2   --> G_3            
     e( 25 - 26) =     -3.89986  eV     2   --> G_4            
     e( 27 - 28) =     -3.38629  eV     2   --> G_3            
     e( 27 - 28) =     -3.38629  eV     2   --> G_4            
     e( 29 - 30) =     -0.72464  eV     2   --> G_3            
     e( 29 - 30) =     -0.72464  eV     2   --> G_4            
     e( 31 - 32) =     -0.71615  eV     2   --> G_3            
     e( 31 - 32) =     -0.71615  eV     2   --> G_4            
     e( 33 - 34) =     -0.56691  eV     2   --> G_3            
     e( 33 - 34) =     -0.56691  eV     2   --> G_4            
     e( 35 - 36) =     -0.54808  eV     2   --> G_3            
     e( 35 - 36) =     -0.54808  eV     2   --> G_4            
     e( 37 - 38) =     -0.49906  eV     2   --> G_3            
     e( 37 - 38) =     -0.49906  eV     2   --> G_4            
     e( 39 - 40) =      0.15361  eV     2   --> G_3            
     e( 39 - 40) =      0.15361  eV     2   --> G_4            
     e( 41 - 42) =      0.41544  eV     2   --> G_3            
     e( 41 - 42) =      0.41544  eV     2   --> G_4            
     e( 43 - 44) =      0.42840  eV     2   --> G_3            
     e( 43 - 44) =      0.42840  eV     2   --> G_4            
     e( 45 - 46) =      0.59932  eV     2   --> G_3            
     e( 45 - 46) =      0.59932  eV     2   --> G_4            
     e( 47 - 48) =      0.91839  eV     2   --> G_3            
     e( 47 - 48) =      0.91839  eV     2   --> G_4            
     e( 49 - 50) =      1.74097  eV     2   --> G_3            
     e( 49 - 50) =      1.74097  eV     2   --> G_4            
     e( 51 - 52) =      2.33747  eV     2   --> G_3            
     e( 51 - 52) =      2.33747  eV     2   --> G_4            
     e( 53 - 54) =      4.66502  eV     2   --> G_3            
     e( 53 - 54) =      4.66502  eV     2   --> G_4            
     e( 55 - 56) =      4.67298  eV     2   --> G_3            
     e( 55 - 56) =      4.67298  eV     2   --> G_4            
     e( 57 - 58) =      4.79556  eV     2   --> G_3            
     e( 57 - 58) =      4.79556  eV     2   --> G_4            
     e( 59 - 60) =      4.82930  eV     2   --> G_3            
     e( 59 - 60) =      4.82930  eV     2   --> G_4            
     e( 61 - 62) =      4.85321  eV     2   --> G_3            
     e( 61 - 62) =      4.85321  eV     2   --> G_4            
     e( 63 - 64) =      4.88618  eV     2   --> G_3            
     e( 63 - 64) =      4.88618  eV     2   --> G_4            
     e( 65 - 66) =      4.90919  eV     2   --> G_3            
     e( 65 - 66) =      4.90919  eV     2   --> G_4            
     e( 67 - 68) =      4.97500  eV     2   --> G_3            
     e( 67 - 68) =      4.97500  eV     2   --> G_4            
     e( 69 - 70) =      7.49736  eV     2   --> G_3            
     e( 69 - 70) =      7.49736  eV     2   --> G_4            

 **************************************************************************

 **************************************************************************

                    xk=(   0.00000,   0.03208,   0.00000  )

     Band symmetry, C_s (m)     double point group:

     e(  1 -  4) =    -58.86699  eV     4   -->   2 G_3            
     e(  1 -  4) =    -58.86699  eV     4   -->   2 G_4            
     e(  5 -  8) =    -34.59441  eV     4   -->   2 G_3            
     e(  5 -  8) =    -34.59441  eV     4   -->   2 G_4            
     e(  9 - 10) =    -32.16727  eV     2   --> G_3            
     e(  9 - 10) =    -32.16727  eV     2   --> G_4            
     e( 11 - 12) =    -32.16716  eV     2   --> G_3            
     e( 11 - 12) =    -32.16716  eV     2   --> G_4            
     e( 13 - 16) =    -32.00884  eV     4   -->   2 G_3            
     e( 13 - 16) =    -32.00884  eV     4   -->   2 G_4            
     e( 17 - 18) =    -12.21492  eV     2   --> G_3            
     e( 17 - 18) =    -12.21492  eV     2   --> G_4            
     e( 19 - 20) =    -12.07831  eV     2   --> G_3            
     e( 19 - 20) =    -12.07831  eV     2   --> G_4            
     e( 21 - 22) =    -10.96515  eV     2   --> G_3            
     e( 21 - 22) =    -10.96515  eV     2   --> G_4            
     e( 23 - 24) =    -10.75371  eV     2   --> G_3            
     e( 23 - 24) =    -10.75371  eV     2   --> G_4            
     e( 25 - 26) =     -3.93973  eV     2   --> G_3            
     e( 25 - 26) =     -3.93973  eV     2   --> G_4            
     e( 27 - 28) =     -3.42592  eV     2   --> G_3            
     e( 27 - 28) =     -3.42592  eV     2   --> G_4            
     e( 29 - 30) =     -0.65531  eV     2   --> G_3            
     e( 29 - 30) =     -0.65531  eV     2   --> G_4            
     e( 31 - 32) =     -0.64873  eV     2   --> G_3            
     e( 31 - 32) =     -0.64873  eV     2   --> G_4            
     e( 33 - 34) =     -0.58376  eV     2   --> G_3            
     e( 33 - 34) =     -0.58376  eV     2   --> G_4            
     e( 35 - 36) =     -0.57160  eV     2   --> G_3            
     e( 35 - 36) =     -0.57160  eV     2   --> G_4            
     e( 37 - 38) =     -0.40619  eV     2   --> G_3            
     e( 37 - 38) =     -0.40619  eV     2   --> G_4            
     e( 39 - 40) =      0.34877  eV     2   --> G_3            
     e( 39 - 40) =      0.34877  eV     2   --> G_4            
     e( 41 - 42) =      0.46794  eV     2   --> G_3            
     e( 41 - 42) =      0.46794  eV     2   --> G_4            
     e( 43 - 44) =      0.47965  eV     2   --> G_3            
     e( 43 - 44) =      0.47965  eV     2   --> G_4            
     e( 45 - 46) =      0.56029  eV     2   --> G_3            
     e( 45 - 46) =      0.56029  eV     2   --> G_4            
     e( 47 - 48) =      0.77904  eV     2   --> G_3            
     e( 47 - 48) =      0.77904  eV     2   --> G_4            
     e( 49 - 50) =      1.74629  eV     2   --> G_3            
     e( 49 - 50) =      1.74629  eV     2   --> G_4            
     e( 51 - 52) =      2.38197  eV     2   --> G_3            
     e( 51 - 52) =      2.38197  eV     2   --> G_4            
     e( 53 - 54) =      4.69214  eV     2   --> G_3            
     e( 53 - 54) =      4.69214  eV     2   --> G_4            
     e( 55 - 56) =      4.70849  eV     2   --> G_3            
     e( 55 - 56) =      4.70849  eV     2   --> G_4            
     e( 57 - 58) =      4.77217  eV     2   --> G_3            
     e( 57 - 58) =      4.77217  eV     2   --> G_4            
     e( 59 - 60) =      4.79654  eV     2   --> G_3            
     e( 59 - 60) =      4.79654  eV     2   --> G_4            
     e( 61 - 62) =      4.91885  eV     2   --> G_3            
     e( 61 - 62) =      4.91885  eV     2   --> G_4            
     e( 63 - 64) =      4.93413  eV     2   --> G_3            
     e( 63 - 64) =      4.93413  eV     2   --> G_4            
     e( 65 - 66) =      4.98374  eV     2   --> G_3            
     e( 65 - 66) =      4.98374  eV     2   --> G_4            
     e( 67 - 68) =      5.00970  eV     2   --> G_3            
     e( 67 - 68) =      5.00970  eV     2   --> G_4            
     e( 69 - 70) =      7.44125  eV     2   --> G_3            
     e( 69 - 70) =      7.44125  eV     2   --> G_4            

 **************************************************************************

 **************************************************************************

                    xk=(   0.00000,   0.00000,   0.00000  )

     double point group D_3d (-3m) 
     there are 12 classes and  6 irreducible representations
     the character table:

       E     -E    2C3   -2C3  3C2'  -3C2' i     -i    2S6   -2S6  3s_v  -3s_v
                                                                              
G_4+   2.00 -2.00  1.00 -1.00  0.00  0.00  2.00 -2.00  1.00 -1.00  0.00  0.00
G_5+   1.00 -1.00 -1.00  1.00  0.00  0.00  1.00 -1.00 -1.00  1.00  0.00  0.00
G_6+   1.00 -1.00 -1.00  1.00  0.00  0.00  1.00 -1.00 -1.00  1.00  0.00  0.00
G_4-   2.00 -2.00  1.00 -1.00  0.00  0.00 -2.00  2.00 -1.00  1.00  0.00  0.00
G_5-   1.00 -1.00 -1.00  1.00  0.00  0.00 -1.00  1.00  1.00 -1.00  0.00  0.00
G_6-   1.00 -1.00 -1.00  1.00  0.00  0.00 -1.00  1.00  1.00 -1.00  0.00  0.00

     imaginary part

       E     -E    2C3   -2C3  3C2'  -3C2' i     -i    2S6   -2S6  3s_v  -3s_v
                                                                              
G_4+   0.00  0.00  0.00  0.00  0.00  0.00  0.00  0.00  0.00  0.00  0.00  0.00
G_5+   0.00  0.00  0.00  0.00  1.00 -1.00  0.00  0.00  0.00  0.00  1.00 -1.00
G_6+   0.00  0.00  0.00  0.00 -1.00  1.00  0.00  0.00  0.00  0.00 -1.00  1.00
G_4-   0.00  0.00  0.00  0.00  0.00  0.00  0.00  0.00  0.00  0.00  0.00  0.00
G_5-   0.00  0.00  0.00  0.00  1.00 -1.00  0.00  0.00  0.00  0.00 -1.00  1.00
G_6-   0.00  0.00  0.00  0.00 -1.00  1.00  0.00  0.00  0.00  0.00  1.00 -1.00

     the symmetry operations in each class and the name of the first element:

     E             1
                                                                 
     -E           -1
                                                                 
     2C3           3    4
                                                                 
     -2C3         -3   -4
                                                                 
     3C2'          5    6   -2
                                                                 
     -3C2'         2   -5   -6
                                                                 
     i             7
                                                                 
     -i           -7
                                                                 
     2S6           9   10
                                                                 
     -2S6         -9  -10
                                                                 
     3s_v         11   12   -8
                                                                 
     -3s_v         8  -11  -12
                                                                 

     Band symmetry, D_3d (-3m)  double point group:

     e(  1 -  4) =    -58.86729  eV     4   --> G_4+  L_6+     
     e(  1 -  4) =    -58.86729  eV     4   --> G_4-  L_6-     
     e(  5 -  6) =    -34.59365  eV     2   --> G_4+  L_6+     
     e(  7 -  8) =    -34.59355  eV     2   --> G_4-  L_6-     
     e(  9 - 10) =    -32.16699  eV     2   --> G_4+  L_6+     
     e( 11 - 12) =    -32.16685  eV     2   --> G_4-  L_6-     
     e( 13 - 16) =    -32.00688  eV     4   --> G_5+  L_4+     
     e( 13 - 16) =    -32.00688  eV     4   --> G_6+  L_5+     
     e( 13 - 16) =    -32.00688  eV     4   --> G_5-  L_4-     
     e( 13 - 16) =    -32.00688  eV     4   --> G_6-  L_5-     
     e( 17 - 18) =    -12.22660  eV     2   --> G_4+  L_6+     
     e( 19 - 20) =    -12.08992  eV     2   --> G_4-  L_6-     
     e( 21 - 22) =    -10.97044  eV     2   --> G_4+  L_6+     
     e( 23 - 24) =    -10.75828  eV     2   --> G_4-  L_6-     
     e( 25 - 26) =     -3.95320  eV     2   --> G_4+  L_6+     
     e( 27 - 28) =     -3.43933  eV     2   --> G_4-  L_6-     
     e( 29 - 30) =     -0.64192  eV     2   --> G_5+  L_4+     
     e( 29 - 30) =     -0.64192  eV     2   --> G_6+  L_5+     
     e( 31 - 32) =     -0.63576  eV     2   --> G_5-  L_4-     
     e( 31 - 32) =     -0.63576  eV     2   --> G_6-  L_5-     
     e( 33 - 34) =     -0.58100  eV     2   --> G_4+  L_6+     
     e( 35 - 36) =     -0.56927  eV     2   --> G_4-  L_6-     
     e( 37 - 38) =     -0.36877  eV     2   --> G_4+  L_6+     
     e( 39 - 40) =      0.44674  eV     2   --> G_4+  L_6+     
     e( 41 - 42) =      0.46842  eV     2   --> G_4-  L_6-     
     e( 43 - 44) =      0.53166  eV     2   --> G_5+  L_4+     
     e( 43 - 44) =      0.53166  eV     2   --> G_6+  L_5+     
     e( 45 - 46) =      0.55459  eV     2   --> G_5-  L_4-     
     e( 45 - 46) =      0.55459  eV     2   --> G_6-  L_5-     
     e( 47 - 48) =      0.67039  eV     2   --> G_4-  L_6-     
     e( 49 - 50) =      1.74760  eV     2   --> G_4+  L_6+     
     e( 51 - 52) =      2.39628  eV     2   --> G_4-  L_6-     
     e( 53 - 54) =      4.69336  eV     2   --> G_4+  L_6+     
     e( 55 - 56) =      4.71225  eV     2   --> G_4-  L_6-     
     e( 57 - 58) =      4.76838  eV     2   --> G_5+  L_4+     
     e( 57 - 58) =      4.76838  eV     2   --> G_6+  L_5+     
     e( 59 - 60) =      4.79196  eV     2   --> G_5-  L_4-     
     e( 59 - 60) =      4.79196  eV     2   --> G_6-  L_5-     
     e( 61 - 62) =      4.94309  eV     2   --> G_4+  L_6+     
     e( 63 - 64) =      4.94819  eV     2   --> G_5+  L_4+     
     e( 63 - 64) =      4.94819  eV     2   --> G_6+  L_5+     
     e( 65 - 66) =      5.02196  eV     2   -->   ?
     e( 67 - 68) =      5.02216  eV     2   -->   ?
     e( 69 - 70) =      7.42143  eV     2   --> G_4+  L_6+     

 **************************************************************************

     BANDS        :   2m16.56s CPU   2m19.61s WALL


   This run was terminated on:  14:21:45  18Apr2024            

=------------------------------------------------------------------------------=
   JOB DONE.
=------------------------------------------------------------------------------=
