
     Program BANDS v.7.2 starts on 18Apr2024 at 12:58:34 

     This program is part of the open-source Quantum ESPRESSO suite
     for quantum simulation of materials; please cite
         "P. Giannozzi et al., J. Phys.:Condens. Matter 21 395502 (2009);
         "P. Giannozzi et al., J. Phys.:Condens. Matter 29 465901 (2017);
         "P. Giannozzi et al., J. Chem. Phys. 152 154105 (2020);
          URL http://www.quantum-espresso.org", 
     in publications or presentations arising from this work. More details at
     http://www.quantum-espresso.org/quote

     Parallel version (MPI & OpenMP), running on       8 processor cores
     Number of MPI processes:                 8
     Threads/MPI process:                     1

     MPI processes distributed on     1 nodes
     R & G space division:  proc/nbgrp/npool/nimage =       8
     0 MiB available memory on the printing compute node when the environment starts


     Reading xml data from directory:

     ./tmp/MoS2_2L_pbe_vdW_nsoc.save/

     IMPORTANT: XC functional enforced from input :
     Exchange-correlation= VDW-DF2-B86R
                           (   1   4  26   0   2   0   0)
     Any further DFT definition will be discarded
     Please, verify this is what you really want


     Parallelization info
     --------------------
     sticks:   dense  smooth     PW     G-vecs:    dense   smooth      PW
     Min          85      85     24                14701    14701    2318
     Max          86      86     25                14726    14726    2353
     Sum         685     685    199               117747   117747   18769

     Using Slab Decomposition



     %%%%%%%%%%%%%%%%%%%%%%%%%%%%%%%%%%%%%%%%%%%%%%%%%%%%%%%%%%%%%%%%%%%%%%%%
     %                                                                      %
     % You are using vdW-DF, which was implemented by the Thonhauser group. %
     % Please cite the following two papers that made this development      %
     % possible and the two reviews that describe the various versions:     %
     %                                                                      %
     %   T. Thonhauser et al., PRL 115, 136402 (2015).                      %
     %   T. Thonhauser et al., PRB 76, 125112 (2007).                       %
     %   K. Berland et al., Rep. Prog. Phys. 78, 066501 (2015).             %
     %   D.C. Langreth et al., J. Phys.: Condens. Matter 21, 084203 (2009). %
     %                                                                      %
     % If you are calculating stress with vdW-DF, please also cite:         %
     %                                                                      %
     %   R. Sabatini et al., J. Phys.: Condens. Matter 24, 424209 (2012).   %
     %                                                                      %
     %%%%%%%%%%%%%%%%%%%%%%%%%%%%%%%%%%%%%%%%%%%%%%%%%%%%%%%%%%%%%%%%%%%%%%%%

     %%%%%%%%%%%%%%%%%%%%%%%%%%%%%%%%%%%%%%%%%%%%%%%%%%%%%%%%%%%%%%%%%%%%%%%%
     %                                                                      %
     %  vdW-DF NEWS:                                                        %
     %                                                                      %
     %  * vdW-DF3 is now available. DOI: 10.1021/acs.jctc.0c00471           %
     %    use with input_dft = 'vdW-DF3-opt1' or 'vdW-DF3-opt2'             %
     %                                                                      %
     %  * Unscreened and range-separated hybrid vdW-DF-cx functionals       %
     %    DOI: 10.1063/1.4986522 and 10.1088/1361-648X/ac2ad2               %
     %    use with input_dft = 'vdW-DF-cx0'    and 'vdW-DF-ahcx'            %
     %  * Unscreened and range-separated hybrid vdW-DF2-b86r functionals    %
     %    DOI: 10.1063/1.4986522 and DOI: 10.1103/PhysRevX.12.041003        %
     %    use with input_dft = 'vdW-DF2-br0' and 'vdW-DF2-ahbr'             %
     %                                                                      %
     %%%%%%%%%%%%%%%%%%%%%%%%%%%%%%%%%%%%%%%%%%%%%%%%%%%%%%%%%%%%%%%%%%%%%%%%


     Reading collected, re-writing distributed wavefunctions
     high-symmetry point:  0.0000 0.0000 0.0000   x coordinate   0.0000
     high-symmetry point: -0.3333 0.5774 0.0000   x coordinate   0.6667
     high-symmetry point:  0.0000 0.5774 0.0000   x coordinate   1.0000
     high-symmetry point:  0.0000 0.0000 0.0000   x coordinate   1.5773

     Plottable bands (eV) written to file Bande_MoS2_2L_pbe_vdW_nsoc.dat.gnu
     Bands written to file Bande_MoS2_2L_pbe_vdW_nsoc.dat

 **************************************************************************

                    xk=(   0.00000,   0.00000,   0.00000  )

     point group D_3d (-3m) 
     there are  6 classes
     the character table:

       E     2C3   3C2'  i     2S6   3s_d 
A_1g   1.00  1.00  1.00  1.00  1.00  1.00
A_2g   1.00  1.00 -1.00  1.00  1.00 -1.00
E_g    2.00 -1.00  0.00  2.00 -1.00  0.00
A_1u   1.00  1.00  1.00 -1.00 -1.00 -1.00
A_2u   1.00  1.00 -1.00 -1.00 -1.00  1.00
E_u    2.00 -1.00  0.00 -2.00  1.00  0.00

     the symmetry operations in each class and the name of the first element:

     E        1
                                                                 
     2C3      3    4
                                                                 
     3C2'     2    5    6
                                                                 
     i        7
                                                                 
     2S6      9   10
                                                                 
     3s_d     8   11   12
                                                                 

     Band symmetry, D_3d (-3m)  point group:

     e(  1 -  2) =    -58.98818  eV     2   --> A_1g L_1       
     e(  1 -  2) =    -58.98818  eV     2   --> A_2u L_2'      
     e(  3 -  3) =    -33.15101  eV     1   --> A_1g L_1       
     e(  4 -  4) =    -33.15084  eV     1   --> A_2u L_2'      
     e(  5 -  8) =    -32.92452  eV     4   --> E_g  L_3       
     e(  5 -  8) =    -32.92452  eV     4   --> E_u  L_3'      
     e(  9 -  9) =    -12.34436  eV     1   --> A_1g L_1       
     e( 10 - 10) =    -12.20491  eV     1   --> A_2u L_2'      
     e( 11 - 11) =    -11.09141  eV     1   --> A_1g L_1       
     e( 12 - 12) =    -10.87503  eV     1   --> A_2u L_2'      
     e( 13 - 13) =     -4.08153  eV     1   --> A_1g L_1       
     e( 14 - 14) =     -3.55484  eV     1   --> A_2u L_2'      
     e( 15 - 16) =     -0.74882  eV     2   --> E_g  L_3       
     e( 17 - 18) =     -0.74237  eV     2   --> E_u  L_3'      
     e( 19 - 19) =     -0.53562  eV     1   --> A_1g L_1       
     e( 20 - 21) =      0.35477  eV     2   --> E_g  L_3       
     e( 22 - 23) =      0.37771  eV     2   --> E_u  L_3'      
     e( 24 - 24) =      0.52280  eV     1   --> A_2u L_2'      
     e( 25 - 25) =      1.57697  eV     1   --> A_1g L_1       
     e( 26 - 26) =      2.25388  eV     1   --> A_2u L_2'      
     e( 27 - 28) =      4.60645  eV     2   --> E_g  L_3       
     e( 29 - 30) =      4.62589  eV     2   --> E_u  L_3'      
     e( 31 - 32) =      4.80418  eV     2   --> E_g  L_3       
     e( 33 - 34) =      4.88364  eV     2   --> E_u  L_3'      
     e( 35 - 35) =      7.11103  eV     1   --> A_1g L_1       
     e( 36 - 36) =      7.15749  eV     1   --> A_2u L_2'      
     e( 37 - 37) =      8.09758  eV     1   --> A_1g L_1       
     e( 38 - 38) =      8.20989  eV     1   --> A_2u L_2'      
     e( 39 - 39) =      8.47357  eV     1   --> A_1g L_1       
     e( 40 - 40) =      9.49103  eV     1   --> A_2u L_2'      

 **************************************************************************

 **************************************************************************

                    xk=(  -0.01587,   0.02749,   0.00000  )

     point group C_2  (2)   
     there are  2 classes
     the character table:

       E     C2   
A      1.00  1.00
B      1.00 -1.00

     the symmetry operations in each class and the name of the first element:

     E        1
                                                                 
     C2       2
                                                                 

     Band symmetry, C_2  (2)    point group:

     e(  1 -  2) =    -58.98789  eV     2   --> A              
     e(  1 -  2) =    -58.98789  eV     2   --> B              
     e(  3 -  3) =    -33.15041  eV     1   --> A              
     e(  4 -  4) =    -33.15027  eV     1   --> B              
     e(  5 -  6) =    -32.92743  eV     2   --> A              
     e(  5 -  6) =    -32.92743  eV     2   --> B              
     e(  7 -  8) =    -32.92516  eV     2   --> A              
     e(  7 -  8) =    -32.92516  eV     2   --> B              
     e(  9 -  9) =    -12.33291  eV     1   --> A              
     e( 10 - 10) =    -12.19354  eV     1   --> B              
     e( 11 - 11) =    -11.08624  eV     1   --> A              
     e( 12 - 12) =    -10.87059  eV     1   --> B              
     e( 13 - 13) =     -4.06827  eV     1   --> A              
     e( 14 - 14) =     -3.54161  eV     1   --> B              
     e( 15 - 15) =     -0.77560  eV     1   --> B              
     e( 16 - 16) =     -0.76900  eV     1   --> A              
     e( 17 - 17) =     -0.73682  eV     1   --> A              
     e( 18 - 18) =     -0.73028  eV     1   --> B              
     e( 19 - 19) =     -0.57193  eV     1   --> A              
     e( 20 - 20) =      0.22506  eV     1   --> B              
     e( 21 - 21) =      0.33531  eV     1   --> A              
     e( 22 - 22) =      0.35855  eV     1   --> B              
     e( 23 - 23) =      0.40008  eV     1   --> A              
     e( 24 - 24) =      0.63349  eV     1   --> B              
     e( 25 - 25) =      1.57622  eV     1   --> A              
     e( 26 - 26) =      2.24032  eV     1   --> B              
     e( 27 - 27) =      4.59145  eV     1   --> B              
     e( 28 - 28) =      4.60442  eV     1   --> A              
     e( 29 - 29) =      4.62651  eV     1   --> A              
     e( 30 - 30) =      4.64710  eV     1   --> B              
     e( 31 - 31) =      4.77695  eV     1   --> B              
     e( 32 - 32) =      4.79118  eV     1   --> A              
     e( 33 - 33) =      4.84403  eV     1   --> A              
     e( 34 - 34) =      4.87095  eV     1   --> B              
     e( 35 - 35) =      7.13141  eV     1   --> A              
     e( 36 - 36) =      7.17685  eV     1   --> B              
     e( 37 - 37) =      8.14679  eV     1   --> A              
     e( 38 - 38) =      8.26331  eV     1   --> B              
     e( 39 - 39) =      8.49431  eV     1   --> A              
     e( 40 - 40) =      9.50616  eV     1   --> B              

 **************************************************************************

 **************************************************************************

                    xk=(  -0.03175,   0.05499,   0.00000  )

     Band symmetry, C_2  (2)    point group:

     e(  1 -  2) =    -58.98702  eV     2   --> A              
     e(  1 -  2) =    -58.98702  eV     2   --> B              
     e(  3 -  3) =    -33.14869  eV     1   --> A              
     e(  4 -  4) =    -33.14857  eV     1   --> B              
     e(  5 -  6) =    -32.93621  eV     2   --> A              
     e(  5 -  6) =    -32.93621  eV     2   --> B              
     e(  7 -  8) =    -32.92719  eV     2   --> A              
     e(  7 -  8) =    -32.92719  eV     2   --> B              
     e(  9 -  9) =    -12.29877  eV     1   --> A              
     e( 10 - 10) =    -12.15962  eV     1   --> B              
     e( 11 - 11) =    -11.07083  eV     1   --> A              
     e( 12 - 12) =    -10.85734  eV     1   --> B              
     e( 13 - 13) =     -4.02901  eV     1   --> A              
     e( 14 - 14) =     -3.50252  eV     1   --> B              
     e( 15 - 15) =     -0.85341  eV     1   --> B              
     e( 16 - 16) =     -0.84644  eV     1   --> A              
     e( 17 - 17) =     -0.70138  eV     1   --> A              
     e( 18 - 18) =     -0.69439  eV     1   --> B              
     e( 19 - 19) =     -0.66879  eV     1   --> A              
     e( 20 - 20) =      0.02593  eV     1   --> B              
     e( 21 - 21) =      0.27623  eV     1   --> A              
     e( 22 - 22) =      0.30053  eV     1   --> B              
     e( 23 - 23) =      0.45646  eV     1   --> A              
     e( 24 - 24) =      0.77633  eV     1   --> B              
     e( 25 - 25) =      1.57268  eV     1   --> A              
     e( 26 - 26) =      2.19800  eV     1   --> B              
     e( 27 - 27) =      4.54896  eV     1   --> A              
     e( 28 - 28) =      4.55141  eV     1   --> B              
     e( 29 - 29) =      4.67203  eV     1   --> A              
     e( 30 - 30) =      4.70050  eV     1   --> B              
     e( 31 - 31) =      4.71313  eV     1   --> B              
     e( 32 - 32) =      4.73141  eV     1   --> A              
     e( 33 - 33) =      4.76574  eV     1   --> A              
     e( 34 - 34) =      4.83288  eV     1   --> B              
     e( 35 - 35) =      7.18886  eV     1   --> A              
     e( 36 - 36) =      7.23214  eV     1   --> B              
     e( 37 - 37) =      8.28200  eV     1   --> A              
     e( 38 - 38) =      8.41927  eV     1   --> B              
     e( 39 - 39) =      8.56374  eV     1   --> A              
     e( 40 - 40) =      9.55148  eV     1   --> B              

 **************************************************************************

 **************************************************************************

                    xk=(  -0.04762,   0.08248,   0.00000  )

     Band symmetry, C_2  (2)    point group:

     e(  1 -  2) =    -58.98560  eV     2   --> A              
     e(  1 -  2) =    -58.98560  eV     2   --> B              
     e(  3 -  4) =    -33.14585  eV     2   --> A              
     e(  3 -  4) =    -33.14585  eV     2   --> B              
     e(  5 -  6) =    -32.95036  eV     2   --> A              
     e(  5 -  6) =    -32.95036  eV     2   --> B              
     e(  7 -  8) =    -32.93055  eV     2   --> A              
     e(  7 -  8) =    -32.93055  eV     2   --> B              
     e(  9 -  9) =    -12.24246  eV     1   --> A              
     e( 10 - 10) =    -12.10374  eV     1   --> B              
     e( 11 - 11) =    -11.04541  eV     1   --> A              
     e( 12 - 12) =    -10.83552  eV     1   --> B              
     e( 13 - 13) =     -3.96532  eV     1   --> A              
     e( 14 - 14) =     -3.43939  eV     1   --> B              
     e( 15 - 15) =     -0.97531  eV     1   --> B              
     e( 16 - 16) =     -0.96801  eV     1   --> A              
     e( 17 - 17) =     -0.80338  eV     1   --> A              
     e( 18 - 18) =     -0.64320  eV     1   --> A              
     e( 19 - 19) =     -0.63579  eV     1   --> B              
     e( 20 - 20) =     -0.18377  eV     1   --> B              
     e( 21 - 21) =      0.17606  eV     1   --> A              
     e( 22 - 22) =      0.20256  eV     1   --> B              
     e( 23 - 23) =      0.52733  eV     1   --> A              
     e( 24 - 24) =      0.89508  eV     1   --> B              
     e( 25 - 25) =      1.56258  eV     1   --> A              
     e( 26 - 26) =      2.12323  eV     1   --> B              
     e( 27 - 27) =      4.47148  eV     1   --> A              
     e( 28 - 28) =      4.49152  eV     1   --> B              
     e( 29 - 29) =      4.56035  eV     1   --> A              
     e( 30 - 30) =      4.61469  eV     1   --> B              
     e( 31 - 31) =      4.67832  eV     1   --> A              
     e( 32 - 32) =      4.76268  eV     1   --> B              
     e( 33 - 33) =      4.80103  eV     1   --> A              
     e( 34 - 34) =      4.81721  eV     1   --> B              
     e( 35 - 35) =      7.27652  eV     1   --> A              
     e( 36 - 36) =      7.31779  eV     1   --> B              
     e( 37 - 37) =      8.45546  eV     1   --> A              
     e( 38 - 38) =      8.66545  eV     1   --> B              
     e( 39 - 39) =      8.71517  eV     1   --> A              
     e( 40 - 40) =      9.62704  eV     1   --> B              

 **************************************************************************

 **************************************************************************

                    xk=(  -0.06349,   0.10997,   0.00000  )

     Band symmetry, C_2  (2)    point group:

     e(  1 -  2) =    -58.98367  eV     2   --> A              
     e(  1 -  2) =    -58.98367  eV     2   --> B              
     e(  3 -  4) =    -33.14205  eV     2   --> A              
     e(  3 -  4) =    -33.14205  eV     2   --> B              
     e(  5 -  6) =    -32.96953  eV     2   --> A              
     e(  5 -  6) =    -32.96953  eV     2   --> B              
     e(  7 -  8) =    -32.93530  eV     2   --> A              
     e(  7 -  8) =    -32.93530  eV     2   --> B              
     e(  9 -  9) =    -12.16492  eV     1   --> A              
     e( 10 - 10) =    -12.02686  eV     1   --> B              
     e( 11 - 11) =    -11.01040  eV     1   --> A              
     e( 12 - 12) =    -10.80552  eV     1   --> B              
     e( 13 - 13) =     -3.87997  eV     1   --> A              
     e( 14 - 14) =     -3.35547  eV     1   --> B              
     e( 15 - 15) =     -1.13108  eV     1   --> B              
     e( 16 - 16) =     -1.12378  eV     1   --> A              
     e( 17 - 17) =     -0.95580  eV     1   --> A              
     e( 18 - 18) =     -0.56499  eV     1   --> A              
     e( 19 - 19) =     -0.55659  eV     1   --> B              
     e( 20 - 20) =     -0.39360  eV     1   --> B              
     e( 21 - 21) =      0.03385  eV     1   --> A              
     e( 22 - 22) =      0.06417  eV     1   --> B              
     e( 23 - 23) =      0.59837  eV     1   --> A              
     e( 24 - 24) =      0.98332  eV     1   --> B              
     e( 25 - 25) =      1.54029  eV     1   --> A              
     e( 26 - 26) =      2.01314  eV     1   --> B              
     e( 27 - 27) =      4.36290  eV     1   --> A              
     e( 28 - 28) =      4.40176  eV     1   --> A              
     e( 29 - 29) =      4.40782  eV     1   --> B              
     e( 30 - 30) =      4.54617  eV     1   --> B              
     e( 31 - 31) =      4.59918  eV     1   --> A              
     e( 32 - 32) =      4.68194  eV     1   --> B              
     e( 33 - 33) =      4.92219  eV     1   --> A              
     e( 34 - 34) =      4.95045  eV     1   --> B              
     e( 35 - 35) =      7.38970  eV     1   --> A              
     e( 36 - 36) =      7.42952  eV     1   --> B              
     e( 37 - 37) =      8.61123  eV     1   --> A              
     e( 38 - 38) =      8.98316  eV     1   --> B              
     e( 39 - 39) =      8.98445  eV     1   --> A              
     e( 40 - 40) =      9.73385  eV     1   --> B              

 **************************************************************************

 **************************************************************************

                    xk=(  -0.07936,   0.13746,   0.00000  )

     Band symmetry, C_2  (2)    point group:

     e(  1 -  2) =    -58.98129  eV     2   --> A              
     e(  1 -  2) =    -58.98129  eV     2   --> B              
     e(  3 -  4) =    -33.13732  eV     2   --> A              
     e(  3 -  4) =    -33.13732  eV     2   --> B              
     e(  5 -  6) =    -32.99277  eV     2   --> A              
     e(  5 -  6) =    -32.99277  eV     2   --> B              
     e(  7 -  8) =    -32.94143  eV     2   --> A              
     e(  7 -  8) =    -32.94143  eV     2   --> B              
     e(  9 -  9) =    -12.06739  eV     1   --> A              
     e( 10 - 10) =    -11.93033  eV     1   --> B              
     e( 11 - 11) =    -10.96637  eV     1   --> A              
     e( 12 - 12) =    -10.76788  eV     1   --> B              
     e( 13 - 13) =     -3.77706  eV     1   --> A              
     e( 14 - 14) =     -3.25575  eV     1   --> B              
     e( 15 - 15) =     -1.30839  eV     1   --> B              
     e( 16 - 16) =     -1.30188  eV     1   --> A              
     e( 17 - 17) =     -1.11316  eV     1   --> A              
     e( 18 - 18) =     -0.59795  eV     1   --> B              
     e( 19 - 19) =     -0.47023  eV     1   --> A              
     e( 20 - 20) =     -0.46009  eV     1   --> B              
     e( 21 - 21) =     -0.14907  eV     1   --> A              
     e( 22 - 22) =     -0.11267  eV     1   --> B              
     e( 23 - 23) =      0.66176  eV     1   --> A              
     e( 24 - 24) =      1.03986  eV     1   --> B              
     e( 25 - 25) =      1.49947  eV     1   --> A              
     e( 26 - 26) =      1.86865  eV     1   --> B              
     e( 27 - 27) =      4.17577  eV     1   --> A              
     e( 28 - 28) =      4.30907  eV     1   --> B              
     e( 29 - 29) =      4.32911  eV     1   --> A              
     e( 30 - 30) =      4.50350  eV     1   --> A              
     e( 31 - 31) =      4.51437  eV     1   --> B              
     e( 32 - 32) =      4.58718  eV     1   --> B              
     e( 33 - 33) =      5.07106  eV     1   --> A              
     e( 34 - 34) =      5.11609  eV     1   --> B              
     e( 35 - 35) =      7.52649  eV     1   --> A              
     e( 36 - 36) =      7.56517  eV     1   --> B              
     e( 37 - 37) =      8.76294  eV     1   --> A              
     e( 38 - 38) =      9.33551  eV     1   --> A              
     e( 39 - 39) =      9.34765  eV     1   --> B              
     e( 40 - 40) =      9.87673  eV     1   --> B              

 **************************************************************************

 **************************************************************************

                    xk=(  -0.09524,   0.16496,   0.00000  )

     Band symmetry, C_2  (2)    point group:

     e(  1 -  2) =    -58.97852  eV     2   --> A              
     e(  1 -  2) =    -58.97852  eV     2   --> B              
     e(  3 -  4) =    -33.13187  eV     2   --> A              
     e(  3 -  4) =    -33.13187  eV     2   --> B              
     e(  5 -  6) =    -33.01926  eV     2   --> A              
     e(  5 -  6) =    -33.01926  eV     2   --> B              
     e(  7 -  8) =    -32.94894  eV     2   --> A              
     e(  7 -  8) =    -32.94894  eV     2   --> B              
     e(  9 -  9) =    -11.95151  eV     1   --> A              
     e( 10 - 10) =    -11.81586  eV     1   --> B              
     e( 11 - 11) =    -10.91405  eV     1   --> A              
     e( 12 - 12) =    -10.72329  eV     1   --> B              
     e( 13 - 13) =     -3.66246  eV     1   --> A              
     e( 14 - 14) =     -3.14774  eV     1   --> B              
     e( 15 - 15) =     -1.49333  eV     1   --> B              
     e( 16 - 16) =     -1.48955  eV     1   --> A              
     e( 17 - 17) =     -1.26674  eV     1   --> A              
     e( 18 - 18) =     -0.79318  eV     1   --> B              
     e( 19 - 19) =     -0.38161  eV     1   --> A              
     e( 20 - 20) =     -0.35747  eV     1   --> B              
     e( 21 - 21) =     -0.35130  eV     1   --> A              
     e( 22 - 22) =     -0.31713  eV     1   --> B              
     e( 23 - 23) =      0.71334  eV     1   --> A              
     e( 24 - 24) =      1.06545  eV     1   --> B              
     e( 25 - 25) =      1.43509  eV     1   --> A              
     e( 26 - 26) =      1.69604  eV     1   --> B              
     e( 27 - 27) =      3.99605  eV     1   --> A              
     e( 28 - 28) =      4.21464  eV     1   --> B              
     e( 29 - 29) =      4.28425  eV     1   --> A              
     e( 30 - 30) =      4.40405  eV     1   --> A              
     e( 31 - 31) =      4.47044  eV     1   --> B              
     e( 32 - 32) =      4.53507  eV     1   --> B              
     e( 33 - 33) =      5.23522  eV     1   --> A              
     e( 34 - 34) =      5.30273  eV     1   --> B              
     e( 35 - 35) =      7.68619  eV     1   --> A              
     e( 36 - 36) =      7.72371  eV     1   --> B              
     e( 37 - 37) =      8.93136  eV     1   --> A              
     e( 38 - 38) =      9.71816  eV     1   --> B              
     e( 39 - 39) =      9.72272  eV     1   --> A              
     e( 40 - 40) =     10.07512  eV     1   --> B              

 **************************************************************************

 **************************************************************************

                    xk=(  -0.11111,   0.19245,   0.00000  )

     Band symmetry, C_2  (2)    point group:

     e(  1 -  2) =    -58.97544  eV     2   --> A              
     e(  1 -  2) =    -58.97544  eV     2   --> B              
     e(  3 -  4) =    -33.12583  eV     2   --> A              
     e(  3 -  4) =    -33.12583  eV     2   --> B              
     e(  5 -  6) =    -33.04792  eV     2   --> A              
     e(  5 -  6) =    -33.04792  eV     2   --> B              
     e(  7 -  8) =    -32.95781  eV     2   --> A              
     e(  7 -  8) =    -32.95781  eV     2   --> B              
     e(  9 -  9) =    -11.81927  eV     1   --> A              
     e( 10 - 10) =    -11.68557  eV     1   --> B              
     e( 11 - 11) =    -10.85433  eV     1   --> A              
     e( 12 - 12) =    -10.67259  eV     1   --> B              
     e( 13 - 13) =     -3.54431  eV     1   --> A              
     e( 14 - 14) =     -3.04286  eV     1   --> B              
     e( 15 - 15) =     -1.67351  eV     1   --> A              
     e( 16 - 16) =     -1.66986  eV     1   --> B              
     e( 17 - 17) =     -1.41087  eV     1   --> A              
     e( 18 - 18) =     -0.98045  eV     1   --> B              
     e( 19 - 19) =     -0.61856  eV     1   --> A              
     e( 20 - 20) =     -0.55481  eV     1   --> B              
     e( 21 - 21) =     -0.25429  eV     1   --> A              
     e( 22 - 22) =     -0.24019  eV     1   --> B              
     e( 23 - 23) =      0.75050  eV     1   --> A              
     e( 24 - 24) =      1.06183  eV     1   --> B              
     e( 25 - 25) =      1.34652  eV     1   --> A              
     e( 26 - 26) =      1.50705  eV     1   --> B              
     e( 27 - 27) =      3.83804  eV     1   --> A              
     e( 28 - 28) =      4.12750  eV     1   --> B              
     e( 29 - 29) =      4.26758  eV     1   --> A              
     e( 30 - 30) =      4.31474  eV     1   --> A              
     e( 31 - 31) =      4.39310  eV     1   --> B              
     e( 32 - 32) =      4.55887  eV     1   --> B              
     e( 33 - 33) =      5.40462  eV     1   --> A              
     e( 34 - 34) =      5.50051  eV     1   --> B              
     e( 35 - 35) =      7.86817  eV     1   --> A              
     e( 36 - 36) =      7.90431  eV     1   --> B              
     e( 37 - 37) =      9.12303  eV     1   --> A              
     e( 38 - 38) =     10.02472  eV     1   --> B              
     e( 39 - 39) =     10.10695  eV     1   --> A              
     e( 40 - 40) =     10.37297  eV     1   --> B              

 **************************************************************************

 **************************************************************************

                    xk=(  -0.12698,   0.21994,   0.00000  )

     Band symmetry, C_2  (2)    point group:

     e(  1 -  2) =    -58.97215  eV     2   --> A              
     e(  1 -  2) =    -58.97215  eV     2   --> B              
     e(  3 -  4) =    -33.11933  eV     2   --> A              
     e(  3 -  4) =    -33.11933  eV     2   --> B              
     e(  5 -  6) =    -33.07777  eV     2   --> A              
     e(  5 -  6) =    -33.07777  eV     2   --> B              
     e(  7 -  8) =    -32.96804  eV     2   --> A              
     e(  7 -  8) =    -32.96804  eV     2   --> B              
     e(  9 -  9) =    -11.67300  eV     1   --> A              
     e( 10 - 10) =    -11.54192  eV     1   --> B              
     e( 11 - 11) =    -10.78827  eV     1   --> A              
     e( 12 - 12) =    -10.61676  eV     1   --> B              
     e( 13 - 13) =     -3.43380  eV     1   --> A              
     e( 14 - 14) =     -2.95826  eV     1   --> B              
     e( 15 - 15) =     -1.83971  eV     1   --> A              
     e( 16 - 16) =     -1.81836  eV     1   --> B              
     e( 17 - 17) =     -1.54299  eV     1   --> A              
     e( 18 - 18) =     -1.16856  eV     1   --> B              
     e( 19 - 19) =     -0.88343  eV     1   --> A              
     e( 20 - 20) =     -0.78533  eV     1   --> B              
     e( 21 - 21) =     -0.15769  eV     1   --> A              
     e( 22 - 22) =     -0.14227  eV     1   --> B              
     e( 23 - 23) =      0.77112  eV     1   --> A              
     e( 24 - 24) =      1.03104  eV     1   --> B              
     e( 25 - 25) =      1.24099  eV     1   --> A              
     e( 26 - 26) =      1.31893  eV     1   --> B              
     e( 27 - 27) =      3.70601  eV     1   --> A              
     e( 28 - 28) =      4.04284  eV     1   --> B              
     e( 29 - 29) =      4.24866  eV     1   --> A              
     e( 30 - 30) =      4.28040  eV     1   --> A              
     e( 31 - 31) =      4.34715  eV     1   --> B              
     e( 32 - 32) =      4.60680  eV     1   --> B              
     e( 33 - 33) =      5.56952  eV     1   --> A              
     e( 34 - 34) =      5.69927  eV     1   --> B              
     e( 35 - 35) =      8.07144  eV     1   --> A              
     e( 36 - 36) =      8.10588  eV     1   --> B              
     e( 37 - 37) =      9.33976  eV     1   --> A              
     e( 38 - 38) =     10.26126  eV     1   --> B              
     e( 39 - 39) =     10.43012  eV     1   --> A              
     e( 40 - 40) =     10.72305  eV     1   --> B              

 **************************************************************************

 **************************************************************************

                    xk=(  -0.14286,   0.24744,   0.00000  )

     Band symmetry, C_2  (2)    point group:

     e(  1 -  2) =    -58.96873  eV     2   --> A              
     e(  1 -  2) =    -58.96873  eV     2   --> B              
     e(  3 -  4) =    -33.11255  eV     2   --> A              
     e(  3 -  4) =    -33.11255  eV     2   --> B              
     e(  5 -  6) =    -33.10762  eV     2   --> A              
     e(  5 -  6) =    -33.10762  eV     2   --> B              
     e(  7 -  8) =    -32.97959  eV     2   --> A              
     e(  7 -  8) =    -32.97959  eV     2   --> B              
     e(  9 -  9) =    -11.51547  eV     1   --> A              
     e( 10 - 10) =    -11.38783  eV     1   --> B              
     e( 11 - 11) =    -10.71707  eV     1   --> A              
     e( 12 - 12) =    -10.55693  eV     1   --> B              
     e( 13 - 13) =     -3.34527  eV     1   --> A              
     e( 14 - 14) =     -2.91615  eV     1   --> B              
     e( 15 - 15) =     -1.97377  eV     1   --> A              
     e( 16 - 16) =     -1.91686  eV     1   --> B              
     e( 17 - 17) =     -1.66614  eV     1   --> A              
     e( 18 - 18) =     -1.37686  eV     1   --> B              
     e( 19 - 19) =     -1.14734  eV     1   --> A              
     e( 20 - 20) =     -0.98366  eV     1   --> B              
     e( 21 - 21) =     -0.09300  eV     1   --> A              
     e( 22 - 22) =     -0.07873  eV     1   --> B              
     e( 23 - 23) =      0.77316  eV     1   --> A              
     e( 24 - 24) =      0.97441  eV     1   --> B              
     e( 25 - 25) =      1.13588  eV     1   --> A              
     e( 26 - 26) =      1.15596  eV     1   --> B              
     e( 27 - 27) =      3.60253  eV     1   --> A              
     e( 28 - 28) =      3.96690  eV     1   --> B              
     e( 29 - 29) =      4.21851  eV     1   --> A              
     e( 30 - 30) =      4.31734  eV     1   --> A              
     e( 31 - 31) =      4.33998  eV     1   --> B              
     e( 32 - 32) =      4.66956  eV     1   --> B              
     e( 33 - 33) =      5.72093  eV     1   --> A              
     e( 34 - 34) =      5.88936  eV     1   --> B              
     e( 35 - 35) =      8.29438  eV     1   --> A              
     e( 36 - 36) =      8.32686  eV     1   --> B              
     e( 37 - 37) =      9.58182  eV     1   --> A              
     e( 38 - 38) =     10.46566  eV     1   --> B              
     e( 39 - 39) =     10.60062  eV     1   --> A              
     e( 40 - 40) =     10.87897  eV     1   --> B              

 **************************************************************************

 **************************************************************************

                    xk=(  -0.15873,   0.27493,   0.00000  )

     Band symmetry, C_2  (2)    point group:

     e(  1 -  2) =    -58.96527  eV     2   --> A              
     e(  1 -  2) =    -58.96527  eV     2   --> B              
     e(  3 -  4) =    -33.13647  eV     2   --> A              
     e(  3 -  4) =    -33.13647  eV     2   --> B              
     e(  5 -  6) =    -33.10569  eV     2   --> A              
     e(  5 -  6) =    -33.10569  eV     2   --> B              
     e(  7 -  8) =    -32.99249  eV     2   --> A              
     e(  7 -  8) =    -32.99249  eV     2   --> B              
     e(  9 -  9) =    -11.34981  eV     1   --> A              
     e( 10 - 10) =    -11.22657  eV     1   --> B              
     e( 11 - 11) =    -10.64209  eV     1   --> A              
     e( 12 - 12) =    -10.49435  eV     1   --> B              
     e( 13 - 13) =     -3.29316  eV     1   --> A              
     e( 14 - 14) =     -2.93131  eV     1   --> B              
     e( 15 - 15) =     -2.06623  eV     1   --> A              
     e( 16 - 16) =     -1.95566  eV     1   --> B              
     e( 17 - 17) =     -1.79508  eV     1   --> A              
     e( 18 - 18) =     -1.61475  eV     1   --> B              
     e( 19 - 19) =     -1.37826  eV     1   --> A              
     e( 20 - 20) =     -1.12512  eV     1   --> B              
     e( 21 - 21) =     -0.08581  eV     1   --> A              
     e( 22 - 22) =     -0.07675  eV     1   --> B              
     e( 23 - 23) =      0.75449  eV     1   --> A              
     e( 24 - 24) =      0.88950  eV     1   --> B              
     e( 25 - 25) =      1.04919  eV     1   --> B              
     e( 26 - 26) =      1.05622  eV     1   --> A              
     e( 27 - 27) =      3.53346  eV     1   --> A              
     e( 28 - 28) =      3.91741  eV     1   --> B              
     e( 29 - 29) =      4.22479  eV     1   --> A              
     e( 30 - 30) =      4.36054  eV     1   --> B              
     e( 31 - 31) =      4.37475  eV     1   --> A              
     e( 32 - 32) =      4.74201  eV     1   --> B              
     e( 33 - 33) =      5.85145  eV     1   --> A              
     e( 34 - 34) =      6.06233  eV     1   --> B              
     e( 35 - 35) =      8.53459  eV     1   --> A              
     e( 36 - 36) =      8.56509  eV     1   --> B              
     e( 37 - 37) =      9.84863  eV     1   --> A              
     e( 38 - 38) =     10.54989  eV     1   --> B              
     e( 39 - 39) =     10.59490  eV     1   --> A              
     e( 40 - 40) =     10.85428  eV     1   --> B              

 **************************************************************************

 **************************************************************************

                    xk=(  -0.17460,   0.30242,   0.00000  )

     Band symmetry, C_2  (2)    point group:

     e(  1 -  2) =    -58.96186  eV     2   --> A              
     e(  1 -  2) =    -58.96186  eV     2   --> B              
     e(  3 -  4) =    -33.16328  eV     2   --> A              
     e(  3 -  4) =    -33.16328  eV     2   --> B              
     e(  5 -  6) =    -33.09895  eV     2   --> A              
     e(  5 -  6) =    -33.09895  eV     2   --> B              
     e(  7 -  8) =    -33.00665  eV     2   --> A              
     e(  7 -  8) =    -33.00665  eV     2   --> B              
     e(  9 -  9) =    -11.17961  eV     1   --> A              
     e( 10 - 10) =    -11.06189  eV     1   --> B              
     e( 11 - 11) =    -10.56485  eV     1   --> A              
     e( 12 - 12) =    -10.43042  eV     1   --> B              
     e( 13 - 13) =     -3.28354  eV     1   --> A              
     e( 14 - 14) =     -2.99350  eV     1   --> B              
     e( 15 - 15) =     -2.13746  eV     1   --> A              
     e( 16 - 16) =     -1.98831  eV     1   --> B              
     e( 17 - 17) =     -1.94000  eV     1   --> A              
     e( 18 - 18) =     -1.82898  eV     1   --> B              
     e( 19 - 19) =     -1.53021  eV     1   --> A              
     e( 20 - 20) =     -1.21275  eV     1   --> B              
     e( 21 - 21) =     -0.15393  eV     1   --> A              
     e( 22 - 22) =     -0.15066  eV     1   --> B              
     e( 23 - 23) =      0.71370  eV     1   --> A              
     e( 24 - 24) =      0.77892  eV     1   --> B              
     e( 25 - 25) =      1.01222  eV     1   --> B              
     e( 26 - 26) =      1.02109  eV     1   --> A              
     e( 27 - 27) =      3.50762  eV     1   --> A              
     e( 28 - 28) =      3.91147  eV     1   --> B              
     e( 29 - 29) =      4.26138  eV     1   --> A              
     e( 30 - 30) =      4.39328  eV     1   --> B              
     e( 31 - 31) =      4.44583  eV     1   --> A              
     e( 32 - 32) =      4.82031  eV     1   --> B              
     e( 33 - 33) =      5.95664  eV     1   --> A              
     e( 34 - 34) =      6.21187  eV     1   --> B              
     e( 35 - 35) =      8.78835  eV     1   --> A              
     e( 36 - 36) =      8.81769  eV     1   --> B              
     e( 37 - 37) =     10.13840  eV     1   --> A              
     e( 38 - 38) =     10.38250  eV     1   --> B              
     e( 39 - 39) =     10.48551  eV     1   --> A              
     e( 40 - 40) =     10.98846  eV     1   --> B              

 **************************************************************************

 **************************************************************************

                    xk=(  -0.19047,   0.32992,   0.00000  )

     Band symmetry, C_2  (2)    point group:

     e(  1 -  2) =    -58.95859  eV     2   --> A              
     e(  1 -  2) =    -58.95859  eV     2   --> B              
     e(  3 -  4) =    -33.18719  eV     2   --> A              
     e(  3 -  4) =    -33.18719  eV     2   --> B              
     e(  5 -  6) =    -33.09249  eV     2   --> A              
     e(  5 -  6) =    -33.09249  eV     2   --> B              
     e(  7 -  8) =    -33.02197  eV     2   --> A              
     e(  7 -  8) =    -33.02197  eV     2   --> B              
     e(  9 -  9) =    -11.00885  eV     1   --> A              
     e( 10 - 10) =    -10.89788  eV     1   --> B              
     e( 11 - 11) =    -10.48698  eV     1   --> A              
     e( 12 - 12) =    -10.36666  eV     1   --> B              
     e( 13 - 13) =     -3.30695  eV     1   --> A              
     e( 14 - 14) =     -3.07548  eV     1   --> B              
     e( 15 - 15) =     -2.29147  eV     1   --> A              
     e( 16 - 16) =     -2.19474  eV     1   --> B              
     e( 17 - 17) =     -2.00875  eV     1   --> A              
     e( 18 - 18) =     -1.85019  eV     1   --> B              
     e( 19 - 19) =     -1.59416  eV     1   --> A              
     e( 20 - 20) =     -1.25906  eV     1   --> B              
     e( 21 - 21) =     -0.29272  eV     1   --> A              
     e( 22 - 22) =     -0.28701  eV     1   --> B              
     e( 23 - 23) =      0.65163  eV     1   --> B              
     e( 24 - 24) =      0.65195  eV     1   --> A              
     e( 25 - 25) =      1.02756  eV     1   --> B              
     e( 26 - 26) =      1.02851  eV     1   --> A              
     e( 27 - 27) =      3.53126  eV     1   --> A              
     e( 28 - 28) =      3.95797  eV     1   --> B              
     e( 29 - 29) =      4.31680  eV     1   --> A              
     e( 30 - 30) =      4.42347  eV     1   --> B              
     e( 31 - 31) =      4.52333  eV     1   --> A              
     e( 32 - 32) =      4.90130  eV     1   --> B              
     e( 33 - 33) =      6.03649  eV     1   --> A              
     e( 34 - 34) =      6.33479  eV     1   --> B              
     e( 35 - 35) =      9.04884  eV     1   --> A              
     e( 36 - 36) =      9.08003  eV     1   --> B              
     e( 37 - 37) =     10.14541  eV     1   --> B              
     e( 38 - 38) =     10.31596  eV     1   --> A              
     e( 39 - 39) =     10.44681  eV     1   --> A              
     e( 40 - 40) =     11.04208  eV     1   --> A              

 **************************************************************************

 **************************************************************************

                    xk=(  -0.20635,   0.35741,   0.00000  )

     Band symmetry, C_2  (2)    point group:

     e(  1 -  2) =    -58.95553  eV     2   --> A              
     e(  1 -  2) =    -58.95553  eV     2   --> B              
     e(  3 -  4) =    -33.20737  eV     2   --> A              
     e(  3 -  4) =    -33.20737  eV     2   --> B              
     e(  5 -  6) =    -33.08641  eV     2   --> A              
     e(  5 -  6) =    -33.08641  eV     2   --> B              
     e(  7 -  8) =    -33.03833  eV     2   --> A              
     e(  7 -  8) =    -33.03833  eV     2   --> B              
     e(  9 -  9) =    -10.84188  eV     1   --> A              
     e( 10 - 10) =    -10.73899  eV     1   --> B              
     e( 11 - 11) =    -10.41027  eV     1   --> A              
     e( 12 - 12) =    -10.30467  eV     1   --> B              
     e( 13 - 13) =     -3.34349  eV     1   --> A              
     e( 14 - 14) =     -3.15288  eV     1   --> B              
     e( 15 - 15) =     -2.52055  eV     1   --> A              
     e( 16 - 16) =     -2.44870  eV     1   --> B              
     e( 17 - 17) =     -1.99323  eV     1   --> A              
     e( 18 - 18) =     -1.81595  eV     1   --> B              
     e( 19 - 19) =     -1.60101  eV     1   --> A              
     e( 20 - 20) =     -1.27469  eV     1   --> B              
     e( 21 - 21) =     -0.48194  eV     1   --> A              
     e( 22 - 22) =     -0.45959  eV     1   --> B              
     e( 23 - 23) =      0.51101  eV     1   --> B              
     e( 24 - 24) =      0.57166  eV     1   --> A              
     e( 25 - 25) =      1.06532  eV     1   --> A              
     e( 26 - 26) =      1.07584  eV     1   --> B              
     e( 27 - 27) =      3.60134  eV     1   --> A              
     e( 28 - 28) =      4.05076  eV     1   --> B              
     e( 29 - 29) =      4.37855  eV     1   --> A              
     e( 30 - 30) =      4.44287  eV     1   --> B              
     e( 31 - 31) =      4.59981  eV     1   --> A              
     e( 32 - 32) =      4.98119  eV     1   --> B              
     e( 33 - 33) =      6.09650  eV     1   --> A              
     e( 34 - 34) =      6.43174  eV     1   --> B              
     e( 35 - 35) =      9.30006  eV     1   --> A              
     e( 36 - 36) =      9.33992  eV     1   --> B              
     e( 37 - 37) =      9.91103  eV     1   --> B              
     e( 38 - 38) =     10.11572  eV     1   --> A              
     e( 39 - 39) =     10.73508  eV     1   --> A              
     e( 40 - 40) =     10.97734  eV     1   --> A              

 **************************************************************************

 **************************************************************************

                    xk=(  -0.22222,   0.38490,   0.00000  )

     Band symmetry, C_2  (2)    point group:

     e(  1 -  2) =    -58.95275  eV     2   --> A              
     e(  1 -  2) =    -58.95275  eV     2   --> B              
     e(  3 -  4) =    -33.22323  eV     2   --> A              
     e(  3 -  4) =    -33.22323  eV     2   --> B              
     e(  5 -  6) =    -33.08092  eV     2   --> A              
     e(  5 -  6) =    -33.08092  eV     2   --> B              
     e(  7 -  8) =    -33.05565  eV     2   --> A              
     e(  7 -  8) =    -33.05565  eV     2   --> B              
     e(  9 -  9) =    -10.68328  eV     1   --> A              
     e( 10 - 10) =    -10.58980  eV     1   --> B              
     e( 11 - 11) =    -10.33657  eV     1   --> A              
     e( 12 - 12) =    -10.24616  eV     1   --> B              
     e( 13 - 13) =     -3.37343  eV     1   --> A              
     e( 14 - 14) =     -3.20956  eV     1   --> B              
     e( 15 - 15) =     -2.75484  eV     1   --> A              
     e( 16 - 16) =     -2.69085  eV     1   --> B              
     e( 17 - 17) =     -1.95320  eV     1   --> A              
     e( 18 - 18) =     -1.79037  eV     1   --> B              
     e( 19 - 19) =     -1.57672  eV     1   --> A              
     e( 20 - 20) =     -1.26883  eV     1   --> B              
     e( 21 - 21) =     -0.70198  eV     1   --> A              
     e( 22 - 22) =     -0.64818  eV     1   --> B              
     e( 23 - 23) =      0.36033  eV     1   --> B              
     e( 24 - 24) =      0.47526  eV     1   --> A              
     e( 25 - 25) =      1.12404  eV     1   --> A              
     e( 26 - 26) =      1.14811  eV     1   --> B              
     e( 27 - 27) =      3.70056  eV     1   --> A              
     e( 28 - 28) =      4.15155  eV     1   --> B              
     e( 29 - 29) =      4.43880  eV     1   --> A              
     e( 30 - 30) =      4.46918  eV     1   --> B              
     e( 31 - 31) =      4.66821  eV     1   --> A              
     e( 32 - 32) =      5.05426  eV     1   --> B              
     e( 33 - 33) =      6.14728  eV     1   --> A              
     e( 34 - 34) =      6.50715  eV     1   --> B              
     e( 35 - 35) =      9.48748  eV     1   --> A              
     e( 36 - 36) =      9.50456  eV     1   --> B              
     e( 37 - 37) =      9.78989  eV     1   --> B              
     e( 38 - 38) =      9.93435  eV     1   --> A              
     e( 39 - 39) =     10.79222  eV     1   --> A              
     e( 40 - 40) =     11.13644  eV     1   --> A              

 **************************************************************************

 **************************************************************************

                    xk=(  -0.23809,   0.41239,   0.00000  )

     Band symmetry, C_2  (2)    point group:

     e(  1 -  2) =    -58.95031  eV     2   --> A              
     e(  1 -  2) =    -58.95031  eV     2   --> B              
     e(  3 -  4) =    -33.23432  eV     2   --> A              
     e(  3 -  4) =    -33.23432  eV     2   --> B              
     e(  5 -  6) =    -33.07607  eV     2   --> A              
     e(  5 -  6) =    -33.07607  eV     2   --> B              
     e(  7 -  8) =    -33.07375  eV     2   --> A              
     e(  7 -  8) =    -33.07375  eV     2   --> B              
     e(  9 -  9) =    -10.53760  eV     1   --> A              
     e( 10 - 10) =    -10.45480  eV     1   --> B              
     e( 11 - 11) =    -10.26782  eV     1   --> A              
     e( 12 - 12) =    -10.19285  eV     1   --> B              
     e( 13 - 13) =     -3.38223  eV     1   --> A              
     e( 14 - 14) =     -3.23543  eV     1   --> B              
     e( 15 - 15) =     -2.97196  eV     1   --> A              
     e( 16 - 16) =     -2.91020  eV     1   --> B              
     e( 17 - 17) =     -1.90530  eV     1   --> A              
     e( 18 - 18) =     -1.78507  eV     1   --> B              
     e( 19 - 19) =     -1.53810  eV     1   --> A              
     e( 20 - 20) =     -1.24930  eV     1   --> B              
     e( 21 - 21) =     -0.93839  eV     1   --> A              
     e( 22 - 22) =     -0.83929  eV     1   --> B              
     e( 23 - 23) =      0.20426  eV     1   --> B              
     e( 24 - 24) =      0.36571  eV     1   --> A              
     e( 25 - 25) =      1.20388  eV     1   --> A              
     e( 26 - 26) =      1.24273  eV     1   --> B              
     e( 27 - 27) =      3.79474  eV     1   --> A              
     e( 28 - 28) =      4.17158  eV     1   --> B              
     e( 29 - 29) =      4.50102  eV     1   --> A              
     e( 30 - 30) =      4.56893  eV     1   --> B              
     e( 31 - 31) =      4.72437  eV     1   --> A              
     e( 32 - 32) =      5.11348  eV     1   --> B              
     e( 33 - 33) =      6.20181  eV     1   --> A              
     e( 34 - 34) =      6.56767  eV     1   --> B              
     e( 35 - 35) =      9.38590  eV     1   --> B              
     e( 36 - 36) =      9.45735  eV     1   --> A              
     e( 37 - 37) =      9.89166  eV     1   --> A              
     e( 38 - 38) =      9.97937  eV     1   --> B              
     e( 39 - 39) =     10.76001  eV     1   --> A              
     e( 40 - 40) =     11.24075  eV     1   --> B              

 **************************************************************************

 **************************************************************************

                    xk=(  -0.25397,   0.43989,   0.00000  )

     Band symmetry, C_2  (2)    point group:

     e(  1 -  2) =    -58.94823  eV     2   --> A              
     e(  1 -  2) =    -58.94823  eV     2   --> B              
     e(  3 -  4) =    -33.24040  eV     2   --> A              
     e(  3 -  4) =    -33.24040  eV     2   --> B              
     e(  5 -  6) =    -33.09244  eV     2   --> A              
     e(  5 -  6) =    -33.09244  eV     2   --> B              
     e(  7 -  8) =    -33.07198  eV     2   --> A              
     e(  7 -  8) =    -33.07198  eV     2   --> B              
     e(  9 -  9) =    -10.40905  eV     1   --> A              
     e( 10 - 10) =    -10.33800  eV     1   --> B              
     e( 11 - 11) =    -10.20592  eV     1   --> A              
     e( 12 - 12) =    -10.14642  eV     1   --> B              
     e( 13 - 13) =     -3.36255  eV     1   --> A              
     e( 14 - 14) =     -3.22506  eV     1   --> B              
     e( 15 - 15) =     -3.15981  eV     1   --> A              
     e( 16 - 16) =     -3.10021  eV     1   --> B              
     e( 17 - 17) =     -1.85748  eV     1   --> A              
     e( 18 - 18) =     -1.80529  eV     1   --> B              
     e( 19 - 19) =     -1.49785  eV     1   --> A              
     e( 20 - 20) =     -1.23269  eV     1   --> B              
     e( 21 - 21) =     -1.17578  eV     1   --> A              
     e( 22 - 22) =     -1.01147  eV     1   --> B              
     e( 23 - 23) =      0.04878  eV     1   --> B              
     e( 24 - 24) =      0.24656  eV     1   --> A              
     e( 25 - 25) =      1.30441  eV     1   --> A              
     e( 26 - 26) =      1.35781  eV     1   --> B              
     e( 27 - 27) =      3.83991  eV     1   --> A              
     e( 28 - 28) =      4.09172  eV     1   --> B              
     e( 29 - 29) =      4.57119  eV     1   --> A              
     e( 30 - 30) =      4.74138  eV     1   --> B              
     e( 31 - 31) =      4.77850  eV     1   --> A              
     e( 32 - 32) =      5.15395  eV     1   --> B              
     e( 33 - 33) =      6.27036  eV     1   --> A              
     e( 34 - 34) =      6.61910  eV     1   --> B              
     e( 35 - 35) =      9.23466  eV     1   --> B              
     e( 36 - 36) =      9.26309  eV     1   --> A              
     e( 37 - 37) =      9.88071  eV     1   --> A              
     e( 38 - 38) =     10.22501  eV     1   --> B              
     e( 39 - 39) =     10.83817  eV     1   --> A              
     e( 40 - 40) =     10.93659  eV     1   --> B              

 **************************************************************************

 **************************************************************************

                    xk=(  -0.26984,   0.46738,   0.00000  )

     Band symmetry, C_2  (2)    point group:

     e(  1 -  2) =    -58.94656  eV     2   --> A              
     e(  1 -  2) =    -58.94656  eV     2   --> B              
     e(  3 -  4) =    -33.24152  eV     2   --> A              
     e(  3 -  4) =    -33.24152  eV     2   --> B              
     e(  5 -  6) =    -33.11144  eV     2   --> A              
     e(  5 -  6) =    -33.11144  eV     2   --> B              
     e(  7 -  8) =    -33.06868  eV     2   --> A              
     e(  7 -  8) =    -33.06868  eV     2   --> B              
     e(  9 -  9) =    -10.30104  eV     1   --> A              
     e( 10 - 10) =    -10.24258  eV     1   --> B              
     e( 11 - 11) =    -10.15270  eV     1   --> A              
     e( 12 - 12) =    -10.10837  eV     1   --> B              
     e( 13 - 13) =     -3.35989  eV     1   --> A              
     e( 14 - 14) =     -3.26345  eV     1   --> B              
     e( 15 - 15) =     -3.26132  eV     1   --> A              
     e( 16 - 16) =     -3.16923  eV     1   --> B              
     e( 17 - 17) =     -1.85314  eV     1   --> B              
     e( 18 - 18) =     -1.81954  eV     1   --> A              
     e( 19 - 19) =     -1.52071  eV     1   --> A              
     e( 20 - 20) =     -1.33929  eV     1   --> A              
     e( 21 - 21) =     -1.30027  eV     1   --> B              
     e( 22 - 22) =     -1.07985  eV     1   --> B              
     e( 23 - 23) =     -0.09807  eV     1   --> B              
     e( 24 - 24) =      0.12207  eV     1   --> A              
     e( 25 - 25) =      1.42068  eV     1   --> A              
     e( 26 - 26) =      1.48672  eV     1   --> B              
     e( 27 - 27) =      3.81365  eV     1   --> A              
     e( 28 - 28) =      3.96034  eV     1   --> B              
     e( 29 - 29) =      4.61709  eV     1   --> A              
     e( 30 - 30) =      4.87268  eV     1   --> A              
     e( 31 - 31) =      4.92067  eV     1   --> B              
     e( 32 - 32) =      5.17893  eV     1   --> B              
     e( 33 - 33) =      6.35552  eV     1   --> A              
     e( 34 - 34) =      6.66343  eV     1   --> B              
     e( 35 - 35) =      9.05092  eV     1   --> A              
     e( 36 - 36) =      9.13184  eV     1   --> B              
     e( 37 - 37) =      9.79450  eV     1   --> A              
     e( 38 - 38) =     10.36179  eV     1   --> B              
     e( 39 - 39) =     10.76742  eV     1   --> B              
     e( 40 - 40) =     11.02094  eV     1   --> A              

 **************************************************************************

 **************************************************************************

                    xk=(  -0.28571,   0.49487,   0.00000  )

     Band symmetry, C_2  (2)    point group:

     e(  1 -  2) =    -58.94529  eV     2   --> A              
     e(  1 -  2) =    -58.94529  eV     2   --> B              
     e(  3 -  4) =    -33.23789  eV     2   --> A              
     e(  3 -  4) =    -33.23789  eV     2   --> B              
     e(  5 -  6) =    -33.13036  eV     2   --> A              
     e(  5 -  6) =    -33.13036  eV     2   --> B              
     e(  7 -  8) =    -33.06616  eV     2   --> A              
     e(  7 -  8) =    -33.06616  eV     2   --> B              
     e(  9 -  9) =    -10.21576  eV     1   --> A              
     e( 10 - 10) =    -10.17053  eV     1   --> B              
     e( 11 - 11) =    -10.10977  eV     1   --> A              
     e( 12 - 12) =    -10.07983  eV     1   --> B              
     e( 13 - 13) =     -3.46683  eV     1   --> A              
     e( 14 - 14) =     -3.38546  eV     1   --> B              
     e( 15 - 15) =     -3.17838  eV     1   --> A              
     e( 16 - 16) =     -3.08157  eV     1   --> B              
     e( 17 - 17) =     -1.92821  eV     1   --> B              
     e( 18 - 18) =     -1.82193  eV     1   --> A              
     e( 19 - 19) =     -1.69441  eV     1   --> A              
     e( 20 - 20) =     -1.44859  eV     1   --> B              
     e( 21 - 21) =     -1.30776  eV     1   --> A              
     e( 22 - 22) =     -1.04780  eV     1   --> B              
     e( 23 - 23) =     -0.22422  eV     1   --> B              
     e( 24 - 24) =     -0.00268  eV     1   --> A              
     e( 25 - 25) =      1.54154  eV     1   --> A              
     e( 26 - 26) =      1.61705  eV     1   --> B              
     e( 27 - 27) =      3.73363  eV     1   --> A              
     e( 28 - 28) =      3.81085  eV     1   --> B              
     e( 29 - 29) =      4.61368  eV     1   --> A              
     e( 30 - 30) =      5.01825  eV     1   --> A              
     e( 31 - 31) =      5.04772  eV     1   --> B              
     e( 32 - 32) =      5.21369  eV     1   --> B              
     e( 33 - 33) =      6.45120  eV     1   --> A              
     e( 34 - 34) =      6.69809  eV     1   --> B              
     e( 35 - 35) =      8.86491  eV     1   --> A              
     e( 36 - 36) =      9.09803  eV     1   --> B              
     e( 37 - 37) =      9.68260  eV     1   --> A              
     e( 38 - 38) =     10.21146  eV     1   --> B              
     e( 39 - 39) =     10.89374  eV     1   --> B              
     e( 40 - 40) =     11.20685  eV     1   --> A              

 **************************************************************************

 **************************************************************************

                    xk=(  -0.30158,   0.52237,   0.00000  )

     Band symmetry, C_2  (2)    point group:

     e(  1 -  2) =    -58.94442  eV     2   --> A              
     e(  1 -  2) =    -58.94442  eV     2   --> B              
     e(  3 -  4) =    -33.23023  eV     2   --> A              
     e(  3 -  4) =    -33.23023  eV     2   --> B              
     e(  5 -  6) =    -33.14853  eV     2   --> A              
     e(  5 -  6) =    -33.14853  eV     2   --> B              
     e(  7 -  8) =    -33.06444  eV     2   --> A              
     e(  7 -  8) =    -33.06444  eV     2   --> B              
     e(  9 -  9) =    -10.15388  eV     1   --> A              
     e( 10 - 10) =    -10.12260  eV     1   --> B              
     e( 11 - 11) =    -10.07837  eV     1   --> A              
     e( 12 - 12) =    -10.06123  eV     1   --> B              
     e( 13 - 13) =     -3.55485  eV     1   --> A              
     e( 14 - 14) =     -3.47259  eV     1   --> B              
     e( 15 - 15) =     -3.04148  eV     1   --> A              
     e( 16 - 16) =     -2.96414  eV     1   --> B              
     e( 17 - 17) =     -2.02548  eV     1   --> B              
     e( 18 - 18) =     -1.99129  eV     1   --> A              
     e( 19 - 19) =     -1.74289  eV     1   --> A              
     e( 20 - 20) =     -1.58607  eV     1   --> B              
     e( 21 - 21) =     -1.22561  eV     1   --> A              
     e( 22 - 22) =     -1.01367  eV     1   --> B              
     e( 23 - 23) =     -0.31093  eV     1   --> B              
     e( 24 - 24) =     -0.12131  eV     1   --> A              
     e( 25 - 25) =      1.64987  eV     1   --> A              
     e( 26 - 26) =      1.73123  eV     1   --> B              
     e( 27 - 27) =      3.63676  eV     1   --> A              
     e( 28 - 28) =      3.67225  eV     1   --> B              
     e( 29 - 29) =      4.58694  eV     1   --> A              
     e( 30 - 30) =      5.08206  eV     1   --> B              
     e( 31 - 31) =      5.16815  eV     1   --> A              
     e( 32 - 32) =      5.28376  eV     1   --> B              
     e( 33 - 33) =      6.54592  eV     1   --> A              
     e( 34 - 34) =      6.71766  eV     1   --> B              
     e( 35 - 35) =      8.72792  eV     1   --> A              
     e( 36 - 36) =      9.14477  eV     1   --> B              
     e( 37 - 37) =      9.57792  eV     1   --> A              
     e( 38 - 38) =      9.97381  eV     1   --> B              
     e( 39 - 39) =     11.09331  eV     1   --> B              
     e( 40 - 40) =     11.33559  eV     1   --> A              

 **************************************************************************

 **************************************************************************

                    xk=(  -0.31746,   0.54986,   0.00000  )

     Band symmetry, C_2  (2)    point group:

     e(  1 -  2) =    -58.94392  eV     2   --> A              
     e(  1 -  2) =    -58.94392  eV     2   --> B              
     e(  3 -  4) =    -33.22048  eV     2   --> A              
     e(  3 -  4) =    -33.22048  eV     2   --> B              
     e(  5 -  6) =    -33.16430  eV     2   --> A              
     e(  5 -  6) =    -33.16430  eV     2   --> B              
     e(  7 -  8) =    -33.06345  eV     2   --> A              
     e(  7 -  8) =    -33.06345  eV     2   --> B              
     e(  9 -  9) =    -10.11470  eV     1   --> A              
     e( 10 - 10) =    -10.09862  eV     1   --> B              
     e( 11 - 11) =    -10.05901  eV     1   --> A              
     e( 12 - 12) =    -10.05192  eV     1   --> B              
     e( 13 - 13) =     -3.60772  eV     1   --> A              
     e( 14 - 14) =     -3.52360  eV     1   --> B              
     e( 15 - 15) =     -2.88585  eV     1   --> A              
     e( 16 - 16) =     -2.84651  eV     1   --> B              
     e( 17 - 17) =     -2.19404  eV     1   --> A              
     e( 18 - 18) =     -2.12206  eV     1   --> B              
     e( 19 - 19) =     -1.74156  eV     1   --> A              
     e( 20 - 20) =     -1.68696  eV     1   --> B              
     e( 21 - 21) =     -1.13671  eV     1   --> A              
     e( 22 - 22) =     -1.01574  eV     1   --> B              
     e( 23 - 23) =     -0.33731  eV     1   --> B              
     e( 24 - 24) =     -0.22516  eV     1   --> A              
     e( 25 - 25) =      1.72533  eV     1   --> A              
     e( 26 - 26) =      1.80916  eV     1   --> B              
     e( 27 - 27) =      3.56098  eV     1   --> A              
     e( 28 - 28) =      3.57327  eV     1   --> B              
     e( 29 - 29) =      4.56005  eV     1   --> A              
     e( 30 - 30) =      5.07659  eV     1   --> B              
     e( 31 - 31) =      5.28246  eV     1   --> A              
     e( 32 - 32) =      5.33457  eV     1   --> B              
     e( 33 - 33) =      6.62762  eV     1   --> A              
     e( 34 - 34) =      6.71588  eV     1   --> B              
     e( 35 - 35) =      8.65263  eV     1   --> A              
     e( 36 - 36) =      9.27511  eV     1   --> B              
     e( 37 - 37) =      9.49567  eV     1   --> A              
     e( 38 - 38) =      9.73198  eV     1   --> B              
     e( 39 - 39) =     11.25890  eV     1   --> B              
     e( 40 - 40) =     11.39054  eV     1   --> A              

 **************************************************************************

 **************************************************************************

                    xk=(  -0.33333,   0.57735,   0.00000  )

     point group D_3 (32)   
     there are  3 classes
     the character table:

       E     2C3   3C2' 
A_1    1.00  1.00  1.00
A_2    1.00  1.00 -1.00
E      2.00 -1.00  0.00

     the symmetry operations in each class and the name of the first element:

     E        1
                                                                 
     2C3      3    4
                                                                 
     3C2'     2    5    6
                                                                 

     Band symmetry, D_3 (32)    point group:

     e(  1 -  2) =    -58.94376  eV     2   --> E              
     e(  3 -  4) =    -33.21472  eV     2   --> E              
     e(  5 -  6) =    -33.17196  eV     2   --> A_1            
     e(  5 -  6) =    -33.17196  eV     2   --> A_2            
     e(  7 -  8) =    -33.06310  eV     2   --> E              
     e(  9 - 10) =    -10.09676  eV     2   --> E              
     e( 11 - 12) =    -10.05091  eV     2   --> E              
     e( 13 - 13) =     -3.62497  eV     1   --> A_1            
     e( 14 - 14) =     -3.53999  eV     1   --> A_2            
     e( 15 - 16) =     -2.79353  eV     2   --> E              
     e( 17 - 17) =     -2.29741  eV     1   --> A_1            
     e( 18 - 18) =     -2.16442  eV     1   --> A_2            
     e( 19 - 20) =     -1.73524  eV     2   --> E              
     e( 21 - 22) =     -1.06136  eV     2   --> E              
     e( 23 - 24) =     -0.30217  eV     2   --> E              
     e( 25 - 25) =      1.75180  eV     1   --> A_1            
     e( 26 - 26) =      1.83600  eV     1   --> A_2            
     e( 27 - 28) =      3.53531  eV     2   --> E              
     e( 29 - 29) =      4.54839  eV     1   --> A_1            
     e( 30 - 30) =      5.07086  eV     1   --> A_2            
     e( 31 - 32) =      5.33725  eV     2   --> E              
     e( 33 - 34) =      6.68656  eV     2   --> E              
     e( 35 - 35) =      8.63330  eV     1   --> A_1            
     e( 36 - 37) =      9.45402  eV     2   --> E              
     e( 38 - 38) =      9.52567  eV     1   --> A_2            
     e( 39 - 40) =     11.36242  eV     2   --> E              

 **************************************************************************

 **************************************************************************

                    xk=(  -0.30303,   0.57735,   0.00000  )

     point group C_2  (2)   
     there are  2 classes
     the character table:

       E     C2   
A      1.00  1.00
B      1.00 -1.00

     the symmetry operations in each class and the name of the first element:

     E        1
                                                                 
     C2       2
                                                                 

     Band symmetry, C_2  (2)    point group:

     e(  1 -  2) =    -58.94389  eV     2   --> A              
     e(  1 -  2) =    -58.94389  eV     2   --> B              
     e(  3 -  4) =    -33.22079  eV     2   --> A              
     e(  3 -  4) =    -33.22079  eV     2   --> B              
     e(  5 -  6) =    -33.16432  eV     2   --> A              
     e(  5 -  6) =    -33.16432  eV     2   --> B              
     e(  7 -  8) =    -33.06337  eV     2   --> A              
     e(  7 -  8) =    -33.06337  eV     2   --> B              
     e(  9 -  9) =    -10.11162  eV     1   --> B              
     e( 10 - 10) =    -10.09765  eV     1   --> A              
     e( 11 - 11) =    -10.05771  eV     1   --> B              
     e( 12 - 12) =    -10.05182  eV     1   --> A              
     e( 13 - 13) =     -3.61018  eV     1   --> A              
     e( 14 - 14) =     -3.52628  eV     1   --> B              
     e( 15 - 15) =     -2.87601  eV     1   --> A              
     e( 16 - 16) =     -2.85159  eV     1   --> B              
     e( 17 - 17) =     -2.20365  eV     1   --> A              
     e( 18 - 18) =     -2.14434  eV     1   --> B              
     e( 19 - 19) =     -1.71188  eV     1   --> A              
     e( 20 - 20) =     -1.69455  eV     1   --> B              
     e( 21 - 21) =     -1.12703  eV     1   --> B              
     e( 22 - 22) =     -1.01991  eV     1   --> A              
     e( 23 - 23) =     -0.33812  eV     1   --> A              
     e( 24 - 24) =     -0.23319  eV     1   --> B              
     e( 25 - 25) =      1.73016  eV     1   --> A              
     e( 26 - 26) =      1.81466  eV     1   --> B              
     e( 27 - 27) =      3.55900  eV     1   --> B              
     e( 28 - 28) =      3.56671  eV     1   --> A              
     e( 29 - 29) =      4.56188  eV     1   --> A              
     e( 30 - 30) =      5.07912  eV     1   --> B              
     e( 31 - 31) =      5.29885  eV     1   --> B              
     e( 32 - 32) =      5.32726  eV     1   --> A              
     e( 33 - 33) =      6.62837  eV     1   --> B              
     e( 34 - 34) =      6.71453  eV     1   --> A              
     e( 35 - 35) =      8.63758  eV     1   --> A              
     e( 36 - 36) =      9.26750  eV     1   --> B              
     e( 37 - 37) =      9.48013  eV     1   --> A              
     e( 38 - 38) =      9.75630  eV     1   --> B              
     e( 39 - 39) =     11.26620  eV     1   --> A              
     e( 40 - 40) =     11.39721  eV     1   --> B              

 **************************************************************************

 **************************************************************************

                    xk=(  -0.27272,   0.57735,   0.00000  )

     Band symmetry, C_2  (2)    point group:

     e(  1 -  2) =    -58.94424  eV     2   --> A              
     e(  1 -  2) =    -58.94424  eV     2   --> B              
     e(  3 -  4) =    -33.23345  eV     2   --> A              
     e(  3 -  4) =    -33.23345  eV     2   --> B              
     e(  5 -  6) =    -33.14736  eV     2   --> A              
     e(  5 -  6) =    -33.14736  eV     2   --> B              
     e(  7 -  8) =    -33.06409  eV     2   --> A              
     e(  7 -  8) =    -33.06409  eV     2   --> B              
     e(  9 -  9) =    -10.13832  eV     1   --> B              
     e( 10 - 10) =    -10.11313  eV     1   --> A              
     e( 11 - 11) =    -10.07170  eV     1   --> B              
     e( 12 - 12) =    -10.05955  eV     1   --> A              
     e( 13 - 13) =     -3.56854  eV     1   --> A              
     e( 14 - 14) =     -3.48833  eV     1   --> B              
     e( 15 - 15) =     -3.04335  eV     1   --> A              
     e( 16 - 16) =     -2.97874  eV     1   --> B              
     e( 17 - 17) =     -2.14120  eV     1   --> B              
     e( 18 - 18) =     -2.05095  eV     1   --> A              
     e( 19 - 19) =     -1.62690  eV     1   --> A              
     e( 20 - 20) =     -1.53800  eV     1   --> B              
     e( 21 - 21) =     -1.18888  eV     1   --> B              
     e( 22 - 22) =     -1.01580  eV     1   --> A              
     e( 23 - 23) =     -0.33333  eV     1   --> A              
     e( 24 - 24) =     -0.15284  eV     1   --> B              
     e( 25 - 25) =      1.67622  eV     1   --> A              
     e( 26 - 26) =      1.76226  eV     1   --> B              
     e( 27 - 27) =      3.62735  eV     1   --> B              
     e( 28 - 28) =      3.64319  eV     1   --> A              
     e( 29 - 29) =      4.60651  eV     1   --> A              
     e( 30 - 30) =      5.10525  eV     1   --> B              
     e( 31 - 31) =      5.23561  eV     1   --> B              
     e( 32 - 32) =      5.26391  eV     1   --> A              
     e( 33 - 33) =      6.53926  eV     1   --> B              
     e( 34 - 34) =      6.70890  eV     1   --> A              
     e( 35 - 35) =      8.62501  eV     1   --> A              
     e( 36 - 36) =      9.05770  eV     1   --> B              
     e( 37 - 37) =      9.59705  eV     1   --> A              
     e( 38 - 38) =     10.06761  eV     1   --> B              
     e( 39 - 39) =     11.13004  eV     1   --> A              
     e( 40 - 40) =     11.37497  eV     1   --> B              

 **************************************************************************

 **************************************************************************

                    xk=(  -0.24242,   0.57735,   0.00000  )

     Band symmetry, C_2  (2)    point group:

     e(  1 -  2) =    -58.94475  eV     2   --> A              
     e(  1 -  2) =    -58.94475  eV     2   --> B              
     e(  3 -  4) =    -33.24743  eV     2   --> A              
     e(  3 -  4) =    -33.24743  eV     2   --> B              
     e(  5 -  6) =    -33.12702  eV     2   --> A              
     e(  5 -  6) =    -33.12702  eV     2   --> B              
     e(  7 -  8) =    -33.06511  eV     2   --> A              
     e(  7 -  8) =    -33.06511  eV     2   --> B              
     e(  9 -  9) =    -10.17313  eV     1   --> B              
     e( 10 - 10) =    -10.13916  eV     1   --> A              
     e( 11 - 11) =    -10.09139  eV     1   --> B              
     e( 12 - 12) =    -10.07295  eV     1   --> A              
     e( 13 - 13) =     -3.50623  eV     1   --> A              
     e( 14 - 14) =     -3.43202  eV     1   --> B              
     e( 15 - 15) =     -3.22091  eV     1   --> A              
     e( 16 - 16) =     -3.12944  eV     1   --> B              
     e( 17 - 17) =     -2.16970  eV     1   --> B              
     e( 18 - 18) =     -1.97392  eV     1   --> A              
     e( 19 - 19) =     -1.42827  eV     1   --> A              
     e( 20 - 20) =     -1.36631  eV     1   --> B              
     e( 21 - 21) =     -1.16722  eV     1   --> B              
     e( 22 - 22) =     -1.03465  eV     1   --> A              
     e( 23 - 23) =     -0.29951  eV     1   --> A              
     e( 24 - 24) =     -0.07680  eV     1   --> B              
     e( 25 - 25) =      1.60863  eV     1   --> A              
     e( 26 - 26) =      1.69716  eV     1   --> B              
     e( 27 - 27) =      3.72014  eV     1   --> B              
     e( 28 - 28) =      3.74649  eV     1   --> A              
     e( 29 - 29) =      4.68560  eV     1   --> A              
     e( 30 - 30) =      5.10750  eV     1   --> B              
     e( 31 - 31) =      5.16360  eV     1   --> A              
     e( 32 - 32) =      5.20665  eV     1   --> B              
     e( 33 - 33) =      6.42193  eV     1   --> B              
     e( 34 - 34) =      6.66629  eV     1   --> A              
     e( 35 - 35) =      8.57757  eV     1   --> A              
     e( 36 - 36) =      8.85946  eV     1   --> B              
     e( 37 - 37) =      9.80300  eV     1   --> A              
     e( 38 - 38) =     10.41078  eV     1   --> B              
     e( 39 - 39) =     10.98539  eV     1   --> A              
     e( 40 - 40) =     11.30774  eV     1   --> B              

 **************************************************************************

 **************************************************************************

                    xk=(  -0.21212,   0.57735,   0.00000  )

     Band symmetry, C_2  (2)    point group:

     e(  1 -  2) =    -58.94538  eV     2   --> A              
     e(  1 -  2) =    -58.94538  eV     2   --> B              
     e(  3 -  4) =    -33.26089  eV     2   --> A              
     e(  3 -  4) =    -33.26089  eV     2   --> B              
     e(  5 -  6) =    -33.10561  eV     2   --> A              
     e(  5 -  6) =    -33.10561  eV     2   --> B              
     e(  7 -  8) =    -33.06634  eV     2   --> A              
     e(  7 -  8) =    -33.06634  eV     2   --> B              
     e(  9 -  9) =    -10.21270  eV     1   --> B              
     e( 10 - 10) =    -10.17173  eV     1   --> A              
     e( 11 - 11) =    -10.11478  eV     1   --> B              
     e( 12 - 12) =    -10.09059  eV     1   --> A              
     e( 13 - 13) =     -3.45466  eV     1   --> A              
     e( 14 - 14) =     -3.36508  eV     1   --> B              
     e( 15 - 15) =     -3.36287  eV     1   --> A              
     e( 16 - 16) =     -3.28135  eV     1   --> B              
     e( 17 - 17) =     -2.20972  eV     1   --> B              
     e( 18 - 18) =     -1.96143  eV     1   --> A              
     e( 19 - 19) =     -1.36340  eV     1   --> B              
     e( 20 - 20) =     -1.21385  eV     1   --> A              
     e( 21 - 21) =     -0.99823  eV     1   --> A              
     e( 22 - 22) =     -0.91569  eV     1   --> B              
     e( 23 - 23) =     -0.25486  eV     1   --> A              
     e( 24 - 24) =     -0.01489  eV     1   --> B              
     e( 25 - 25) =      1.54221  eV     1   --> A              
     e( 26 - 26) =      1.63284  eV     1   --> B              
     e( 27 - 27) =      3.81931  eV     1   --> B              
     e( 28 - 28) =      3.85840  eV     1   --> A              
     e( 29 - 29) =      4.79231  eV     1   --> A              
     e( 30 - 30) =      5.02755  eV     1   --> B              
     e( 31 - 31) =      5.05166  eV     1   --> A              
     e( 32 - 32) =      5.28322  eV     1   --> B              
     e( 33 - 33) =      6.28314  eV     1   --> B              
     e( 34 - 34) =      6.58816  eV     1   --> A              
     e( 35 - 35) =      8.50006  eV     1   --> A              
     e( 36 - 36) =      8.67666  eV     1   --> B              
     e( 37 - 37) =     10.06633  eV     1   --> A              
     e( 38 - 38) =     10.74899  eV     1   --> B              
     e( 39 - 39) =     10.85843  eV     1   --> A              
     e( 40 - 40) =     11.22525  eV     1   --> B              

 **************************************************************************

 **************************************************************************

                    xk=(  -0.18182,   0.57735,   0.00000  )

     Band symmetry, C_2  (2)    point group:

     e(  1 -  2) =    -58.94607  eV     2   --> A              
     e(  1 -  2) =    -58.94607  eV     2   --> B              
     e(  3 -  4) =    -33.27328  eV     2   --> A              
     e(  3 -  4) =    -33.27328  eV     2   --> B              
     e(  5 -  6) =    -33.08465  eV     2   --> A              
     e(  5 -  6) =    -33.08465  eV     2   --> B              
     e(  7 -  8) =    -33.06767  eV     2   --> A              
     e(  7 -  8) =    -33.06767  eV     2   --> B              
     e(  9 -  9) =    -10.25390  eV     1   --> B              
     e( 10 - 10) =    -10.20731  eV     1   --> A              
     e( 11 - 11) =    -10.13979  eV     1   --> B              
     e( 12 - 12) =    -10.11068  eV     1   --> A              
     e( 13 - 13) =     -3.56832  eV     1   --> A              
     e( 14 - 14) =     -3.42725  eV     1   --> B              
     e( 15 - 15) =     -3.31415  eV     1   --> A              
     e( 16 - 16) =     -3.29236  eV     1   --> B              
     e( 17 - 17) =     -2.25011  eV     1   --> B              
     e( 18 - 18) =     -1.97326  eV     1   --> A              
[...]
     e( 29 - 29) =      4.29838  eV     1   --> A''            
     e( 30 - 30) =      4.41092  eV     1   --> A''            
     e( 31 - 31) =      4.43456  eV     1   --> A'             
     e( 32 - 32) =      4.70566  eV     1   --> A'             
     e( 33 - 33) =      5.31190  eV     1   --> A''            
     e( 34 - 34) =      5.39417  eV     1   --> A''            
     e( 35 - 35) =      7.86912  eV     1   --> A'             
     e( 36 - 36) =      7.90447  eV     1   --> A'             
     e( 37 - 37) =      9.12472  eV     1   --> A'             
     e( 38 - 38) =      9.89484  eV     1   --> A'             
     e( 39 - 39) =      9.94749  eV     1   --> A'             
     e( 40 - 40) =     10.34624  eV     1   --> A'             

 **************************************************************************

 **************************************************************************

                    xk=(   0.00000,   0.19245,   0.00000  )

     Band symmetry, C_s (m)     point group:

     e(  1 -  2) =    -58.97834  eV     2   -->   2 A'             
     e(  3 -  4) =    -33.13154  eV     2   -->   2 A'             
     e(  5 -  6) =    -33.02324  eV     2   -->   2 A'             
     e(  7 -  8) =    -32.94701  eV     2   -->   2 A''            
     e(  9 -  9) =    -11.94398  eV     1   --> A'             
     e( 10 - 10) =    -11.80845  eV     1   --> A'             
     e( 11 - 11) =    -10.91079  eV     1   --> A'             
     e( 12 - 12) =    -10.72060  eV     1   --> A'             
     e( 13 - 13) =     -3.65967  eV     1   --> A'             
     e( 14 - 14) =     -3.14818  eV     1   --> A'             
     e( 15 - 15) =     -1.53041  eV     1   --> A'             
     e( 16 - 16) =     -1.49244  eV     1   --> A'             
     e( 17 - 17) =     -1.32089  eV     1   --> A'             
     e( 18 - 18) =     -0.88747  eV     1   --> A'             
     e( 19 - 19) =     -0.34314  eV     1   --> A''            
     e( 20 - 20) =     -0.32555  eV     1   --> A''            
     e( 21 - 21) =     -0.20150  eV     1   --> A''            
     e( 22 - 22) =     -0.17164  eV     1   --> A''            
     e( 23 - 23) =      0.55514  eV     1   --> A'             
     e( 24 - 24) =      0.95533  eV     1   --> A'             
     e( 25 - 25) =      1.42212  eV     1   --> A'             
     e( 26 - 26) =      1.67141  eV     1   --> A'             
     e( 27 - 27) =      4.01685  eV     1   --> A'             
     e( 28 - 28) =      4.24323  eV     1   --> A'             
     e( 29 - 29) =      4.38599  eV     1   --> A'             
     e( 30 - 30) =      4.39516  eV     1   --> A''            
     e( 31 - 31) =      4.50714  eV     1   --> A''            
     e( 32 - 32) =      4.60465  eV     1   --> A'             
     e( 33 - 33) =      5.17357  eV     1   --> A''            
     e( 34 - 34) =      5.24019  eV     1   --> A''            
     e( 35 - 35) =      7.68994  eV     1   --> A'             
     e( 36 - 36) =      7.72707  eV     1   --> A'             
     e( 37 - 37) =      8.93512  eV     1   --> A'             
     e( 38 - 38) =      9.65702  eV     1   --> A'             
     e( 39 - 39) =      9.67867  eV     1   --> A'             
     e( 40 - 40) =     10.09008  eV     1   --> A'             

 **************************************************************************

 **************************************************************************

                    xk=(   0.00000,   0.16038,   0.00000  )

     Band symmetry, C_s (m)     point group:

     e(  1 -  2) =    -58.98115  eV     2   -->   2 A'             
     e(  3 -  4) =    -33.13708  eV     2   -->   2 A'             
     e(  5 -  6) =    -32.99522  eV     2   -->   2 A'             
     e(  7 -  8) =    -32.94059  eV     2   -->   2 A''            
     e(  9 -  9) =    -12.06190  eV     1   --> A'             
     e( 10 - 10) =    -11.92491  eV     1   --> A'             
     e( 11 - 11) =    -10.96394  eV     1   --> A'             
     e( 12 - 12) =    -10.76583  eV     1   --> A'             
     e( 13 - 13) =     -3.77285  eV     1   --> A'             
     e( 14 - 14) =     -3.25260  eV     1   --> A'             
     e( 15 - 15) =     -1.33066  eV     1   --> A'             
     e( 16 - 16) =     -1.30706  eV     1   --> A'             
     e( 17 - 17) =     -1.14260  eV     1   --> A'             
     e( 18 - 18) =     -0.65455  eV     1   --> A'             
     e( 19 - 19) =     -0.45994  eV     1   --> A''            
     e( 20 - 20) =     -0.44596  eV     1   --> A''            
     e( 21 - 21) =     -0.05887  eV     1   --> A''            
     e( 22 - 22) =     -0.03037  eV     1   --> A''            
     e( 23 - 23) =      0.57483  eV     1   --> A'             
     e( 24 - 24) =      0.98194  eV     1   --> A'             
     e( 25 - 25) =      1.49328  eV     1   --> A'             
     e( 26 - 26) =      1.85351  eV     1   --> A'             
     e( 27 - 27) =      4.18105  eV     1   --> A'             
     e( 28 - 28) =      4.32403  eV     1   --> A'             
     e( 29 - 29) =      4.38241  eV     1   --> A'             
     e( 30 - 30) =      4.49339  eV     1   --> A''            
     e( 31 - 31) =      4.54837  eV     1   --> A'             
     e( 32 - 32) =      4.60295  eV     1   --> A''            
     e( 33 - 33) =      5.03504  eV     1   --> A''            
     e( 34 - 34) =      5.08711  eV     1   --> A''            
     e( 35 - 35) =      7.53099  eV     1   --> A'             
     e( 36 - 36) =      7.56953  eV     1   --> A'             
     e( 37 - 37) =      8.76707  eV     1   --> A'             
     e( 38 - 38) =      9.32777  eV     1   --> A'             
     e( 39 - 39) =      9.34344  eV     1   --> A'             
     e( 40 - 40) =      9.88721  eV     1   --> A'             

 **************************************************************************

 **************************************************************************

                    xk=(   0.00000,   0.12830,   0.00000  )

     Band symmetry, C_s (m)     point group:

     e(  1 -  2) =    -58.98358  eV     2   -->   2 A'             
     e(  3 -  4) =    -33.14187  eV     2   -->   2 A'             
     e(  5 -  6) =    -32.97088  eV     2   -->   2 A'             
     e(  7 -  8) =    -32.93502  eV     2   -->   2 A''            
     e(  9 -  9) =    -12.16128  eV     1   --> A'             
     e( 10 - 10) =    -12.02326  eV     1   --> A'             
     e( 11 - 11) =    -11.00877  eV     1   --> A'             
     e( 12 - 12) =    -10.80414  eV     1   --> A'             
     e( 13 - 13) =     -3.87640  eV     1   --> A'             
     e( 14 - 14) =     -3.35219  eV     1   --> A'             
     e( 15 - 15) =     -1.14383  eV     1   --> A'             
     e( 16 - 16) =     -1.12850  eV     1   --> A'             
     e( 17 - 17) =     -0.97027  eV     1   --> A'             
     e( 18 - 18) =     -0.56045  eV     1   --> A''            
     e( 19 - 19) =     -0.54916  eV     1   --> A''            
     e( 20 - 20) =     -0.42408  eV     1   --> A'             
     e( 21 - 21) =      0.07370  eV     1   --> A''            
     e( 22 - 22) =      0.10061  eV     1   --> A''            
     e( 23 - 23) =      0.55943  eV     1   --> A'             
     e( 24 - 24) =      0.96014  eV     1   --> A'             
     e( 25 - 25) =      1.53789  eV     1   --> A'             
     e( 26 - 26) =      2.00525  eV     1   --> A'             
     e( 27 - 27) =      4.36860  eV     1   --> A'             
     e( 28 - 28) =      4.41828  eV     1   --> A'             
     e( 29 - 29) =      4.42022  eV     1   --> A'             
     e( 30 - 30) =      4.54715  eV     1   --> A'             
     e( 31 - 31) =      4.58596  eV     1   --> A''            
     e( 32 - 32) =      4.69216  eV     1   --> A''            
     e( 33 - 33) =      4.90478  eV     1   --> A''            
     e( 34 - 34) =      4.94315  eV     1   --> A''            
     e( 35 - 35) =      7.39370  eV     1   --> A'             
     e( 36 - 36) =      7.43348  eV     1   --> A'             
     e( 37 - 37) =      8.61524  eV     1   --> A'             
     e( 38 - 38) =      8.98893  eV     1   --> A'             
     e( 39 - 39) =      8.99387  eV     1   --> A'             
     e( 40 - 40) =      9.73938  eV     1   --> A'             

 **************************************************************************

 **************************************************************************

                    xk=(   0.00000,   0.09623,   0.00000  )

     Band symmetry, C_s (m)     point group:

     e(  1 -  2) =    -58.98554  eV     2   -->   2 A'             
     e(  3 -  3) =    -33.14576  eV     1   --> A'             
     e(  4 -  4) =    -33.14566  eV     1   --> A'             
     e(  5 -  6) =    -32.95107  eV     2   -->   2 A'             
     e(  7 -  8) =    -32.93053  eV     2   -->   2 A''            
     e(  9 -  9) =    -12.24037  eV     1   --> A'             
     e( 10 - 10) =    -12.10166  eV     1   --> A'             
     e( 11 - 11) =    -11.04447  eV     1   --> A'             
     e( 12 - 12) =    -10.83472  eV     1   --> A'             
     e( 13 - 13) =     -3.96304  eV     1   --> A'             
     e( 14 - 14) =     -3.43718  eV     1   --> A'             
     e( 15 - 15) =     -0.98190  eV     1   --> A'             
     e( 16 - 16) =     -0.97125  eV     1   --> A'             
     e( 17 - 17) =     -0.80991  eV     1   --> A'             
     e( 18 - 18) =     -0.64139  eV     1   --> A''            
     e( 19 - 19) =     -0.63217  eV     1   --> A''            
     e( 20 - 20) =     -0.19826  eV     1   --> A'             
     e( 21 - 21) =      0.18853  eV     1   --> A''            
     e( 22 - 22) =      0.21392  eV     1   --> A''            
     e( 23 - 23) =      0.51485  eV     1   --> A'             
     e( 24 - 24) =      0.89000  eV     1   --> A'             
     e( 25 - 25) =      1.56187  eV     1   --> A'             
     e( 26 - 26) =      2.11975  eV     1   --> A'             
     e( 27 - 27) =      4.48166  eV     1   --> A'             
     e( 28 - 28) =      4.49590  eV     1   --> A'             
     e( 29 - 29) =      4.55686  eV     1   --> A'             
     e( 30 - 30) =      4.61326  eV     1   --> A'             
     e( 31 - 31) =      4.66177  eV     1   --> A''            
     e( 32 - 32) =      4.76428  eV     1   --> A''            
     e( 33 - 33) =      4.79597  eV     1   --> A''            
     e( 34 - 34) =      4.82174  eV     1   --> A''            
     e( 35 - 35) =      7.27935  eV     1   --> A'             
     e( 36 - 36) =      7.32059  eV     1   --> A'             
     e( 37 - 37) =      8.45979  eV     1   --> A'             
     e( 38 - 38) =      8.67317  eV     1   --> A'             
     e( 39 - 39) =      8.72117  eV     1   --> A'             
     e( 40 - 40) =      9.62991  eV     1   --> A'             

 **************************************************************************

 **************************************************************************

                    xk=(   0.00000,   0.06415,   0.00000  )

     Band symmetry, C_s (m)     point group:

     e(  1 -  2) =    -58.98699  eV     2   -->   2 A'             
     e(  3 -  3) =    -33.14864  eV     1   --> A'             
     e(  4 -  4) =    -33.14852  eV     1   --> A'             
     e(  5 -  6) =    -32.93648  eV     2   -->   2 A'             
     e(  7 -  8) =    -32.92723  eV     2   -->   2 A''            
     e(  9 -  9) =    -12.29782  eV     1   --> A'             
     e( 10 - 10) =    -12.15868  eV     1   --> A'             
     e( 11 - 11) =    -11.07040  eV     1   --> A'             
     e( 12 - 12) =    -10.85698  eV     1   --> A'             
     e( 13 - 13) =     -4.02793  eV     1   --> A'             
     e( 14 - 14) =     -3.50145  eV     1   --> A'             
     e( 15 - 15) =     -0.85617  eV     1   --> A'             
     e( 16 - 16) =     -0.84806  eV     1   --> A'             
     e( 17 - 17) =     -0.70062  eV     1   --> A''            
     e( 18 - 18) =     -0.69291  eV     1   --> A''            
     e( 19 - 19) =     -0.67164  eV     1   --> A'             
     e( 20 - 20) =      0.01981  eV     1   --> A'             
     e( 21 - 21) =      0.27801  eV     1   --> A''            
     e( 22 - 22) =      0.30212  eV     1   --> A''            
     e( 23 - 23) =      0.45464  eV     1   --> A'             
     e( 24 - 24) =      0.77756  eV     1   --> A'             
     e( 25 - 25) =      1.57253  eV     1   --> A'             
     e( 26 - 26) =      2.19673  eV     1   --> A'             
     e( 27 - 27) =      4.54725  eV     1   --> A'             
     e( 28 - 28) =      4.55513  eV     1   --> A'             
     e( 29 - 29) =      4.67070  eV     1   --> A''            
     e( 30 - 30) =      4.69807  eV     1   --> A'             
     e( 31 - 31) =      4.71135  eV     1   --> A''            
     e( 32 - 32) =      4.73210  eV     1   --> A'             
     e( 33 - 33) =      4.76160  eV     1   --> A''            
     e( 34 - 34) =      4.83430  eV     1   --> A''            
     e( 35 - 35) =      7.19036  eV     1   --> A'             
     e( 36 - 36) =      7.23359  eV     1   --> A'             
     e( 37 - 37) =      8.28532  eV     1   --> A'             
     e( 38 - 38) =      8.42341  eV     1   --> A'             
     e( 39 - 39) =      8.56584  eV     1   --> A'             
     e( 40 - 40) =      9.55274  eV     1   --> A'             

 **************************************************************************

 **************************************************************************

                    xk=(   0.00000,   0.03208,   0.00000  )

     Band symmetry, C_s (m)     point group:

     e(  1 -  2) =    -58.98788  eV     2   -->   2 A'             
     e(  3 -  3) =    -33.15039  eV     1   --> A'             
     e(  4 -  4) =    -33.15025  eV     1   --> A'             
     e(  5 -  6) =    -32.92749  eV     2   -->   2 A'             
     e(  7 -  8) =    -32.92516  eV     2   -->   2 A''            
     e(  9 -  9) =    -12.33267  eV     1   --> A'             
     e( 10 - 10) =    -12.19330  eV     1   --> A'             
     e( 11 - 11) =    -11.08613  eV     1   --> A'             
     e( 12 - 12) =    -10.87050  eV     1   --> A'             
     e( 13 - 13) =     -4.06799  eV     1   --> A'             
     e( 14 - 14) =     -3.54134  eV     1   --> A'             
     e( 15 - 15) =     -0.77626  eV     1   --> A'             
     e( 16 - 16) =     -0.76941  eV     1   --> A'             
     e( 17 - 17) =     -0.73670  eV     1   --> A''            
     e( 18 - 18) =     -0.72993  eV     1   --> A''            
     e( 19 - 19) =     -0.57267  eV     1   --> A'             
     e( 20 - 20) =      0.22297  eV     1   --> A'             
     e( 21 - 21) =      0.33514  eV     1   --> A''            
     e( 22 - 22) =      0.35838  eV     1   --> A''            
     e( 23 - 23) =      0.40030  eV     1   --> A'             
     e( 24 - 24) =      0.63496  eV     1   --> A'             
     e( 25 - 25) =      1.57620  eV     1   --> A'             
     e( 26 - 26) =      2.24003  eV     1   --> A'             
     e( 27 - 27) =      4.59047  eV     1   --> A'             
     e( 28 - 28) =      4.60627  eV     1   --> A'             
     e( 29 - 29) =      4.62473  eV     1   --> A''            
     e( 30 - 30) =      4.64814  eV     1   --> A''            
     e( 31 - 31) =      4.77607  eV     1   --> A'             
     e( 32 - 32) =      4.79135  eV     1   --> A''            
     e( 33 - 33) =      4.84289  eV     1   --> A'             
     e( 34 - 34) =      4.87090  eV     1   --> A''            
     e( 35 - 35) =      7.13182  eV     1   --> A'             
     e( 36 - 36) =      7.17724  eV     1   --> A'             
     e( 37 - 37) =      8.14779  eV     1   --> A'             
     e( 38 - 38) =      8.26441  eV     1   --> A'             
     e( 39 - 39) =      8.49475  eV     1   --> A'             
     e( 40 - 40) =      9.50648  eV     1   --> A'             

 **************************************************************************

 **************************************************************************

                    xk=(   0.00000,   0.00000,   0.00000  )

     point group D_3d (-3m) 
     there are  6 classes
     the character table:

       E     2C3   3C2'  i     2S6   3s_d 
A_1g   1.00  1.00  1.00  1.00  1.00  1.00
A_2g   1.00  1.00 -1.00  1.00  1.00 -1.00
E_g    2.00 -1.00  0.00  2.00 -1.00  0.00
A_1u   1.00  1.00  1.00 -1.00 -1.00 -1.00
A_2u   1.00  1.00 -1.00 -1.00 -1.00  1.00
E_u    2.00 -1.00  0.00 -2.00  1.00  0.00

     the symmetry operations in each class and the name of the first element:

     E        1
                                                                 
     2C3      3    4
                                                                 
     3C2'     2    5    6
                                                                 
     i        7
                                                                 
     2S6      9   10
                                                                 
     3s_d     8   11   12
                                                                 

     Band symmetry, D_3d (-3m)  point group:

     e(  1 -  2) =    -58.98818  eV     2   --> A_1g L_1       
     e(  1 -  2) =    -58.98818  eV     2   --> A_2u L_2'      
     e(  3 -  3) =    -33.15101  eV     1   --> A_1g L_1       
     e(  4 -  4) =    -33.15084  eV     1   --> A_2u L_2'      
     e(  5 -  8) =    -32.92452  eV     4   --> E_g  L_3       
     e(  5 -  8) =    -32.92452  eV     4   --> E_u  L_3'      
     e(  9 -  9) =    -12.34436  eV     1   --> A_1g L_1       
     e( 10 - 10) =    -12.20491  eV     1   --> A_2u L_2'      
     e( 11 - 11) =    -11.09141  eV     1   --> A_1g L_1       
     e( 12 - 12) =    -10.87503  eV     1   --> A_2u L_2'      
     e( 13 - 13) =     -4.08153  eV     1   --> A_1g L_1       
     e( 14 - 14) =     -3.55484  eV     1   --> A_2u L_2'      
     e( 15 - 16) =     -0.74882  eV     2   --> E_g  L_3       
     e( 17 - 18) =     -0.74237  eV     2   --> E_u  L_3'      
     e( 19 - 19) =     -0.53562  eV     1   --> A_1g L_1       
     e( 20 - 21) =      0.35477  eV     2   --> E_g  L_3       
     e( 22 - 23) =      0.37771  eV     2   --> E_u  L_3'      
     e( 24 - 24) =      0.52280  eV     1   --> A_2u L_2'      
     e( 25 - 25) =      1.57697  eV     1   --> A_1g L_1       
     e( 26 - 26) =      2.25388  eV     1   --> A_2u L_2'      
     e( 27 - 28) =      4.60645  eV     2   --> E_g  L_3       
     e( 29 - 30) =      4.62589  eV     2   --> E_u  L_3'      
     e( 31 - 32) =      4.80418  eV     2   --> E_g  L_3       
     e( 33 - 34) =      4.88364  eV     2   --> E_u  L_3'      
     e( 35 - 35) =      7.11103  eV     1   --> A_1g L_1       
     e( 36 - 36) =      7.15749  eV     1   --> A_2u L_2'      
     e( 37 - 37) =      8.09758  eV     1   --> A_1g L_1       
     e( 38 - 38) =      8.20989  eV     1   --> A_2u L_2'      
     e( 39 - 39) =      8.47357  eV     1   --> A_1g L_1       
     e( 40 - 40) =      9.49103  eV     1   --> A_2u L_2'      

 **************************************************************************

     BANDS        :     21.00s CPU     21.45s WALL


   This run was terminated on:  12:58:56  18Apr2024            

=------------------------------------------------------------------------------=
   JOB DONE.
=------------------------------------------------------------------------------=
