
     Program PWSCF v.7.2 starts on 18Apr2024 at 14:11:35 

     This program is part of the open-source Quantum ESPRESSO suite
     for quantum simulation of materials; please cite
         "P. Giannozzi et al., J. Phys.:Condens. Matter 21 395502 (2009);
         "P. Giannozzi et al., J. Phys.:Condens. Matter 29 465901 (2017);
         "P. Giannozzi et al., J. Chem. Phys. 152 154105 (2020);
          URL http://www.quantum-espresso.org", 
     in publications or presentations arising from this work. More details at
     http://www.quantum-espresso.org/quote

     Parallel version (MPI & OpenMP), running on       8 processor cores
     Number of MPI processes:                 8
     Threads/MPI process:                     1

     MPI processes distributed on     1 nodes
     0 MiB available memory on the printing compute node when the environment starts

     Waiting for input...
     Reading input from standard input
Warning: card &IONS ignored
Warning: card     ION_DYNAMICS='BFGS', ignored
Warning: card     UPSCALE=10 ignored
Warning: card / ignored
Warning: card &CELL ignored
Warning: card     CELL_DYNAMICS = 'BFGS' ignored
Warning: card     CELL_DOFREE = 'ALL' ignored
Warning: card / ignored

     Current dimensions of program PWSCF are:
     Max number of different atomic species (ntypx) = 10
     Max number of k-points (npk) =  40000
     Max angular momentum in pseudopotentials (lmaxx) =  4

     Atomic positions and unit cell read from directory:
     ./tmp/MoS2_2L_pbe_wsoc.save/
     Atomic positions from file used, from input discarded


     R & G space division:  proc/nbgrp/npool/nimage =       8
     Subspace diagonalization in iterative solution of the eigenvalue problem:
     a serial algorithm will be used


     Parallelization info
     --------------------
     sticks:   dense  smooth     PW     G-vecs:    dense   smooth      PW
     Min          85      85     24                14701    14701    2318
     Max          86      86     25                14726    14726    2353
     Sum         685     685    199               117747   117747   18769

     Using Slab Decomposition



     bravais-lattice index     =            4
     lattice parameter (alat)  =       5.9915  a.u.
     unit-cell volume          =    1490.1169 (a.u.)^3
     number of atoms/cell      =            6
     number of atomic types    =            2
     number of electrons       =        52.00
     number of Kohn-Sham states=           70
     kinetic-energy cutoff     =      70.0000  Ry
     charge density cutoff     =     280.0000  Ry
     Exchange-correlation= PBE
                           (   1   4   3   4   0   0   0)
     Non magnetic calculation with spin-orbit


     celldm(1)=   5.991468  celldm(2)=   0.000000  celldm(3)=   8.000000
     celldm(4)=   0.000000  celldm(5)=   0.000000  celldm(6)=   0.000000

     crystal axes: (cart. coord. in units of alat)
               a(1) = (   1.000000   0.000000   0.000000 )  
               a(2) = (  -0.500000   0.866025   0.000000 )  
               a(3) = (   0.000000   0.000000   8.000000 )  

     reciprocal axes: (cart. coord. in units 2 pi/alat)
               b(1) = (  1.000000  0.577350 -0.000000 )  
               b(2) = (  0.000000  1.154701  0.000000 )  
               b(3) = (  0.000000 -0.000000  0.125000 )  


     PseudoPot. # 1 for S  read from file:
     ../../../Pseudo/PBE/S_FR.upf
     MD5 check sum: a7319d53700e7dada26ada44d0048388
     Pseudo is Norm-conserving + core correction, Zval =  6.0
     Generated using ONCVPSP code by D. R. Hamann
     Using radial grid of 1146 points, 10 beta functions with: 
                l(1) =   0
                l(2) =   0
                l(3) =   1
                l(4) =   1
                l(5) =   1
                l(6) =   1
                l(7) =   2
                l(8) =   2
                l(9) =   2
               l(10) =   2

     PseudoPot. # 2 for Mo read from file:
     ../../../Pseudo/PBE/Mo_FR.upf
     MD5 check sum: 4e1c3579de4f68baf863f15f5be96aa1
     Pseudo is Norm-conserving + core correction, Zval = 14.0
     Generated using ONCVPSP code by D. R. Hamann
     Using radial grid of 1640 points, 10 beta functions with: 
                l(1) =   0
                l(2) =   0
                l(3) =   1
                l(4) =   1
                l(5) =   1
                l(6) =   1
                l(7) =   2
                l(8) =   2
                l(9) =   2
               l(10) =   2

     atomic species   valence    mass     pseudopotential
        S              6.00    32.06500     S ( 1.00)
        Mo            14.00   183.84000     Mo( 1.00)

     12 Sym. Ops., with inversion, found


                                    s                        frac. trans.

      isym =  1     identity                                     

 cryst.   s( 1) = (     1          0          0      )
                  (     0          1          0      )
                  (     0          0          1      )

 cart.    s( 1) = (  1.0000000  0.0000000  0.0000000 )
                  (  0.0000000  1.0000000  0.0000000 )
                  (  0.0000000  0.0000000  1.0000000 )


      isym =  2     180 deg rotation - cart. axis [1,0,0]        

 cryst.   s( 2) = (     1          0          0      )
                  (    -1         -1          0      )
                  (     0          0         -1      )

 cart.    s( 2) = (  1.0000000  0.0000000  0.0000000 )
                  (  0.0000000 -1.0000000  0.0000000 )
                  (  0.0000000  0.0000000 -1.0000000 )


      isym =  3     120 deg rotation - cryst. axis [0,0,1]       

 cryst.   s( 3) = (     0          1          0      )
                  (    -1         -1          0      )
                  (     0          0          1      )

 cart.    s( 3) = ( -0.5000000 -0.8660254  0.0000000 )
                  (  0.8660254 -0.5000000  0.0000000 )
                  (  0.0000000  0.0000000  1.0000000 )


      isym =  4     120 deg rotation - cryst. axis [0,0,-1]      

 cryst.   s( 4) = (    -1         -1          0      )
                  (     1          0          0      )
                  (     0          0          1      )

 cart.    s( 4) = ( -0.5000000  0.8660254  0.0000000 )
                  ( -0.8660254 -0.5000000  0.0000000 )
                  (  0.0000000  0.0000000  1.0000000 )


      isym =  5     180 deg rotation - cryst. axis [0,1,0]       

 cryst.   s( 5) = (    -1         -1          0      )
                  (     0          1          0      )
                  (     0          0         -1      )

 cart.    s( 5) = ( -0.5000000 -0.8660254  0.0000000 )
                  ( -0.8660254  0.5000000  0.0000000 )
                  (  0.0000000  0.0000000 -1.0000000 )


      isym =  6     180 deg rotation - cryst. axis [1,1,0]       

 cryst.   s( 6) = (     0          1          0      )
                  (     1          0          0      )
                  (     0          0         -1      )

 cart.    s( 6) = ( -0.5000000  0.8660254  0.0000000 )
                  (  0.8660254  0.5000000  0.0000000 )
                  (  0.0000000  0.0000000 -1.0000000 )


      isym =  7     inversion                                    

 cryst.   s( 7) = (    -1          0          0      )
                  (     0         -1          0      )
                  (     0          0         -1      )

 cart.    s( 7) = ( -1.0000000  0.0000000  0.0000000 )
                  (  0.0000000 -1.0000000  0.0000000 )
                  (  0.0000000  0.0000000 -1.0000000 )


      isym =  8     inv. 180 deg rotation - cart. axis [1,0,0]   

 cryst.   s( 8) = (    -1          0          0      )
                  (     1          1          0      )
                  (     0          0          1      )

 cart.    s( 8) = ( -1.0000000  0.0000000  0.0000000 )
                  (  0.0000000  1.0000000  0.0000000 )
                  (  0.0000000  0.0000000  1.0000000 )


      isym =  9     inv. 120 deg rotation - cryst. axis [0,0,1]  

 cryst.   s( 9) = (     0         -1          0      )
                  (     1          1          0      )
                  (     0          0         -1      )

 cart.    s( 9) = (  0.5000000  0.8660254  0.0000000 )
                  ( -0.8660254  0.5000000  0.0000000 )
                  (  0.0000000  0.0000000 -1.0000000 )


      isym = 10     inv. 120 deg rotation - cryst. axis [0,0,-1] 

 cryst.   s(10) = (     1          1          0      )
                  (    -1          0          0      )
                  (     0          0         -1      )

 cart.    s(10) = (  0.5000000 -0.8660254  0.0000000 )
                  (  0.8660254  0.5000000  0.0000000 )
                  (  0.0000000  0.0000000 -1.0000000 )


      isym = 11     inv. 180 deg rotation - cryst. axis [0,1,0]  

 cryst.   s(11) = (     1          1          0      )
                  (     0         -1          0      )
                  (     0          0          1      )

 cart.    s(11) = (  0.5000000  0.8660254  0.0000000 )
                  (  0.8660254 -0.5000000  0.0000000 )
                  (  0.0000000  0.0000000  1.0000000 )


      isym = 12     inv. 180 deg rotation - cryst. axis [1,1,0]  

 cryst.   s(12) = (     0         -1          0      )
                  (    -1          0          0      )
                  (     0          0          1      )

 cart.    s(12) = (  0.5000000 -0.8660254  0.0000000 )
                  ( -0.8660254 -0.5000000  0.0000000 )
                  (  0.0000000  0.0000000  1.0000000 )


     double point group D_3d (-3m) 
     there are 12 classes and  6 irreducible representations
     the character table:

       E     -E    2C3   -2C3  3C2'  -3C2' i     -i    2S6   -2S6  3s_v  -3s_v
                                                                              
G_4+   2.00 -2.00  1.00 -1.00  0.00  0.00  2.00 -2.00  1.00 -1.00  0.00  0.00
G_5+   1.00 -1.00 -1.00  1.00  0.00  0.00  1.00 -1.00 -1.00  1.00  0.00  0.00
G_6+   1.00 -1.00 -1.00  1.00  0.00  0.00  1.00 -1.00 -1.00  1.00  0.00  0.00
G_4-   2.00 -2.00  1.00 -1.00  0.00  0.00 -2.00  2.00 -1.00  1.00  0.00  0.00
G_5-   1.00 -1.00 -1.00  1.00  0.00  0.00 -1.00  1.00  1.00 -1.00  0.00  0.00
G_6-   1.00 -1.00 -1.00  1.00  0.00  0.00 -1.00  1.00  1.00 -1.00  0.00  0.00

     imaginary part

       E     -E    2C3   -2C3  3C2'  -3C2' i     -i    2S6   -2S6  3s_v  -3s_v
                                                                              
G_4+   0.00  0.00  0.00  0.00  0.00  0.00  0.00  0.00  0.00  0.00  0.00  0.00
G_5+   0.00  0.00  0.00  0.00  1.00 -1.00  0.00  0.00  0.00  0.00  1.00 -1.00
G_6+   0.00  0.00  0.00  0.00 -1.00  1.00  0.00  0.00  0.00  0.00 -1.00  1.00
G_4-   0.00  0.00  0.00  0.00  0.00  0.00  0.00  0.00  0.00  0.00  0.00  0.00
G_5-   0.00  0.00  0.00  0.00  1.00 -1.00  0.00  0.00  0.00  0.00 -1.00  1.00
G_6-   0.00  0.00  0.00  0.00 -1.00  1.00  0.00  0.00  0.00  0.00  1.00 -1.00

     the symmetry operations in each class and the name of the first element:

     E             1
          identity                                               
     -E           -1
          identity E                                             
     2C3           3    4
          120 deg rotation - cryst. axis [0,0,1]                 
     -2C3         -3   -4
          120 deg rotation - cryst. axis [0,0,1] E               
     3C2'          5    6   -2
          180 deg rotation - cryst. axis [0,1,0]                 
     -3C2'         2   -5   -6
          180 deg rotation - cart. axis [1,0,0]                  
     i             7
          inversion                                              
     -i           -7
          inversion E                                            
     2S6           9   10
          inv. 120 deg rotation - cryst. axis [0,0,1]            
     -2S6         -9  -10
          inv. 120 deg rotation - cryst. axis [0,0,1] E          
     3s_v         11   12   -8
          inv. 180 deg rotation - cryst. axis [0,1,0]            
     -3s_v         8  -11  -12
          inv. 180 deg rotation - cart. axis [1,0,0]             

   Cartesian axes

     site n.     atom                  positions (alat units)
         1           Mo  tau(   1) = (  -0.0000003   0.5773503  -0.9752993  )
         2           Mo  tau(   2) = (   0.5000002   0.2886748   0.9752993  )
         3           S   tau(   3) = (   0.5000002   0.2886748  -0.4799475  )
         4           S   tau(   4) = (  -0.0000003   0.5773503   0.4799475  )
         5           S   tau(   5) = (  -0.0000003   0.5773503   1.4700984  )
         6           S   tau(   6) = (   0.5000002   0.2886748  -1.4700984  )

   Crystallographic axes

     site n.     atom                  positions (cryst. coord.)
         1           Mo  tau(   1) = (  0.3333330  0.6666667 -0.1219124  )
         2           Mo  tau(   2) = (  0.6666667  0.3333330  0.1219124  )
         3           S   tau(   3) = (  0.6666667  0.3333330 -0.0599934  )
         4           S   tau(   4) = (  0.3333330  0.6666667  0.0599934  )
         5           S   tau(   5) = (  0.3333330  0.6666667  0.1837623  )
         6           S   tau(   6) = (  0.6666667  0.3333330 -0.1837623  )

     number of k points=    51  Marzari-Vanderbilt smearing, width (Ry)=  0.0050
                       cart. coord. in units 2pi/alat
        k(    1) = (   0.0000000   0.0000000   0.0000000), wk =   0.0196078
        k(    2) = (  -0.0158729   0.0274930   0.0000000), wk =   0.0196078
        k(    3) = (  -0.0317457   0.0549860   0.0000000), wk =   0.0196078
        k(    4) = (  -0.0476186   0.0824789   0.0000000), wk =   0.0196078
        k(    5) = (  -0.0634914   0.1099719   0.0000000), wk =   0.0196078
        k(    6) = (  -0.0793643   0.1374649   0.0000000), wk =   0.0196078
        k(    7) = (  -0.0952371   0.1649579   0.0000000), wk =   0.0196078
        k(    8) = (  -0.1111100   0.1924509   0.0000000), wk =   0.0196078
        k(    9) = (  -0.1269829   0.2199438   0.0000000), wk =   0.0196078
        k(   10) = (  -0.1428557   0.2474368   0.0000000), wk =   0.0196078
        k(   11) = (  -0.1587286   0.2749298   0.0000000), wk =   0.0196078
        k(   12) = (  -0.1746014   0.3024228   0.0000000), wk =   0.0196078
        k(   13) = (  -0.1904743   0.3299158   0.0000000), wk =   0.0196078
        k(   14) = (  -0.2063471   0.3574087   0.0000000), wk =   0.0196078
        k(   15) = (  -0.2222200   0.3849017   0.0000000), wk =   0.0196078
        k(   16) = (  -0.2380929   0.4123947   0.0000000), wk =   0.0196078
        k(   17) = (  -0.2539657   0.4398877   0.0000000), wk =   0.0196078
        k(   18) = (  -0.2698386   0.4673807   0.0000000), wk =   0.0196078
        k(   19) = (  -0.2857114   0.4948736   0.0000000), wk =   0.0196078
        k(   20) = (  -0.3015843   0.5223666   0.0000000), wk =   0.0196078
        k(   21) = (  -0.3174571   0.5498596   0.0000000), wk =   0.0196078
        k(   22) = (  -0.3333300   0.5773526   0.0000000), wk =   0.0196078
        k(   23) = (  -0.3030273   0.5773524   0.0000000), wk =   0.0196078
        k(   24) = (  -0.2727245   0.5773522   0.0000000), wk =   0.0196078
        k(   25) = (  -0.2424218   0.5773519   0.0000000), wk =   0.0196078
        k(   26) = (  -0.2121191   0.5773517   0.0000000), wk =   0.0196078
        k(   27) = (  -0.1818164   0.5773515   0.0000000), wk =   0.0196078
        k(   28) = (  -0.1515136   0.5773513   0.0000000), wk =   0.0196078
        k(   29) = (  -0.1212109   0.5773511   0.0000000), wk =   0.0196078
        k(   30) = (  -0.0909082   0.5773509   0.0000000), wk =   0.0196078
        k(   31) = (  -0.0606055   0.5773507   0.0000000), wk =   0.0196078
        k(   32) = (  -0.0303027   0.5773505   0.0000000), wk =   0.0196078
        k(   33) = (   0.0000000   0.5773503   0.0000000), wk =   0.0196078
        k(   34) = (   0.0000000   0.5452753   0.0000000), wk =   0.0196078
        k(   35) = (   0.0000000   0.5132002   0.0000000), wk =   0.0196078
        k(   36) = (   0.0000000   0.4811252   0.0000000), wk =   0.0196078
        k(   37) = (   0.0000000   0.4490502   0.0000000), wk =   0.0196078
        k(   38) = (   0.0000000   0.4169752   0.0000000), wk =   0.0196078
        k(   39) = (   0.0000000   0.3849002   0.0000000), wk =   0.0196078
        k(   40) = (   0.0000000   0.3528252   0.0000000), wk =   0.0196078
        k(   41) = (   0.0000000   0.3207501   0.0000000), wk =   0.0196078
        k(   42) = (   0.0000000   0.2886751   0.0000000), wk =   0.0196078
        k(   43) = (   0.0000000   0.2566001   0.0000000), wk =   0.0196078
        k(   44) = (   0.0000000   0.2245251   0.0000000), wk =   0.0196078
        k(   45) = (   0.0000000   0.1924501   0.0000000), wk =   0.0196078
        k(   46) = (   0.0000000   0.1603751   0.0000000), wk =   0.0196078
        k(   47) = (   0.0000000   0.1283001   0.0000000), wk =   0.0196078
        k(   48) = (   0.0000000   0.0962250   0.0000000), wk =   0.0196078
        k(   49) = (   0.0000000   0.0641500   0.0000000), wk =   0.0196078
        k(   50) = (   0.0000000   0.0320750   0.0000000), wk =   0.0196078
        k(   51) = (   0.0000000   0.0000000   0.0000000), wk =   0.0196078

                       cryst. coord.
        k(    1) = (   0.0000000   0.0000000   0.0000000), wk =   0.0196078
        k(    2) = (  -0.0158729   0.0317460   0.0000000), wk =   0.0196078
        k(    3) = (  -0.0317457   0.0634921   0.0000000), wk =   0.0196078
        k(    4) = (  -0.0476186   0.0952381   0.0000000), wk =   0.0196078
        k(    5) = (  -0.0634914   0.1269842   0.0000000), wk =   0.0196078
        k(    6) = (  -0.0793643   0.1587302   0.0000000), wk =   0.0196078
        k(    7) = (  -0.0952371   0.1904763   0.0000000), wk =   0.0196078
        k(    8) = (  -0.1111100   0.2222223   0.0000000), wk =   0.0196078
        k(    9) = (  -0.1269829   0.2539684   0.0000000), wk =   0.0196078
        k(   10) = (  -0.1428557   0.2857144   0.0000000), wk =   0.0196078
        k(   11) = (  -0.1587286   0.3174605   0.0000000), wk =   0.0196078
        k(   12) = (  -0.1746014   0.3492065   0.0000000), wk =   0.0196078
        k(   13) = (  -0.1904743   0.3809526   0.0000000), wk =   0.0196078
        k(   14) = (  -0.2063471   0.4126986   0.0000000), wk =   0.0196078
        k(   15) = (  -0.2222200   0.4444447   0.0000000), wk =   0.0196078
        k(   16) = (  -0.2380929   0.4761907   0.0000000), wk =   0.0196078
        k(   17) = (  -0.2539657   0.5079368   0.0000000), wk =   0.0196078
        k(   18) = (  -0.2698386   0.5396828   0.0000000), wk =   0.0196078
        k(   19) = (  -0.2857114   0.5714289   0.0000000), wk =   0.0196078
        k(   20) = (  -0.3015843   0.6031749   0.0000000), wk =   0.0196078
        k(   21) = (  -0.3174571   0.6349210   0.0000000), wk =   0.0196078
        k(   22) = (  -0.3333300   0.6666670   0.0000000), wk =   0.0196078
        k(   23) = (  -0.3030273   0.6515155   0.0000000), wk =   0.0196078
        k(   24) = (  -0.2727245   0.6363639   0.0000000), wk =   0.0196078
        k(   25) = (  -0.2424218   0.6212124   0.0000000), wk =   0.0196078
        k(   26) = (  -0.2121191   0.6060608   0.0000000), wk =   0.0196078
        k(   27) = (  -0.1818164   0.5909093   0.0000000), wk =   0.0196078
        k(   28) = (  -0.1515136   0.5757577   0.0000000), wk =   0.0196078
        k(   29) = (  -0.1212109   0.5606062   0.0000000), wk =   0.0196078
        k(   30) = (  -0.0909082   0.5454546   0.0000000), wk =   0.0196078
        k(   31) = (  -0.0606055   0.5303031   0.0000000), wk =   0.0196078
        k(   32) = (  -0.0303027   0.5151515   0.0000000), wk =   0.0196078
        k(   33) = (   0.0000000   0.5000000   0.0000000), wk =   0.0196078
        k(   34) = (   0.0000000   0.4722222   0.0000000), wk =   0.0196078
        k(   35) = (   0.0000000   0.4444444   0.0000000), wk =   0.0196078
        k(   36) = (   0.0000000   0.4166667   0.0000000), wk =   0.0196078
        k(   37) = (   0.0000000   0.3888889   0.0000000), wk =   0.0196078
        k(   38) = (   0.0000000   0.3611111   0.0000000), wk =   0.0196078
        k(   39) = (   0.0000000   0.3333333   0.0000000), wk =   0.0196078
        k(   40) = (   0.0000000   0.3055556   0.0000000), wk =   0.0196078
        k(   41) = (   0.0000000   0.2777778   0.0000000), wk =   0.0196078
        k(   42) = (   0.0000000   0.2500000   0.0000000), wk =   0.0196078
        k(   43) = (   0.0000000   0.2222222   0.0000000), wk =   0.0196078
        k(   44) = (   0.0000000   0.1944444   0.0000000), wk =   0.0196078
        k(   45) = (   0.0000000   0.1666667   0.0000000), wk =   0.0196078
        k(   46) = (   0.0000000   0.1388889   0.0000000), wk =   0.0196078
        k(   47) = (   0.0000000   0.1111111   0.0000000), wk =   0.0196078
        k(   48) = (   0.0000000   0.0833333   0.0000000), wk =   0.0196078
        k(   49) = (   0.0000000   0.0555556   0.0000000), wk =   0.0196078
        k(   50) = (   0.0000000   0.0277778   0.0000000), wk =   0.0196078
        k(   51) = (   0.0000000   0.0000000   0.0000000), wk =   0.0196078

     Dense  grid:   117747 G-vectors     FFT dimensions: (  32,  32, 256)

     Dynamical RAM for                 wfc:       3.93 MB

     Dynamical RAM for     wfc (w. buffer):       3.93 MB

     Dynamical RAM for           str. fact:       0.45 MB

     Dynamical RAM for           local pot:       0.00 MB

     Dynamical RAM for          nlocal pot:       5.73 MB

     Dynamical RAM for                qrad:       7.04 MB

     Dynamical RAM for          rho,v,vnew:       5.70 MB

     Dynamical RAM for           G-vectors:       0.95 MB

     Dynamical RAM for          h,s,v(r/c):       0.90 MB

     Dynamical RAM for          <psi|beta>:       0.44 MB

     Dynamical RAM for                 psi:       7.87 MB

     Dynamical RAM for                hpsi:       7.87 MB

     Dynamical RAM for      wfcinit/wfcrot:       6.19 MB

     Estimated static dynamical RAM per process >      26.48 MB

     Estimated max dynamical RAM per process >      43.55 MB

     Estimated total dynamical RAM >     348.42 MB

     The potential is recalculated from file :
     ./tmp/MoS2_2L_pbe_wsoc.save/charge-density

     Starting wfcs are   72 randomized atomic wfcs

     Band Structure Calculation
     Davidson diagonalization with overlap

     Computing kpt #:     1  of    51
     total cpu time spent up to now is        9.5 secs

     Computing kpt #:     2  of    51
     total cpu time spent up to now is       18.1 secs

     Computing kpt #:     3  of    51
     total cpu time spent up to now is       26.8 secs

     Computing kpt #:     4  of    51
     total cpu time spent up to now is       35.5 secs

     Computing kpt #:     5  of    51
     total cpu time spent up to now is       45.3 secs

     Computing kpt #:     6  of    51
     total cpu time spent up to now is       55.0 secs

     Computing kpt #:     7  of    51
     total cpu time spent up to now is       65.0 secs

     Computing kpt #:     8  of    51
     total cpu time spent up to now is       73.8 secs

     Computing kpt #:     9  of    51
     total cpu time spent up to now is       83.7 secs

     Computing kpt #:    10  of    51
     total cpu time spent up to now is       92.5 secs

     Computing kpt #:    11  of    51
     total cpu time spent up to now is      101.8 secs

     Computing kpt #:    12  of    51
     total cpu time spent up to now is      110.8 secs

     Computing kpt #:    13  of    51
     total cpu time spent up to now is      121.5 secs

     Computing kpt #:    14  of    51
     total cpu time spent up to now is      133.5 secs

     Computing kpt #:    15  of    51
     total cpu time spent up to now is      144.9 secs

     Computing kpt #:    16  of    51
     total cpu time spent up to now is      155.0 secs

     Computing kpt #:    17  of    51
     total cpu time spent up to now is      167.0 secs

     Computing kpt #:    18  of    51
     total cpu time spent up to now is      178.0 secs

     Computing kpt #:    19  of    51
     total cpu time spent up to now is      188.9 secs

     Computing kpt #:    20  of    51
     total cpu time spent up to now is      198.4 secs

     Computing kpt #:    21  of    51
     total cpu time spent up to now is      206.5 secs

     Computing kpt #:    22  of    51
     total cpu time spent up to now is      214.3 secs

     Computing kpt #:    23  of    51
     total cpu time spent up to now is      222.3 secs

     Computing kpt #:    24  of    51
     total cpu time spent up to now is      230.3 secs

     Computing kpt #:    25  of    51
     total cpu time spent up to now is      238.4 secs

     Computing kpt #:    26  of    51
     total cpu time spent up to now is      246.7 secs

     Computing kpt #:    27  of    51
     total cpu time spent up to now is      255.0 secs

     Computing kpt #:    28  of    51
     total cpu time spent up to now is      263.2 secs

     Computing kpt #:    29  of    51
     total cpu time spent up to now is      272.5 secs

     Computing kpt #:    30  of    51
     total cpu time spent up to now is      281.1 secs

     Computing kpt #:    31  of    51
     total cpu time spent up to now is      289.7 secs

     Computing kpt #:    32  of    51
     total cpu time spent up to now is      297.9 secs

     Computing kpt #:    33  of    51
     total cpu time spent up to now is      306.2 secs

     Computing kpt #:    34  of    51
     total cpu time spent up to now is      314.8 secs

     Computing kpt #:    35  of    51
     total cpu time spent up to now is      323.1 secs

     Computing kpt #:    36  of    51
     total cpu time spent up to now is      331.4 secs

     Computing kpt #:    37  of    51
     total cpu time spent up to now is      339.6 secs

     Computing kpt #:    38  of    51
     total cpu time spent up to now is      348.6 secs

     Computing kpt #:    39  of    51
     c_bands:  1 eigenvalues not converged
     total cpu time spent up to now is      359.6 secs

     Computing kpt #:    40  of    51
     total cpu time spent up to now is      368.5 secs

     Computing kpt #:    41  of    51
     total cpu time spent up to now is      377.4 secs

     Computing kpt #:    42  of    51
     total cpu time spent up to now is      386.3 secs

     Computing kpt #:    43  of    51
     total cpu time spent up to now is      395.5 secs

     Computing kpt #:    44  of    51
     total cpu time spent up to now is      404.4 secs

     Computing kpt #:    45  of    51
     total cpu time spent up to now is      413.5 secs

     Computing kpt #:    46  of    51
     total cpu time spent up to now is      422.5 secs

     Computing kpt #:    47  of    51
     total cpu time spent up to now is      431.3 secs

     Computing kpt #:    48  of    51
     total cpu time spent up to now is      440.1 secs

     Computing kpt #:    49  of    51
     total cpu time spent up to now is      449.0 secs

     Computing kpt #:    50  of    51
     total cpu time spent up to now is      458.1 secs

     Computing kpt #:    51  of    51
     total cpu time spent up to now is      467.5 secs

     ethr =  1.92E-10,  avg # of iterations = 64.5

     total cpu time spent up to now is      467.5 secs

     End of band structure calculation

          k = 0.0000 0.0000 0.0000 ( 14593 PWs)   bands (ev):

   -58.8673 -58.8673 -58.8673 -58.8673 -34.5937 -34.5937 -34.5936 -34.5936
   -32.1670 -32.1670 -32.1669 -32.1669 -32.0069 -32.0069 -32.0068 -32.0068
   -12.2266 -12.2266 -12.0899 -12.0899 -10.9704 -10.9704 -10.7583 -10.7583
    -3.9532  -3.9532  -3.4393  -3.4393  -0.6419  -0.6419  -0.6358  -0.6358
    -0.5810  -0.5810  -0.5693  -0.5693  -0.3688  -0.3688   0.4467   0.4467
     0.4684   0.4684   0.5317   0.5317   0.5546   0.5546   0.6704   0.6704
     1.7476   1.7476   2.3963   2.3963   4.6934   4.6934   4.7123   4.7123
     4.7684   4.7684   4.7920   4.7920   4.9431   4.9431   4.9482   4.9482
     5.0220   5.0220   5.0222   5.0222   7.4214   7.4214

          k =-0.0159 0.0275 0.0000 ( 14574 PWs)   bands (ev):

   -58.8670 -58.8670 -58.8670 -58.8670 -34.5944 -34.5944 -34.5943 -34.5943
   -32.1673 -32.1673 -32.1672 -32.1672 -32.0088 -32.0088 -32.0088 -32.0088
   -12.2152 -12.2152 -12.0786 -12.0786 -10.9653 -10.9653 -10.7538 -10.7538
    -3.9400  -3.9400  -3.4262  -3.4262  -0.6550  -0.6550  -0.6483  -0.6483
    -0.5838  -0.5838  -0.5716  -0.5716  -0.4054  -0.4054   0.3507   0.3507
     0.4679   0.4679   0.4801   0.4801   0.5602   0.5602   0.7776   0.7776
     1.7463   1.7463   2.3823   2.3823   4.6920   4.6920   4.7087   4.7087
     4.7722   4.7722   4.7963   4.7963   4.9195   4.9195   4.9342   4.9342
     4.9847   4.9847   5.0098   5.0098   7.4409   7.4409

          k =-0.0317 0.0550 0.0000 ( 14596 PWs)   bands (ev):

   -58.8661 -58.8661 -58.8661 -58.8661 -34.5967 -34.5967 -34.5966 -34.5966
   -32.1683 -32.1683 -32.1682 -32.1682 -32.0146 -32.0146 -32.0145 -32.0145
   -12.1810 -12.1810 -12.0446 -12.0446 -10.9498 -10.9498 -10.7405 -10.7405
    -3.9009  -3.9009  -3.3874  -3.3874  -0.7229  -0.7229  -0.7136  -0.7136
    -0.5673  -0.5673  -0.5491  -0.5491  -0.4968  -0.4968   0.1596   0.1596
     0.4130   0.4130   0.4277   0.4277   0.6010   0.6010   0.9172   0.9172
     1.7412   1.7412   2.3388   2.3388   4.6596   4.6596   4.6774   4.6774
     4.7976   4.7976   4.8272   4.8272   4.8548   4.8548   4.8912   4.8912
     4.9101   4.9101   4.9739   4.9739   7.4959   7.4959

          k =-0.0476 0.0825 0.0000 ( 14584 PWs)   bands (ev):

   -58.8647 -58.8647 -58.8647 -58.8647 -34.6006 -34.6006 -34.6004 -34.6004
   -32.1700 -32.1700 -32.1698 -32.1698 -32.0241 -32.0241 -32.0235 -32.0235
   -12.1247 -12.1247 -11.9887 -11.9887 -10.9243 -10.9243 -10.7185 -10.7185
    -3.8375  -3.8375  -3.3246  -3.3246  -0.8433  -0.8433  -0.8319  -0.8319
    -0.6508  -0.6508  -0.5026  -0.5026  -0.4889  -0.4889  -0.0480  -0.0480
     0.3112   0.3112   0.3344   0.3344   0.6668   0.6668   1.0331   1.0331
     1.7285   1.7285   2.2625   2.2625   4.5892   4.5892   4.6227   4.6227
     4.7049   4.7049   4.7594   4.7594   4.8160   4.8160   4.8936   4.8936
     4.9322   4.9322   4.9706   4.9706   7.5809   7.5809

          k =-0.0635 0.1100 0.0000 ( 14638 PWs)   bands (ev):

   -58.8628 -58.8628 -58.8628 -58.8628 -34.6060 -34.6060 -34.6055 -34.6055
   -32.1727 -32.1727 -32.1723 -32.1723 -32.0366 -32.0366 -32.0354 -32.0354
   -12.0472 -12.0472 -11.9118 -11.9118 -10.8891 -10.8891 -10.6882 -10.6882
    -3.7526  -3.7526  -3.2412  -3.2412  -0.9999  -0.9999  -0.9870  -0.9870
    -0.8035  -0.8035  -0.4296  -0.4296  -0.4134  -0.4134  -0.2557  -0.2557
     0.1682   0.1682   0.1970   0.1970   0.7351   0.7351   1.1182   1.1182
     1.7027   1.7027   2.1510   2.1510   4.4954   4.4954   4.5240   4.5240
     4.5688   4.5688   4.6877   4.6877   4.7408   4.7409   4.8220   4.8220
     5.0458   5.0458   5.0980   5.0980   7.6922   7.6922

          k =-0.0794 0.1375 0.0000 ( 14652 PWs)   bands (ev):

   -58.8604 -58.8604 -58.8604 -58.8604 -34.6127 -34.6127 -34.6117 -34.6117
   -32.1766 -32.1766 -32.1758 -32.1758 -32.0516 -32.0516 -32.0494 -32.0494
   -11.9497 -11.9497 -11.8153 -11.8153 -10.8449 -10.8449 -10.6503 -10.6503
    -3.6502  -3.6502  -3.1421  -3.1421  -1.1788  -1.1788  -1.1655  -1.1655
    -0.9631  -0.9631  -0.4668  -0.4668  -0.3387  -0.3387  -0.3114  -0.3114
    -0.0152  -0.0152   0.0196   0.0196   0.7960   0.7960   1.1715   1.1715
     1.6579   1.6579   2.0058   2.0058   4.3254   4.3254   4.4337   4.4337
     4.4901   4.4901   4.6288   4.6288   4.6676   4.6676   4.7344   4.7344
     5.1956   5.1956   5.2615   5.2615   7.8288   7.8288

          k =-0.0952 0.1650 0.0000 ( 14684 PWs)   bands (ev):

   -58.8577 -58.8577 -58.8577 -58.8577 -34.6207 -34.6207 -34.6190 -34.6190
   -32.1818 -32.1818 -32.1807 -32.1807 -32.0681 -32.0681 -32.0645 -32.0645
   -11.8339 -11.8339 -11.7008 -11.7008 -10.7924 -10.7924 -10.6053 -10.6053
    -3.5361  -3.5361  -3.0347  -3.0347  -1.3661  -1.3661  -1.3541  -1.3541
    -1.1191  -1.1191  -0.6608  -0.6608  -0.2567  -0.2567  -0.2263  -0.2263
    -0.2038  -0.2038  -0.1827  -0.1827   0.8450   0.8450   1.1939   1.1939
     1.5895   1.5895   1.8334   1.8334   4.1518   4.1518   4.3551   4.3551
     4.4362   4.4362   4.5404   4.5404   4.6118   4.6118   4.6894   4.6894
     5.3629   5.3629   5.4466   5.4466   7.9901   7.9901

          k =-0.1111 0.1925 0.0000 ( 14718 PWs)   bands (ev):

   -58.8546 -58.8546 -58.8546 -58.8546 -34.6298 -34.6298 -34.6271 -34.6271
   -32.1887 -32.1887 -32.1873 -32.1873 -32.0850 -32.0850 -32.0798 -32.0798
   -11.7017 -11.7017 -11.5704 -11.5704 -10.7324 -10.7324 -10.5542 -10.5542
    -3.4185  -3.4185  -2.9301  -2.9301  -1.5472  -1.5472  -1.5376  -1.5376
    -1.2659  -1.2659  -0.8490  -0.8490  -0.4883  -0.4883  -0.4257  -0.4257
    -0.1306  -0.1306  -0.0930  -0.0930   0.8793   0.8793   1.1872   1.1872
     1.4972   1.4972   1.6460   1.6460   3.9977   3.9977   4.2761   4.2761
     4.4122   4.4122   4.4569   4.4569   4.5455   4.5455   4.7094   4.7094
     5.5363   5.5363   5.6435   5.6435   8.1757   8.1757

          k =-0.1270 0.2199 0.0000 ( 14746 PWs)   bands (ev):

   -58.8513 -58.8513 -58.8513 -58.8513 -34.6396 -34.6396 -34.6359 -34.6359
   -32.1974 -32.1974 -32.1962 -32.1962 -32.1012 -32.1012 -32.0945 -32.0945
   -11.5555 -11.5555 -11.4267 -11.4267 -10.6660 -10.6660 -10.4978 -10.4978
    -3.3084  -3.3084  -2.8452  -2.8452  -1.7122  -1.7122  -1.6925  -1.6925
    -1.4011  -1.4011  -1.0386  -1.0386  -0.7546  -0.7546  -0.6567  -0.6567
    -0.0418  -0.0418   0.0063   0.0063   0.8969   0.8969   1.1534   1.1534
     1.3870   1.3870   1.4628   1.4628   3.8680   3.8680   4.1943   4.1943
     4.3935   4.3935   4.4189   4.4189   4.5147   4.5147   4.7559   4.7559
     5.7055   5.7055   5.8420   5.8420   8.3848   8.3848

          k =-0.1429 0.2474 0.0000 ( 14724 PWs)   bands (ev):

   -58.8479 -58.8479 -58.8479 -58.8479 -34.6501 -34.6501 -34.6449 -34.6449
   -32.2077 -32.2077 -32.2075 -32.2075 -32.1158 -32.1158 -32.1081 -32.1081
   -11.3981 -11.3981 -11.2724 -11.2724 -10.5945 -10.5945 -10.4375 -10.4375
    -3.2202  -3.2202  -2.8017  -2.8017  -1.8478  -1.8478  -1.7955  -1.7955
    -1.5286  -1.5286  -1.2486  -1.2486  -1.0198  -1.0198  -0.8555  -0.8555
     0.0128   0.0128   0.0731   0.0731   0.8957   0.8957   1.0933   1.0933
     1.2683   1.2683   1.3170   1.3170   3.7658   3.7658   4.1204   4.1204
     4.3680   4.3680   4.4446   4.4446   4.5247   4.5247   4.8181   4.8181
     5.8613   5.8613   6.0324   6.0324   8.6159   8.6159

          k =-0.1587 0.2749 0.0000 ( 14730 PWs)   bands (ev):

   -58.8444 -58.8444 -58.8444 -58.8444 -34.6608 -34.6608 -34.6540 -34.6540
   -32.2211 -32.2211 -32.2193 -32.2193 -32.1282 -32.1282 -32.1202 -32.1202
   -11.2326 -11.2326 -11.1108 -11.1108 -10.5191 -10.5191 -10.3743 -10.3743
    -3.1684  -3.1684  -2.8149  -2.8149  -1.9412  -1.9412  -1.8384  -1.8384
    -1.6645  -1.6645  -1.4885  -1.4885  -1.2505  -1.2505  -0.9980  -0.9980
     0.0087   0.0087   0.0802   0.0802   0.8735   0.8735   1.0061   1.0061
     1.1695   1.1695   1.2335   1.2335   3.6977   3.6977   4.0733   4.0733
     4.3775   4.3775   4.4875   4.4875   4.5641   4.5641   4.8904   4.8904
     5.9962   5.9962   6.2061   6.2061   8.8663   8.8663

          k =-0.1746 0.3024 0.0000 ( 14752 PWs)   bands (ev):

   -58.8410 -58.8410 -58.8410 -58.8410 -34.6716 -34.6716 -34.6630 -34.6630
   -32.2363 -32.2363 -32.2315 -32.2315 -32.1386 -32.1386 -32.1311 -32.1311
   -11.0628 -11.0628 -10.9457 -10.9457 -10.4414 -10.4414 -10.3097 -10.3097
    -3.1592  -3.1592  -2.8756  -2.8756  -2.0100  -2.0100  -1.8692  -1.8692
    -1.8189  -1.8189  -1.7107  -1.7107  -1.4014  -1.4014  -1.0876  -1.0876
    -0.0673  -0.0673   0.0096   0.0096   0.8286   0.8286   0.8975   0.8975
     1.1261   1.1261   1.2058   1.2058   3.6728   3.6728   4.0697   4.0697
     4.4167   4.4167   4.5354   4.5354   4.6223   4.6223   4.9688   4.9688
     6.1057   6.1057   6.3567   6.3567   9.1321   9.1321

          k =-0.1905 0.3299 0.0000 ( 14774 PWs)   bands (ev):

   -58.8378 -58.8378 -58.8378 -58.8378 -34.6821 -34.6821 -34.6716 -34.6716
   -32.2520 -32.2520 -32.2433 -32.2433 -32.1474 -32.1474 -32.1411 -32.1411
   -10.8925 -10.8925 -10.7811 -10.7811 -10.3630 -10.3630 -10.2453 -10.2453
    -3.1833  -3.1833  -2.9573  -2.9573  -2.1635  -2.1635  -2.0701  -2.0701
    -1.8931  -1.8931  -1.7410  -1.7410  -1.4669  -1.4669  -1.1364  -1.1364
    -0.2061  -0.2060  -0.1301  -0.1301   0.7546   0.7546   0.7819   0.7819
     1.1329   1.1329   1.2222   1.2222   3.6972   3.6972   4.1174   4.1174
     4.4747   4.4747   4.5746   4.5746   4.6918   4.6918   5.0500   5.0500
     6.1897   6.1897   6.4809   6.4809   9.4052   9.4052

          k =-0.2063 0.3574 0.0000 ( 14764 PWs)   bands (ev):

   -58.8347 -58.8347 -58.8347 -58.8347 -34.6920 -34.6920 -34.6794 -34.6794
   -32.2673 -32.2673 -32.2541 -32.2541 -32.1552 -32.1552 -32.1505 -32.1505
   -10.7264 -10.7264 -10.6213 -10.6213 -10.2858 -10.2858 -10.1827 -10.1827
    -3.2207  -3.2207  -3.0352  -3.0352  -2.3952  -2.3952  -2.3248  -2.3248
    -1.8769  -1.8769  -1.7085  -1.7085  -1.4773  -1.4773  -1.1546  -1.1546
    -0.3876  -0.3875  -0.3135  -0.3135   0.6259   0.6259   0.6895   0.6895
     1.1730   1.1730   1.2689   1.2690   3.7676   3.7676   4.2088   4.2088
     4.5401   4.5401   4.5984   4.5984   4.7644   4.7644   5.1300   5.1300
     6.2533   6.2533   6.5793   6.5793   9.6647   9.6647

          k =-0.2222 0.3849 0.0000 ( 14764 PWs)   bands (ev):

   -58.8319 -58.8319 -58.8319 -58.8319 -34.7011 -34.7011 -34.6864 -34.6864
   -32.2812 -32.2812 -32.2631 -32.2631 -32.1622 -32.1622 -32.1596 -32.1596
   -10.5689 -10.5689 -10.4709 -10.4709 -10.2116 -10.2116 -10.1235 -10.1235
    -3.2514  -3.2514  -3.0927  -3.0927  -2.6309  -2.6309  -2.5680  -2.5680
    -1.8366  -1.8366  -1.6836  -1.6836  -1.4566  -1.4566  -1.1510  -1.1510
    -0.5976  -0.5976  -0.5152  -0.5152   0.4776   0.4776   0.5910   0.5910
     1.2367   1.2367   1.3395   1.3395   3.8663   3.8663   4.3048   4.3048
     4.5996   4.5996   4.6331   4.6331   4.8318   4.8318   5.2032   5.2032
     6.3068   6.3068   6.6564   6.6564   9.7737   9.7737

          k =-0.2381 0.4124 0.0000 ( 14758 PWs)   bands (ev):

   -58.8295 -58.8295 -58.8295 -58.8295 -34.7091 -34.7091 -34.6924 -34.6924
   -32.2933 -32.2933 -32.2701 -32.2701 -32.1688 -32.1688 -32.1686 -32.1686
   -10.4248 -10.4248 -10.3342 -10.3342 -10.1424 -10.1424 -10.0696 -10.0696
    -3.2609  -3.2609  -3.1194  -3.1194  -2.8490  -2.8490  -2.7881  -2.7881
    -1.7897  -1.7897  -1.6784  -1.6784  -1.4204  -1.4204  -1.1343  -1.1343
    -0.8258  -0.8258  -0.7173  -0.7173   0.3230   0.3230   0.4806   0.4806
     1.3216   1.3216   1.4329   1.4329   3.9587   3.9587   4.3235   4.3235
     4.6533   4.6533   4.7423   4.7423   4.8903   4.8903   5.2631   5.2631
     6.3625   6.3625   6.7188   6.7188   9.5854   9.5854

          k =-0.2540 0.4399 0.0000 ( 14764 PWs)   bands (ev):

   -58.8274 -58.8274 -58.8274 -58.8274 -34.7159 -34.7159 -34.6974 -34.6974
   -32.3032 -32.3032 -32.2746 -32.2746 -32.1775 -32.1775 -32.1750 -32.1750
   -10.2984 -10.2984 -10.2152 -10.2152 -10.0800 -10.0800 -10.0227 -10.0227
    -3.2414  -3.2414  -3.1097  -3.1097  -3.0380  -3.0380  -2.9786  -2.9786
    -1.7443  -1.7443  -1.6979  -1.6979  -1.3809  -1.3809  -1.1338  -1.1338
    -1.0442  -1.0442  -0.8978  -0.8978   0.1688   0.1688   0.3612   0.3612
     1.4261   1.4261   1.5478   1.5478   4.0009   4.0009   4.2461   4.2461
     4.7295   4.7295   4.8837   4.8837   4.9693   4.9693   5.3053   5.3053
     6.4305   6.4305   6.7722   6.7722   9.4174   9.4174

          k =-0.2698 0.4674 0.0000 ( 14778 PWs)   bands (ev):

   -58.8258 -58.8258 -58.8258 -58.8258 -34.7214 -34.7214 -34.7012 -34.7012
   -32.3108 -32.3108 -32.2768 -32.2768 -32.1862 -32.1862 -32.1807 -32.1807
   -10.1931 -10.1931 -10.1171 -10.1171 -10.0263 -10.0263  -9.9841  -9.9841
    -3.2350  -3.2350  -3.1476  -3.1476  -3.1400  -3.1400  -3.0530  -3.0530
    -1.7449  -1.7449  -1.7090  -1.7090  -1.4046  -1.4046  -1.2454  -1.2454
    -1.1677  -1.1677  -0.9665  -0.9665   0.0230   0.0230   0.2369   0.2369
     1.5446   1.5446   1.6779   1.6779   3.9717   3.9717   4.1165   4.1165
     4.7836   4.7836   4.9941   4.9941   5.1215   5.1215   5.3349   5.3349
     6.5135   6.5135   6.8187   6.8187   9.2331   9.2331

          k =-0.2857 0.4949 0.0000 ( 14790 PWs)   bands (ev):

   -58.8245 -58.8245 -58.8245 -58.8245 -34.7256 -34.7256 -34.7040 -34.7040
   -32.3160 -32.3160 -32.2769 -32.2769 -32.1944 -32.1944 -32.1858 -32.1858
   -10.1113 -10.1113 -10.0420 -10.0420  -9.9828  -9.9828  -9.9551  -9.9551
    -3.3429  -3.3429  -3.2648  -3.2648  -3.0622  -3.0622  -2.9647  -2.9647
    -1.8197  -1.8197  -1.7120  -1.7120  -1.5813  -1.5813  -1.3463  -1.3463
    -1.1874  -1.1874  -0.9337  -0.9337  -0.1023  -0.1023   0.1128   0.1128
     1.6658   1.6658   1.8109   1.8109   3.8899   3.8899   3.9677   3.9677
     4.7830   4.7830   5.1271   5.1271   5.2441   5.2441   5.3854   5.3854
     6.6055   6.6055   6.8561   6.8561   9.0456   9.0456

          k =-0.3016 0.5224 0.0000 ( 14796 PWs)   bands (ev):

   -58.8236 -58.8236 -58.8236 -58.8236 -34.7285 -34.7285 -34.7058 -34.7058
   -32.3191 -32.3191 -32.2753 -32.2753 -32.2017 -32.2017 -32.1899 -32.1899
   -10.0538 -10.0538  -9.9904  -9.9904  -9.9508  -9.9508  -9.9358  -9.9358
    -3.4313  -3.4313  -3.3519  -3.3519  -2.9266  -2.9266  -2.8451  -2.8451
    -1.9251  -1.9250  -1.8684  -1.8684  -1.6366  -1.6366  -1.4837  -1.4837
    -1.1091  -1.1091  -0.8994  -0.8994  -0.1890  -0.1890  -0.0046  -0.0046
     1.7728   1.7728   1.9290   1.9290   3.7925   3.7925   3.8287   3.8287
     4.7574   4.7574   5.2115   5.2115   5.3223   5.3223   5.4768   5.4768
     6.6951   6.6951   6.8797   6.8797   8.9069   8.9069

          k =-0.3175 0.5499 0.0000 ( 14788 PWs)   bands (ev):

   -58.8231 -58.8231 -58.8231 -58.8231 -34.7301 -34.7301 -34.7067 -34.7067
   -32.3206 -32.3206 -32.2733 -32.2733 -32.2070 -32.2070 -32.1926 -32.1926
   -10.0205 -10.0205  -9.9611  -9.9611  -9.9325  -9.9325  -9.9247  -9.9247
    -3.4842  -3.4842  -3.4029  -3.4029  -2.7741  -2.7741  -2.7221  -2.7221
    -2.0899  -2.0898  -2.0045  -2.0045  -1.6386  -1.6386  -1.5833  -1.5833
    -1.0240  -1.0240  -0.8989  -0.8989  -0.2172  -0.2172  -0.1063  -0.1063
     1.8465   1.8465   2.0109   2.0109   3.7167   3.7167   3.7288   3.7288
     4.7313   4.7313   5.2188   5.2188   5.4040   5.4040   5.5471   5.5471
     6.7677   6.7677   6.8863   6.8863   8.8301   8.8301

          k =-0.3333 0.5774 0.0000 ( 14790 PWs)   bands (ev):

   -58.8230 -58.8230 -58.8230 -58.8230 -34.7306 -34.7306 -34.7070 -34.7070
   -32.3209 -32.3209 -32.2722 -32.2722 -32.2091 -32.2091 -32.1936 -32.1936
   -10.0100 -10.0100  -9.9517  -9.9517  -9.9278  -9.9278  -9.9203  -9.9203
    -3.5015  -3.5015  -3.4193  -3.4193  -2.6919  -2.6919  -2.6568  -2.6568
    -2.1911  -2.1911  -2.0512  -2.0512  -1.6427  -1.6427  -1.6216  -1.6216
    -0.9690  -0.9690  -0.9244  -0.9244  -0.1958  -0.1958  -0.1697  -0.1697
     1.8721   1.8721   2.0395   2.0395   3.6894   3.6894   3.6919   3.6919
     4.7200   4.7200   5.2151   5.2151   5.4343   5.4343   5.5720   5.5720
     6.8004   6.8004   6.8830   6.8830   8.8099   8.8099

          k =-0.3030 0.5774 0.0000 ( 14786 PWs)   bands (ev):

   -58.8231 -58.8231 -58.8231 -58.8231 -34.7302 -34.7302 -34.7068 -34.7068
   -32.3208 -32.3208 -32.2735 -32.2735 -32.2070 -32.2070 -32.1926 -32.1926
   -10.0183 -10.0183  -9.9592  -9.9592  -9.9316  -9.9316  -9.9242  -9.9242
    -3.4867  -3.4867  -3.4056  -3.4056  -2.7671  -2.7671  -2.7242  -2.7242
    -2.0998  -2.0998  -2.0269  -2.0269  -1.6115  -1.6115  -1.5880  -1.5880
    -1.0151  -1.0151  -0.9023  -0.9023  -0.2183  -0.2183  -0.1140  -0.1140
     1.8513   1.8513   2.0164   2.0164   3.7146   3.7146   3.7223   3.7223
     4.7331   4.7331   5.2216   5.2216   5.4110   5.4110   5.5489   5.5489
     6.7681   6.7681   6.8853   6.8853   8.8156   8.8156

          k =-0.2727 0.5774 0.0000 ( 14800 PWs)   bands (ev):

   -58.8235 -58.8235 -58.8235 -58.8235 -34.7291 -34.7291 -34.7063 -34.7063
   -32.3207 -32.3207 -32.2772 -32.2772 -32.2010 -32.2010 -32.1895 -32.1895
   -10.0401 -10.0401  -9.9792  -9.9792  -9.9444  -9.9444  -9.9337  -9.9337
    -3.4451  -3.4451  -3.3678  -3.3678  -2.9303  -2.9303  -2.8581  -2.8581
    -2.0326  -2.0326  -1.9378  -1.9378  -1.5232  -1.5232  -1.4311  -1.4311
    -1.0742  -1.0742  -0.9004  -0.9004  -0.2112  -0.2112  -0.0354  -0.0354
     1.7992   1.7992   1.9595   1.9595   3.7824   3.7824   3.8006   3.8006
     4.7765   4.7765   5.2379   5.2379   5.3592   5.3592   5.4842   5.4842
     6.6878   6.6878   6.8712   6.8712   8.8072   8.8072

          k =-0.2424 0.5774 0.0000 ( 14804 PWs)   bands (ev):

   -58.8240 -58.8240 -58.8240 -58.8240 -34.7274 -34.7274 -34.7057 -34.7057
   -32.3209 -32.3209 -32.2827 -32.2827 -32.1921 -32.1921 -32.1842 -32.1842
   -10.0712 -10.0712 -10.0084 -10.0084  -9.9642  -9.9642  -9.9477  -9.9477
    -3.3829  -3.3829  -3.3120  -3.3120  -3.1066  -3.1066  -3.0115  -3.0115
    -2.0580  -2.0580  -1.8646  -1.8646  -1.3240  -1.3240  -1.2497  -1.2497
    -1.0577  -1.0577  -0.9184  -0.9184  -0.1762  -0.1762   0.0402   0.0402
     1.7333   1.7333   1.8887   1.8887   3.8738   3.8738   3.9068   3.9068
     4.8530   4.8530   5.2122   5.2122   5.3417   5.3417   5.4005   5.4005
     6.5750   6.5750   6.8248   6.8248   8.7644   8.7644

          k =-0.2121 0.5774 0.0000 ( 14768 PWs)   bands (ev):

   -58.8246 -58.8246 -58.8246 -58.8246 -34.7252 -34.7252 -34.7052 -34.7052
   -32.3216 -32.3216 -32.2890 -32.2890 -32.1816 -32.1816 -32.1772 -32.1772
   -10.1075 -10.1075 -10.0436 -10.0436  -9.9881  -9.9881  -9.9657  -9.9657
    -3.3326  -3.3326  -3.2551  -3.2551  -3.2383  -3.2383  -3.1642  -3.1642
    -2.0968  -2.0968  -1.8533  -1.8533  -1.2430  -1.2430  -1.1033  -1.1033
    -0.8901  -0.8901  -0.8025  -0.8025  -0.1304  -0.1304   0.1025   0.1025
     1.6675   1.6675   1.8186   1.8186   3.9717   3.9717   4.0217   4.0217
     4.9530   4.9530   5.1302   5.1302   5.2726   5.2726   5.4390   5.4390
     6.4391   6.4391   6.7445   6.7445   8.6904   8.6904

          k =-0.1818 0.5774 0.0000 ( 14768 PWs)   bands (ev):

   -58.8253 -58.8253 -58.8253 -58.8253 -34.7228 -34.7228 -34.7047 -34.7047
   -32.3226 -32.3226 -32.2956 -32.2956 -32.1706 -32.1706 -32.1690 -32.1690
   -10.1459 -10.1459 -10.0816 -10.0816 -10.0135 -10.0135  -9.9860  -9.9860
    -3.4509  -3.4509  -3.3134  -3.3134  -3.1941  -3.1941  -3.1717  -3.1717
    -2.1365  -2.1365  -1.8654  -1.8654  -1.2657  -1.2657  -1.0774  -1.0774
    -0.6313  -0.6313  -0.4831  -0.4831  -0.0861  -0.0861   0.1462   0.1462
     1.6090   1.6090   1.7559   1.7559   4.0626   4.0626   4.1298   4.1298
     4.9641   4.9641   5.1113   5.1113   5.2140   5.2140   5.5520   5.5520
     6.2913   6.2913   6.6364   6.6364   8.5942   8.5942

          k =-0.1515 0.5774 0.0000 ( 14772 PWs)   bands (ev):

   -58.8260 -58.8260 -58.8260 -58.8260 -34.7202 -34.7202 -34.7045 -34.7045
   -32.3237 -32.3237 -32.3019 -32.3019 -32.1602 -32.1602 -32.1600 -32.1600
   -10.1833 -10.1833 -10.1194 -10.1194 -10.0385 -10.0385 -10.0069 -10.0069
    -3.5860  -3.5860  -3.4426  -3.4426  -3.1089  -3.1089  -3.1007  -3.1007
    -2.1719  -2.1719  -1.8851  -1.8851  -1.2735  -1.2735  -1.1105  -1.1105
    -0.3059  -0.3059  -0.1565  -0.1565  -0.0425  -0.0425   0.1705   0.1705
     1.5586   1.5586   1.7006   1.7006   4.1377   4.1377   4.2185   4.2185
     4.8670   4.8670   5.0443   5.0443   5.3545   5.3545   5.6893   5.6893
     6.1470   6.1470   6.5115   6.5115   8.4844   8.4844

          k =-0.1212 0.5774 0.0000 ( 14780 PWs)   bands (ev):

   -58.8266 -58.8266 -58.8266 -58.8266 -34.7176 -34.7176 -34.7047 -34.7047
   -32.3247 -32.3247 -32.3078 -32.3078 -32.1518 -32.1518 -32.1505 -32.1505
   -10.2174 -10.2174 -10.1541 -10.1541 -10.0615 -10.0615 -10.0265 -10.0265
    -3.7016  -3.7016  -3.5536  -3.5536  -3.0525  -3.0524  -3.0136  -3.0136
    -2.2009  -2.2009  -1.9057  -1.9057  -1.2617  -1.2617  -1.1439  -1.1439
    -0.0676  -0.0676   0.0494   0.0494   0.1544   0.1544   0.2123   0.2123
     1.5120   1.5120   1.6477   1.6477   4.1922   4.1922   4.2759   4.2759
     4.7771   4.7771   4.9663   4.9663   5.5558   5.5558   5.8116   5.8116
     6.0449   6.0449   6.3836   6.3836   8.3691   8.3691

          k =-0.0909 0.5774 0.0000 ( 14762 PWs)   bands (ev):

   -58.8271 -58.8271 -58.8271 -58.8271 -34.7151 -34.7151 -34.7051 -34.7051
   -32.3253 -32.3253 -32.3129 -32.3129 -32.1442 -32.1442 -32.1426 -32.1426
   -10.2459 -10.2459 -10.1836 -10.1836 -10.0809 -10.0809 -10.0435 -10.0435
    -3.7941  -3.7941  -3.6429  -3.6429  -3.0112  -3.0112  -2.9371  -2.9371
    -2.2231  -2.2231  -1.9235  -1.9235  -1.2338  -1.2338  -1.1695  -1.1695
    -0.0378  -0.0378   0.1397   0.1397   0.3695   0.3695   0.4941   0.4941
     1.4613   1.4613   1.5890   1.5890   4.2258   4.2258   4.2938   4.2938
     4.7203   4.7203   4.9045   4.9045   5.7587   5.7587   5.8083   5.8083
     6.0976   6.0976   6.2677   6.2677   8.2570   8.2570

          k =-0.0606 0.5774 0.0000 ( 14770 PWs)   bands (ev):

   -58.8276 -58.8276 -58.8276 -58.8276 -34.7127 -34.7127 -34.7060 -34.7060
   -32.3254 -32.3254 -32.3172 -32.3172 -32.1382 -32.1382 -32.1368 -32.1368
   -10.2674 -10.2674 -10.2060 -10.2060 -10.0955 -10.0955 -10.0565 -10.0565
    -3.8613  -3.8613  -3.7083  -3.7083  -2.9839  -2.9839  -2.8786  -2.8786
    -2.2386  -2.2386  -1.9367  -1.9367  -1.1997  -1.1997  -1.1858  -1.1858
    -0.0313  -0.0313   0.1232   0.1232   0.6411   0.6411   0.7629   0.7629
     1.3982   1.3982   1.5154   1.5154   4.2415   4.2415   4.2805   4.2805
     4.6990   4.6990   4.8605   4.8605   5.7194   5.7194   5.9619   5.9619
     6.1650   6.1650   6.2375   6.2375   8.1596   8.1596

          k =-0.0303 0.5774 0.0000 ( 14768 PWs)   bands (ev):

   -58.8278 -58.8278 -58.8278 -58.8278 -34.7106 -34.7106 -34.7071 -34.7071
   -32.3246 -32.3246 -32.3206 -32.3206 -32.1342 -32.1342 -32.1334 -32.1334
   -10.2808 -10.2808 -10.2200 -10.2200 -10.1047 -10.1047 -10.0646 -10.0646
    -3.9022  -3.9022  -3.7481  -3.7481  -2.9689  -2.9689  -2.8422  -2.8422
    -2.2477  -2.2477  -1.9446  -1.9446  -1.1957  -1.1957  -1.1700  -1.1700
    -0.0301  -0.0301   0.1052   0.1052   0.8620   0.8620   0.9748   0.9748
     1.3254   1.3254   1.4220   1.4220   4.2425   4.2425   4.2634   4.2634
     4.6972   4.6972   4.8337   4.8337   5.6635   5.6635   6.0825   6.0825
     6.1271   6.1271   6.3345   6.3345   8.0918   8.0918

          k = 0.0000 0.5774 0.0000 ( 14778 PWs)   bands (ev):

   -58.8279 -58.8279 -58.8279 -58.8279 -34.7087 -34.7087 -34.7087 -34.7087
   -32.3231 -32.3231 -32.3231 -32.3231 -32.1325 -32.1325 -32.1325 -32.1325
   -10.2853 -10.2853 -10.2248 -10.2248 -10.1078 -10.1078 -10.0674 -10.0674
    -3.9159  -3.9159  -3.7615  -3.7615  -2.9641  -2.9641  -2.8298  -2.8298
    -2.2508  -2.2508  -1.9472  -1.9472  -1.1983  -1.1983  -1.1589  -1.1589
    -0.0302  -0.0302   0.0978   0.0978   0.9704   0.9704   1.0625   1.0625
     1.2966   1.2966   1.3476   1.3476   4.2379   4.2379   4.2595   4.2595
     4.6987   4.6987   4.8245   4.8245   5.6436   5.6436   6.0788   6.0788
     6.1617   6.1617   6.3719   6.3719   8.0672   8.0672

          k = 0.0000 0.5453 0.0000 ( 14776 PWs)   bands (ev):

   -58.8282 -58.8282 -58.8282 -58.8282 -34.7078 -34.7078 -34.7077 -34.7077
   -32.3213 -32.3213 -32.3213 -32.3213 -32.1324 -32.1324 -32.1324 -32.1324
   -10.3062 -10.3062 -10.2427 -10.2427 -10.1168 -10.1168 -10.0725 -10.0725
    -3.8966  -3.8966  -3.7422  -3.7422  -2.9468  -2.9468  -2.8101  -2.8101
    -2.2409  -2.2409  -1.9368  -1.9368  -1.1891  -1.1891  -1.1498  -1.1498
    -0.0275  -0.0275   0.1083   0.1083   0.9605   0.9605   1.0508   1.0508
     1.2685   1.2685   1.3348   1.3348   4.2315   4.2315   4.2550   4.2550
     4.6724   4.6724   4.8082   4.8082   5.6339   5.6339   6.0695   6.0695
     6.1573   6.1573   6.3660   6.3660   8.1086   8.1086

          k = 0.0000 0.5132 0.0000 ( 14734 PWs)   bands (ev):

   -58.8291 -58.8291 -58.8291 -58.8291 -34.7049 -34.7049 -34.7049 -34.7049
   -32.3159 -32.3159 -32.3158 -32.3158 -32.1319 -32.1319 -32.1319 -32.1319
   -10.3665 -10.3665 -10.2957 -10.2957 -10.1428 -10.1428 -10.0883 -10.0883
    -3.8405  -3.8405  -3.6858  -3.6858  -2.8956  -2.8956  -2.7516  -2.7516
    -2.2127  -2.2127  -1.9073  -1.9073  -1.1616  -1.1616  -1.1225  -1.1225
    -0.0175  -0.0175   0.1384   0.1384   0.9304   0.9304   1.0154   1.0154
     1.1988   1.1988   1.2917   1.2917   4.2138   4.2138   4.2432   4.2432
     4.6007   4.6007   4.7635   4.7635   5.6034   5.6034   6.0393   6.0393
     6.1437   6.1437   6.3478   6.3478   8.2435   8.2435

          k = 0.0000 0.4811 0.0000 ( 14730 PWs)   bands (ev):

   -58.8306 -58.8306 -58.8306 -58.8306 -34.7003 -34.7003 -34.7003 -34.7003
   -32.3071 -32.3071 -32.3071 -32.3071 -32.1311 -32.1311 -32.1311 -32.1311
   -10.4612 -10.4612 -10.3808 -10.3808 -10.1836 -10.1836 -10.1154 -10.1154
    -3.7530  -3.7530  -3.5961  -3.5961  -2.8129  -2.8129  -2.6566  -2.6566
    -2.1708  -2.1708  -1.8645  -1.8645  -1.1161  -1.1161  -1.0773  -1.0773
     0.0032   0.0032   0.1859   0.1859   0.8799   0.8799   0.9570   0.9570
     1.1098   1.1098   1.2232   1.2232   4.1897   4.1897   4.2285   4.2285
     4.4994   4.4994   4.7002   4.7002   5.5493   5.5493   5.9837   5.9837
     6.1201   6.1201   6.3168   6.3168   8.4674   8.4674

          k = 0.0000 0.4491 0.0000 ( 14738 PWs)   bands (ev):

   -58.8325 -58.8325 -58.8325 -58.8325 -34.6941 -34.6941 -34.6941 -34.6941
   -32.2953 -32.2953 -32.2952 -32.2952 -32.1298 -32.1298 -32.1298 -32.1298
   -10.5838 -10.5838 -10.4935 -10.4935 -10.2366 -10.2366 -10.1531 -10.1531
    -3.6423  -3.6423  -3.4790  -3.4790  -2.7025  -2.7025  -2.5290  -2.5290
    -2.1214  -2.1214  -1.8174  -1.8174  -1.0531  -1.0531  -1.0147  -1.0147
     0.0380   0.0380   0.2492   0.2492   0.8093   0.8093   0.8779   0.8779
     1.0226   1.0226   1.1465   1.1465   4.1657   4.1657   4.2163   4.2163
     4.3856   4.3856   4.6284   4.6284   5.4696   5.4696   5.8990   5.8990
     6.0853   6.0853   6.2722   6.2722   8.7552   8.7552

          k = 0.0000 0.4170 0.0000 ( 14714 PWs)   bands (ev):

   -58.8350 -58.8350 -58.8350 -58.8350 -34.6865 -34.6865 -34.6865 -34.6865
   -32.2809 -32.2809 -32.2808 -32.2808 -32.1278 -32.1278 -32.1278 -32.1278
   -10.7275 -10.7275 -10.6279 -10.6279 -10.2991 -10.2991 -10.2000 -10.2000
    -3.5199  -3.5199  -3.3424  -3.3424  -2.5700  -2.5700  -2.3745  -2.3745
    -2.0701  -2.0701  -1.7759  -1.7759  -0.9732  -0.9732  -0.9353  -0.9353
     0.0894   0.0894   0.3278   0.3278   0.7200   0.7200   0.7814   0.7814
     0.9579   0.9579   1.0837   1.0837   4.1466   4.1466   4.2090   4.2090
     4.2787   4.2787   4.5556   4.5556   5.3646   5.3646   5.7851   5.7851
     6.0380   6.0380   6.2129   6.2129   9.0662   9.0662

          k = 0.0000 0.3849 0.0000 ( 14728 PWs)   bands (ev):

   -58.8378 -58.8378 -58.8378 -58.8378 -34.6779 -34.6779 -34.6779 -34.6779
   -32.2646 -32.2646 -32.2646 -32.2646 -32.1250 -32.1250 -32.1250 -32.1250
   -10.8855 -10.8855 -10.7777 -10.7777 -10.3683 -10.3683 -10.2538 -10.2538
    -3.4012  -3.4012  -3.1962  -3.1962  -2.4231  -2.4231  -2.2027  -2.2027
    -2.0152  -2.0152  -1.7450  -1.7450  -0.8774  -0.8774  -0.8402  -0.8402
     0.1585   0.1585   0.4199   0.4199   0.6147   0.6147   0.6683   0.6683
     0.9368   0.9368   1.0560   1.0560   4.1176   4.1176   4.1818   4.1818
     4.2393   4.2393   4.4873   4.4873   5.2378   5.2378   5.6454   5.6454
     5.9768   5.9768   6.1378   6.1378   9.2326   9.2326

          k = 0.0000 0.3528 0.0000 ( 14724 PWs)   bands (ev):

   -58.8409 -58.8409 -58.8409 -58.8409 -34.6685 -34.6685 -34.6684 -34.6684
   -32.2474 -32.2474 -32.2473 -32.2473 -32.1208 -32.1208 -32.1208 -32.1208
   -11.0514 -11.0514 -10.9368 -10.9368 -10.4415 -10.4415 -10.3124 -10.3124
    -3.3062  -3.3062  -3.0549  -3.0549  -2.2712  -2.2712  -2.0354  -2.0354
    -1.9398  -1.9398  -1.7112  -1.7112  -0.7669  -0.7669  -0.7306  -0.7306
     0.2428   0.2428   0.4746   0.4746   0.5169   0.5169   0.5696   0.5696
     0.9723   0.9723   1.0769   1.0769   4.0490   4.0490   4.1843   4.1843
     4.2625   4.2625   4.4283   4.4283   5.0961   5.0961   5.4864   5.4864
     5.9007   5.9007   6.0463   6.0463   9.0697   9.0697

          k = 0.0000 0.3208 0.0000 ( 14704 PWs)   bands (ev):

   -58.8442 -58.8442 -58.8442 -58.8442 -34.6585 -34.6585 -34.6585 -34.6585
   -32.2301 -32.2301 -32.2301 -32.2301 -32.1148 -32.1148 -32.1148 -32.1148
   -11.2197 -11.2197 -11.0994 -11.0994 -10.5163 -10.5163 -10.3735 -10.3735
    -3.2564  -3.2564  -2.9394  -2.9394  -2.1216  -2.1216  -1.9047  -1.9047
    -1.8341  -1.8341  -1.6197  -1.6197  -0.6434  -0.6434  -0.6081  -0.6081
     0.3159   0.3159   0.3703   0.3703   0.3948   0.3948   0.6659   0.6659
     1.0645   1.0645   1.1480   1.1480   3.9910   3.9910   4.2190   4.2190
     4.3036   4.3036   4.3859   4.3859   4.9489   4.9489   5.3170   5.3170
     5.8088   5.8088   5.9381   5.9381   8.8387   8.8387

          k = 0.0000 0.2887 0.0000 ( 14740 PWs)   bands (ev):

   -58.8476 -58.8476 -58.8476 -58.8476 -34.6485 -34.6485 -34.6485 -34.6485
   -32.2143 -32.2143 -32.2142 -32.2142 -32.1065 -32.1065 -32.1065 -32.1065
   -11.3853 -11.3853 -11.2605 -11.2605 -10.5904 -10.5904 -10.4348 -10.4348
    -3.2646  -3.2646  -2.8758  -2.8758  -1.9671  -1.9671  -1.8045  -1.8045
    -1.7040  -1.7040  -1.4401  -1.4401  -0.5091  -0.5091  -0.4750  -0.4750
     0.2045   0.2045   0.2387   0.2387   0.4531   0.4531   0.7899   0.7899
     1.2006   1.2006   1.2623   1.2623   3.9663   3.9663   4.2733   4.2733
     4.3309   4.3309   4.3936   4.3936   4.8078   4.8078   5.1472   5.1472
     5.7016   5.7016   5.8141   5.8141   8.6065   8.6065

          k = 0.0000 0.2566 0.0000 ( 14706 PWs)   bands (ev):

   -58.8511 -58.8511 -58.8511 -58.8511 -34.6386 -34.6386 -34.6385 -34.6385
   -32.2008 -32.2008 -32.2007 -32.2007 -32.0954 -32.0954 -32.0953 -32.0953
   -11.5440 -11.5440 -11.4157 -11.4157 -10.6617 -10.6617 -10.4946 -10.4946
    -3.3256  -3.3256  -2.8797  -2.8797  -1.7941  -1.7941  -1.6926  -1.6926
    -1.5384  -1.5384  -1.2213  -1.2213  -0.3669  -0.3669  -0.3340  -0.3340
     0.0646   0.0646   0.0912   0.0912   0.5488   0.5488   0.9092   0.9092
     1.3467   1.3467   1.4202   1.4202   3.9856   3.9856   4.3189   4.3189
     4.3593   4.3593   4.4621   4.4622   4.6854   4.6854   4.9880   4.9880
     5.5803   5.5803   5.6761   5.6761   8.3848   8.3848

          k = 0.0000 0.2245 0.0000 ( 14708 PWs)   bands (ev):

   -58.8544 -58.8544 -58.8544 -58.8544 -34.6291 -34.6291 -34.6291 -34.6291
   -32.1901 -32.1901 -32.1901 -32.1901 -32.0818 -32.0818 -32.0817 -32.0817
   -11.6920 -11.6920 -11.5611 -11.5611 -10.7284 -10.7284 -10.5510 -10.5510
    -3.4215  -3.4215  -2.9411  -2.9411  -1.6018  -1.6018  -1.5415  -1.5415
    -1.3585  -1.3585  -0.9901  -0.9901  -0.2219  -0.2219  -0.1906  -0.1906
    -0.0701  -0.0701  -0.0497  -0.0497   0.6305   0.6305   1.0110   1.0110
     1.4735   1.4735   1.6124   1.6124   4.0547   4.0547   4.3436   4.3436
     4.4414   4.4414   4.5429   4.5429   4.5989   4.5989   4.8515   4.8515
     5.4480   5.4480   5.5277   5.5277   8.1799   8.1799

          k = 0.0000 0.1925 0.0000 ( 14674 PWs)   bands (ev):

   -58.8575 -58.8575 -58.8575 -58.8575 -34.6204 -34.6204 -34.6204 -34.6204
   -32.1823 -32.1823 -32.1822 -32.1822 -32.0665 -32.0665 -32.0665 -32.0665
   -11.8263 -11.8263 -11.6934 -11.6934 -10.7891 -10.7891 -10.6026 -10.6026
    -3.5333  -3.5333  -3.0349  -3.0349  -1.3991  -1.3991  -1.3627  -1.3627
    -1.1750  -1.1750  -0.7556  -0.7556  -0.2078  -0.2078  -0.1904  -0.1904
    -0.0645  -0.0645  -0.0368  -0.0368   0.6863   0.6863   1.0826   1.0826
     1.5762   1.5762   1.8096   1.8096   4.1729   4.1729   4.3926   4.3926
     4.5338   4.5338   4.5366   4.5366   4.6477   4.6477   4.7502   4.7502
     5.3094   5.3094   5.3737   5.3737   7.9956   7.9956

          k = 0.0000 0.1604 0.0000 ( 14654 PWs)   bands (ev):

   -58.8603 -58.8603 -58.8603 -58.8603 -34.6126 -34.6126 -34.6126 -34.6126
   -32.1767 -32.1767 -32.1766 -32.1766 -32.0510 -32.0510 -32.0510 -32.0510
   -11.9442 -11.9442 -11.8099 -11.8099 -10.8425 -10.8425 -10.6482 -10.6482
    -3.6460  -3.6460  -3.1389  -3.1389  -1.1977  -1.1977  -1.1750  -1.1750
    -0.9933  -0.9933  -0.5227  -0.5227  -0.3196  -0.3196  -0.3072  -0.3072
     0.0763   0.0763   0.1030   0.1030   0.7088   0.7088   1.1128   1.1128
     1.6514   1.6514   1.9911   1.9911   4.3303   4.3303   4.4661   4.4661
     4.5312   4.5312   4.6295   4.6295   4.6926   4.6926   4.7431   4.7431
     5.1712   5.1712   5.2211   5.2211   7.8340   7.8340

          k = 0.0000 0.1283 0.0000 ( 14612 PWs)   bands (ev):

   -58.8627 -58.8627 -58.8627 -58.8627 -34.6060 -34.6060 -34.6059 -34.6059
   -32.1727 -32.1727 -32.1727 -32.1727 -32.0365 -32.0365 -32.0365 -32.0365
   -12.0436 -12.0436 -11.9082 -11.9082 -10.8875 -10.8875 -10.6868 -10.6868
    -3.7490  -3.7490  -3.2380  -3.2380  -1.0099  -1.0099  -0.9949  -0.9949
    -0.8183  -0.8183  -0.4227  -0.4227  -0.4086  -0.4086  -0.2861  -0.2861
     0.2090   0.2090   0.2333   0.2333   0.6961   0.6961   1.0946   1.0946
     1.7001   1.7001   2.1433   2.1433   4.5018   4.5018   4.5481   4.5481
     4.5756   4.5756   4.6884   4.6884   4.7270   4.7270   4.8287   4.8287
     5.0424   5.0424   5.0788   5.0788   7.6965   7.6965

          k = 0.0000 0.0962 0.0000 ( 14589 PWs)   bands (ev):

   -58.8647 -58.8647 -58.8647 -58.8647 -34.6006 -34.6006 -34.6006 -34.6006
   -32.1700 -32.1700 -32.1699 -32.1699 -32.0241 -32.0241 -32.0241 -32.0241
   -12.1226 -12.1226 -11.9867 -11.9867 -10.9233 -10.9233 -10.7177 -10.7177
    -3.8353  -3.8353  -3.3224  -3.3224  -0.8480  -0.8480  -0.8372  -0.8372
    -0.6573  -0.6573  -0.4980  -0.4980  -0.4884  -0.4884  -0.0625  -0.0625
     0.3245   0.3245   0.3450   0.3450   0.6545   0.6545   1.0278   1.0278
     1.7276   1.7276   2.2590   2.2590   4.6033   4.6033   4.6205   4.6205
     4.7063   4.7063   4.7553   4.7553   4.7988   4.7988   4.8948   4.8948
     4.9390   4.9390   4.9653   4.9653   7.5837   7.5837

          k = 0.0000 0.0642 0.0000 ( 14605 PWs)   bands (ev):

   -58.8661 -58.8661 -58.8661 -58.8661 -34.5968 -34.5968 -34.5967 -34.5967
   -32.1683 -32.1683 -32.1682 -32.1682 -32.0148 -32.0148 -32.0147 -32.0147
   -12.1801 -12.1801 -12.0437 -12.0437 -10.9494 -10.9494 -10.7401 -10.7401
    -3.8999  -3.8999  -3.3863  -3.3863  -0.7246  -0.7246  -0.7161  -0.7161
    -0.5669  -0.5669  -0.5481  -0.5481  -0.4991  -0.4991   0.1536   0.1536
     0.4154   0.4154   0.4284   0.4284   0.5993   0.5993   0.9184   0.9184
     1.7410   1.7410   2.3375   2.3375   4.6650   4.6650   4.6730   4.6730
     4.7956   4.7956   4.8293   4.8293   4.8532   4.8532   4.8862   4.8862
     4.9092   4.9092   4.9750   4.9750   7.4974   7.4974

          k = 0.0000 0.0321 0.0000 ( 14565 PWs)   bands (ev):

   -58.8670 -58.8670 -58.8670 -58.8670 -34.5944 -34.5944 -34.5943 -34.5943
   -32.1673 -32.1673 -32.1672 -32.1672 -32.0088 -32.0088 -32.0088 -32.0088
   -12.2149 -12.2149 -12.0783 -12.0783 -10.9651 -10.9651 -10.7537 -10.7537
    -3.9397  -3.9397  -3.4259  -3.4259  -0.6553  -0.6553  -0.6487  -0.6487
    -0.5838  -0.5838  -0.5716  -0.5716  -0.4062  -0.4062   0.3488   0.3488
     0.4679   0.4679   0.4797   0.4797   0.5603   0.5603   0.7790   0.7790
     1.7463   1.7463   2.3820   2.3820   4.6921   4.6921   4.7085   4.7085
     4.7722   4.7722   4.7965   4.7965   4.9189   4.9189   4.9341   4.9341
     4.9837   4.9837   5.0097   5.0097   7.4413   7.4413

          k = 0.0000 0.0000 0.0000 ( 14593 PWs)   bands (ev):

   -58.8673 -58.8673 -58.8673 -58.8673 -34.5937 -34.5937 -34.5936 -34.5936
   -32.1670 -32.1670 -32.1669 -32.1669 -32.0069 -32.0069 -32.0068 -32.0068
   -12.2266 -12.2266 -12.0899 -12.0899 -10.9704 -10.9704 -10.7583 -10.7583
    -3.9532  -3.9532  -3.4393  -3.4393  -0.6419  -0.6419  -0.6358  -0.6358
    -0.5810  -0.5810  -0.5693  -0.5693  -0.3688  -0.3688   0.4467   0.4467
     0.4684   0.4684   0.5317   0.5317   0.5546   0.5546   0.6704   0.6704
     1.7476   1.7476   2.3963   2.3963   4.6934   4.6934   4.7123   4.7123
     4.7684   4.7684   4.7920   4.7920   4.9431   4.9431   4.9482   4.9482
     5.0220   5.0220   5.0222   5.0222   7.4214   7.4214

     Writing all to output data dir ./tmp/MoS2_2L_pbe_wsoc.save/

     init_run     :      0.52s CPU      0.58s WALL (       1 calls)
     electrons    :    689.11s CPU    466.68s WALL (       1 calls)

     Called by init_run:
     wfcinit      :      0.00s CPU      0.00s WALL (       1 calls)
     wfcinit:atom :      0.28s CPU      0.29s WALL (      51 calls)
     wfcinit:wfcr :     15.94s CPU     11.10s WALL (      51 calls)
     potinit      :      0.03s CPU      0.05s WALL (       1 calls)
     hinit0       :      0.35s CPU      0.38s WALL (       1 calls)

     Called by electrons:
     c_bands      :    689.11s CPU    466.66s WALL (       1 calls)
     v_of_rho     :      0.02s CPU      0.03s WALL (       1 calls)
     v_h          :      0.00s CPU      0.00s WALL (       1 calls)
     v_xc         :      0.02s CPU      0.02s WALL (       1 calls)

     Called by c_bands:
     init_us_2    :      0.20s CPU      0.21s WALL (      51 calls)
     init_us_2:cp :      0.20s CPU      0.21s WALL (      51 calls)
     cegterg      :    669.81s CPU    451.96s WALL (     196 calls)

     Called by sum_band:

     Called by *egterg:
     cdiaghg      :     28.26s CPU     27.40s WALL (    3338 calls)
     cegterg:over :    114.91s CPU     61.50s WALL (    3287 calls)
     cegterg:upda :     68.35s CPU     33.82s WALL (    3287 calls)
     cegterg:last :    116.88s CPU     65.53s WALL (    1359 calls)
     h_psi        :    329.94s CPU    251.33s WALL (    3534 calls)
     g_psi        :      2.40s CPU      3.09s WALL (    3287 calls)

     Called by h_psi:
     h_psi:calbec :    100.67s CPU     56.16s WALL (    3534 calls)
     vloc_psi     :    126.58s CPU    131.80s WALL (    3534 calls)
     add_vuspsi   :     98.83s CPU     59.40s WALL (    3534 calls)

     General routines
     calbec       :    100.66s CPU     56.13s WALL (    3534 calls)
     fft          :      0.19s CPU      0.21s WALL (      14 calls)
     fftw         :     97.81s CPU    101.55s WALL (  381976 calls)
     davcio       :      0.00s CPU      0.42s WALL (     102 calls)

     Parallel routines

     PWSCF        :  11m30.97s CPU   7m49.61s WALL


   This run was terminated on:  14:19:25  18Apr2024            

=------------------------------------------------------------------------------=
   JOB DONE.
=------------------------------------------------------------------------------=
