
     Program PWSCF v.7.2 starts on 18Apr2024 at 12:56: 3 

     This program is part of the open-source Quantum ESPRESSO suite
     for quantum simulation of materials; please cite
         "P. Giannozzi et al., J. Phys.:Condens. Matter 21 395502 (2009);
         "P. Giannozzi et al., J. Phys.:Condens. Matter 29 465901 (2017);
         "P. Giannozzi et al., J. Chem. Phys. 152 154105 (2020);
          URL http://www.quantum-espresso.org", 
     in publications or presentations arising from this work. More details at
     http://www.quantum-espresso.org/quote

     Parallel version (MPI & OpenMP), running on       8 processor cores
     Number of MPI processes:                 8
     Threads/MPI process:                     1

     MPI processes distributed on     1 nodes
     0 MiB available memory on the printing compute node when the environment starts

     Waiting for input...
     Reading input from standard input
Warning: card &CELL ignored
Warning: card     CELL_DYNAMICS = 'BFGS' ignored
Warning: card     CELL_DOFREE = 'ALL' ignored
Warning: card / ignored

     Current dimensions of program PWSCF are:
     Max number of different atomic species (ntypx) = 10
     Max number of k-points (npk) =  40000
     Max angular momentum in pseudopotentials (lmaxx) =  4

     IMPORTANT: XC functional enforced from input :
     Exchange-correlation= VDW-DF2-B86R
                           (   1   4  26   0   2   0   0)
     Any further DFT definition will be discarded
     Please, verify this is what you really want


     R & G space division:  proc/nbgrp/npool/nimage =       8
     Subspace diagonalization in iterative solution of the eigenvalue problem:
     a serial algorithm will be used


     Parallelization info
     --------------------
     sticks:   dense  smooth     PW     G-vecs:    dense   smooth      PW
     Min          85      85     24                14701    14701    2318
     Max          86      86     25                14726    14726    2353
     Sum         685     685    199               117747   117747   18769

     Using Slab Decomposition



     bravais-lattice index     =            4
     lattice parameter (alat)  =       5.9915  a.u.
     unit-cell volume          =    1490.1169 (a.u.)^3
     number of atoms/cell      =            6
     number of atomic types    =            2
     number of electrons       =        52.00
     number of Kohn-Sham states=           31
     kinetic-energy cutoff     =      70.0000  Ry
     charge density cutoff     =     280.0000  Ry
     scf convergence threshold =      1.0E-07
     mixing beta               =       0.7000
     number of iterations used =            8  plain     mixing
     Exchange-correlation= VDW-DF2-B86R
                           (   1   4  26   0   2   0   0)

     celldm(1)=   5.991468  celldm(2)=   0.000000  celldm(3)=   8.000000
     celldm(4)=   0.000000  celldm(5)=   0.000000  celldm(6)=   0.000000

     crystal axes: (cart. coord. in units of alat)
               a(1) = (   1.000000   0.000000   0.000000 )  
               a(2) = (  -0.500000   0.866025   0.000000 )  
               a(3) = (   0.000000   0.000000   8.000000 )  

     reciprocal axes: (cart. coord. in units 2 pi/alat)
               b(1) = (  1.000000  0.577350 -0.000000 )  
               b(2) = (  0.000000  1.154701  0.000000 )  
               b(3) = (  0.000000 -0.000000  0.125000 )  


     PseudoPot. # 1 for S  read from file:
     ../../../Pseudo/PBE/S.upf
     MD5 check sum: b72b6a9ca752e39de1a6cc592280dae2
     Pseudo is Norm-conserving + core correction, Zval =  6.0
     Generated using ONCVPSP code by D. R. Hamann
     Using radial grid of 1148 points,  6 beta functions with: 
                l(1) =   0
                l(2) =   0
                l(3) =   1
                l(4) =   1
                l(5) =   2
                l(6) =   2

     PseudoPot. # 2 for Mo read from file:
     ../../../Pseudo/PBE/Mo.upf
     MD5 check sum: 7ca7a9feba7bf08d88d14bc7fbf60c1e
     Pseudo is Norm-conserving + core correction, Zval = 14.0
     Generated using ONCVPSP code by D. R. Hamann
     Using radial grid of 1640 points,  6 beta functions with: 
                l(1) =   0
                l(2) =   0
                l(3) =   1
                l(4) =   1
                l(5) =   2
                l(6) =   2

     atomic species   valence    mass     pseudopotential
        S              6.00    32.06500     S ( 1.00)
        Mo            14.00   183.84000     Mo( 1.00)

     12 Sym. Ops., with inversion, found


                                    s                        frac. trans.

      isym =  1     identity                                     

 cryst.   s( 1) = (     1          0          0      )
                  (     0          1          0      )
                  (     0          0          1      )

 cart.    s( 1) = (  1.0000000  0.0000000  0.0000000 )
                  (  0.0000000  1.0000000  0.0000000 )
                  (  0.0000000  0.0000000  1.0000000 )


      isym =  2     180 deg rotation - cart. axis [1,0,0]        

 cryst.   s( 2) = (     1          0          0      )
                  (    -1         -1          0      )
                  (     0          0         -1      )

 cart.    s( 2) = (  1.0000000  0.0000000  0.0000000 )
                  (  0.0000000 -1.0000000  0.0000000 )
                  (  0.0000000  0.0000000 -1.0000000 )


      isym =  3     120 deg rotation - cryst. axis [0,0,1]       

 cryst.   s( 3) = (     0          1          0      )
                  (    -1         -1          0      )
                  (     0          0          1      )

 cart.    s( 3) = ( -0.5000000 -0.8660254  0.0000000 )
                  (  0.8660254 -0.5000000  0.0000000 )
                  (  0.0000000  0.0000000  1.0000000 )


      isym =  4     120 deg rotation - cryst. axis [0,0,-1]      

 cryst.   s( 4) = (    -1         -1          0      )
                  (     1          0          0      )
                  (     0          0          1      )

 cart.    s( 4) = ( -0.5000000  0.8660254  0.0000000 )
                  ( -0.8660254 -0.5000000  0.0000000 )
                  (  0.0000000  0.0000000  1.0000000 )


      isym =  5     180 deg rotation - cryst. axis [0,1,0]       

 cryst.   s( 5) = (    -1         -1          0      )
                  (     0          1          0      )
                  (     0          0         -1      )

 cart.    s( 5) = ( -0.5000000 -0.8660254  0.0000000 )
                  ( -0.8660254  0.5000000  0.0000000 )
                  (  0.0000000  0.0000000 -1.0000000 )


      isym =  6     180 deg rotation - cryst. axis [1,1,0]       

 cryst.   s( 6) = (     0          1          0      )
                  (     1          0          0      )
                  (     0          0         -1      )

 cart.    s( 6) = ( -0.5000000  0.8660254  0.0000000 )
                  (  0.8660254  0.5000000  0.0000000 )
                  (  0.0000000  0.0000000 -1.0000000 )


      isym =  7     inversion                                    

 cryst.   s( 7) = (    -1          0          0      )
                  (     0         -1          0      )
                  (     0          0         -1      )

 cart.    s( 7) = ( -1.0000000  0.0000000  0.0000000 )
                  (  0.0000000 -1.0000000  0.0000000 )
                  (  0.0000000  0.0000000 -1.0000000 )


      isym =  8     inv. 180 deg rotation - cart. axis [1,0,0]   

 cryst.   s( 8) = (    -1          0          0      )
                  (     1          1          0      )
                  (     0          0          1      )

 cart.    s( 8) = ( -1.0000000  0.0000000  0.0000000 )
                  (  0.0000000  1.0000000  0.0000000 )
                  (  0.0000000  0.0000000  1.0000000 )


      isym =  9     inv. 120 deg rotation - cryst. axis [0,0,1]  

 cryst.   s( 9) = (     0         -1          0      )
                  (     1          1          0      )
                  (     0          0         -1      )

 cart.    s( 9) = (  0.5000000  0.8660254  0.0000000 )
                  ( -0.8660254  0.5000000  0.0000000 )
                  (  0.0000000  0.0000000 -1.0000000 )


      isym = 10     inv. 120 deg rotation - cryst. axis [0,0,-1] 

 cryst.   s(10) = (     1          1          0      )
                  (    -1          0          0      )
                  (     0          0         -1      )

 cart.    s(10) = (  0.5000000 -0.8660254  0.0000000 )
                  (  0.8660254  0.5000000  0.0000000 )
                  (  0.0000000  0.0000000 -1.0000000 )


      isym = 11     inv. 180 deg rotation - cryst. axis [0,1,0]  

 cryst.   s(11) = (     1          1          0      )
                  (     0         -1          0      )
                  (     0          0          1      )

 cart.    s(11) = (  0.5000000  0.8660254  0.0000000 )
                  (  0.8660254 -0.5000000  0.0000000 )
                  (  0.0000000  0.0000000  1.0000000 )


      isym = 12     inv. 180 deg rotation - cryst. axis [1,1,0]  

 cryst.   s(12) = (     0         -1          0      )
                  (    -1          0          0      )
                  (     0          0          1      )

 cart.    s(12) = (  0.5000000 -0.8660254  0.0000000 )
                  ( -0.8660254 -0.5000000  0.0000000 )
                  (  0.0000000  0.0000000  1.0000000 )


     point group D_3d (-3m) 
     there are  6 classes
     the character table:

       E     2C3   3C2'  i     2S6   3s_d 
A_1g   1.00  1.00  1.00  1.00  1.00  1.00
A_2g   1.00  1.00 -1.00  1.00  1.00 -1.00
E_g    2.00 -1.00  0.00  2.00 -1.00  0.00
A_1u   1.00  1.00  1.00 -1.00 -1.00 -1.00
A_2u   1.00  1.00 -1.00 -1.00 -1.00  1.00
E_u    2.00 -1.00  0.00 -2.00  1.00  0.00

     the symmetry operations in each class and the name of the first element:

     E        1
          identity                                               
     2C3      3    4
          120 deg rotation - cryst. axis [0,0,1]                 
     3C2'     2    5    6
          180 deg rotation - cart. axis [1,0,0]                  
     i        7
          inversion                                              
     2S6      9   10
          inv. 120 deg rotation - cryst. axis [0,0,1]            
     3s_d     8   11   12
          inv. 180 deg rotation - cart. axis [1,0,0]             

   Cartesian axes

     site n.     atom                  positions (alat units)
         1           Mo  tau(   1) = (  -0.0000003   0.5773503  -0.9752993  )
         2           Mo  tau(   2) = (   0.5000002   0.2886748   0.9752993  )
         3           S   tau(   3) = (   0.5000002   0.2886748  -0.4799475  )
         4           S   tau(   4) = (  -0.0000003   0.5773503   0.4799475  )
         5           S   tau(   5) = (  -0.0000003   0.5773503   1.4700984  )
         6           S   tau(   6) = (   0.5000002   0.2886748  -1.4700984  )

   Crystallographic axes

     site n.     atom                  positions (cryst. coord.)
         1           Mo  tau(   1) = (  0.3333330  0.6666667 -0.1219124  )
         2           Mo  tau(   2) = (  0.6666667  0.3333330  0.1219124  )
         3           S   tau(   3) = (  0.6666667  0.3333330 -0.0599934  )
         4           S   tau(   4) = (  0.3333330  0.6666667  0.0599934  )
         5           S   tau(   5) = (  0.3333330  0.6666667  0.1837623  )
         6           S   tau(   6) = (  0.6666667  0.3333330 -0.1837623  )

     number of k points=    19  Marzari-Vanderbilt smearing, width (Ry)=  0.0050
                       cart. coord. in units 2pi/alat
        k(    1) = (   0.0000000   0.0000000   0.0000000), wk =   0.0138889
        k(    2) = (   0.0000000   0.0962250   0.0000000), wk =   0.0833333
        k(    3) = (   0.0000000   0.1924501   0.0000000), wk =   0.0833333
        k(    4) = (   0.0000000   0.2886751   0.0000000), wk =   0.0833333
        k(    5) = (   0.0000000   0.3849002   0.0000000), wk =   0.0833333
        k(    6) = (   0.0000000   0.4811252   0.0000000), wk =   0.0833333
        k(    7) = (   0.0000000  -0.5773503   0.0000000), wk =   0.0416667
        k(    8) = (   0.0833333   0.1443376   0.0000000), wk =   0.0833333
        k(    9) = (   0.0833333   0.2405626   0.0000000), wk =   0.1666667
        k(   10) = (   0.0833333   0.3367877   0.0000000), wk =   0.1666667
        k(   11) = (   0.0833333   0.4330127   0.0000000), wk =   0.1666667
        k(   12) = (   0.0833333   0.5292377   0.0000000), wk =   0.1666667
        k(   13) = (   0.1666667   0.2886751   0.0000000), wk =   0.0833333
        k(   14) = (   0.1666667   0.3849002   0.0000000), wk =   0.1666667
        k(   15) = (   0.1666667   0.4811252   0.0000000), wk =   0.1666667
        k(   16) = (   0.1666667   0.5773503   0.0000000), wk =   0.0833333
        k(   17) = (   0.2500000   0.4330127   0.0000000), wk =   0.0833333
        k(   18) = (   0.2500000   0.5292377   0.0000000), wk =   0.1666667
        k(   19) = (   0.3333333   0.5773503   0.0000000), wk =   0.0277778

                       cryst. coord.
        k(    1) = (   0.0000000   0.0000000   0.0000000), wk =   0.0138889
        k(    2) = (   0.0000000   0.0833333   0.0000000), wk =   0.0833333
        k(    3) = (   0.0000000   0.1666667   0.0000000), wk =   0.0833333
        k(    4) = (   0.0000000   0.2500000   0.0000000), wk =   0.0833333
        k(    5) = (   0.0000000   0.3333333   0.0000000), wk =   0.0833333
        k(    6) = (   0.0000000   0.4166667   0.0000000), wk =   0.0833333
        k(    7) = (   0.0000000  -0.5000000   0.0000000), wk =   0.0416667
        k(    8) = (   0.0833333   0.0833333   0.0000000), wk =   0.0833333
        k(    9) = (   0.0833333   0.1666667   0.0000000), wk =   0.1666667
        k(   10) = (   0.0833333   0.2500000   0.0000000), wk =   0.1666667
        k(   11) = (   0.0833333   0.3333333   0.0000000), wk =   0.1666667
        k(   12) = (   0.0833333   0.4166667   0.0000000), wk =   0.1666667
        k(   13) = (   0.1666667   0.1666667   0.0000000), wk =   0.0833333
        k(   14) = (   0.1666667   0.2500000   0.0000000), wk =   0.1666667
        k(   15) = (   0.1666667   0.3333333   0.0000000), wk =   0.1666667
        k(   16) = (   0.1666667   0.4166667   0.0000000), wk =   0.0833333
        k(   17) = (   0.2500000   0.2500000   0.0000000), wk =   0.0833333
        k(   18) = (   0.2500000   0.3333333   0.0000000), wk =   0.1666667
        k(   19) = (   0.3333333   0.3333333   0.0000000), wk =   0.0277778

     Dense  grid:   117747 G-vectors     FFT dimensions: (  32,  32, 256)

     Dynamical RAM for                 wfc:       0.87 MB

     Dynamical RAM for     wfc (w. buffer):      17.43 MB

     Dynamical RAM for           str. fact:       0.45 MB

     Dynamical RAM for           local pot:       0.00 MB

     Dynamical RAM for          nlocal pot:       3.04 MB

     Dynamical RAM for                qrad:       2.69 MB

     Dynamical RAM for          rho,v,vnew:       1.42 MB

     Dynamical RAM for               rhoin:       0.47 MB

     Dynamical RAM for            rho*nmix:       3.59 MB

     Dynamical RAM for           G-vectors:       0.95 MB

     Dynamical RAM for          h,s,v(r/c):       0.18 MB

     Dynamical RAM for          <psi|beta>:       0.05 MB

     Dynamical RAM for                 psi:       1.74 MB

     Dynamical RAM for                hpsi:       1.74 MB

     Dynamical RAM for      wfcinit/wfcrot:       2.05 MB

     Estimated static dynamical RAM per process >      28.37 MB

     Estimated max dynamical RAM per process >      35.68 MB

     Estimated total dynamical RAM >     285.45 MB

     Initial potential from superposition of free atoms

     starting charge      51.9970, renormalised to      52.0000

     negative rho (up, down):  4.412E-05 0.000E+00


     %%%%%%%%%%%%%%%%%%%%%%%%%%%%%%%%%%%%%%%%%%%%%%%%%%%%%%%%%%%%%%%%%%%%%%%%
     %                                                                      %
     % You are using vdW-DF, which was implemented by the Thonhauser group. %
     % Please cite the following two papers that made this development      %
     % possible and the two reviews that describe the various versions:     %
     %                                                                      %
     %   T. Thonhauser et al., PRL 115, 136402 (2015).                      %
     %   T. Thonhauser et al., PRB 76, 125112 (2007).                       %
     %   K. Berland et al., Rep. Prog. Phys. 78, 066501 (2015).             %
     %   D.C. Langreth et al., J. Phys.: Condens. Matter 21, 084203 (2009). %
     %                                                                      %
     % If you are calculating stress with vdW-DF, please also cite:         %
     %                                                                      %
     %   R. Sabatini et al., J. Phys.: Condens. Matter 24, 424209 (2012).   %
     %                                                                      %
     %%%%%%%%%%%%%%%%%%%%%%%%%%%%%%%%%%%%%%%%%%%%%%%%%%%%%%%%%%%%%%%%%%%%%%%%

     %%%%%%%%%%%%%%%%%%%%%%%%%%%%%%%%%%%%%%%%%%%%%%%%%%%%%%%%%%%%%%%%%%%%%%%%
     %                                                                      %
     %  vdW-DF NEWS:                                                        %
     %                                                                      %
     %  * vdW-DF3 is now available. DOI: 10.1021/acs.jctc.0c00471           %
     %    use with input_dft = 'vdW-DF3-opt1' or 'vdW-DF3-opt2'             %
     %                                                                      %
     %  * Unscreened and range-separated hybrid vdW-DF-cx functionals       %
     %    DOI: 10.1063/1.4986522 and 10.1088/1361-648X/ac2ad2               %
     %    use with input_dft = 'vdW-DF-cx0'    and 'vdW-DF-ahcx'            %
     %  * Unscreened and range-separated hybrid vdW-DF2-b86r functionals    %
     %    DOI: 10.1063/1.4986522 and DOI: 10.1103/PhysRevX.12.041003        %
     %    use with input_dft = 'vdW-DF2-br0' and 'vdW-DF2-ahbr'             %
     %                                                                      %
     %%%%%%%%%%%%%%%%%%%%%%%%%%%%%%%%%%%%%%%%%%%%%%%%%%%%%%%%%%%%%%%%%%%%%%%%


     Carrying out vdW-DF run using the following parameters:
     Nqs    =  20  Npoints =  1024  r_max =  100.000
     q_mesh =  0.00001000  0.04494208  0.09755937  0.15916263
               0.23128650  0.31572767  0.41458969  0.53033537
               0.66584808  0.82450364  1.01025438  1.22772762
               1.48234092  1.78043706  2.12944203  2.53805004
               3.01644009  3.57652955  4.23227104  5.00000000


     -----------------------------------------------
     Non-local corr. energy    =       0.58394164 Ry
     -----------------------------------------------

     Starting wfcs are   36 randomized atomic wfcs

     total cpu time spent up to now is        9.9 secs

     Self-consistent Calculation

     iteration #  1     ecut=    70.00 Ry     beta= 0.70
     Davidson diagonalization with overlap

---- Real-time Memory Report at c_bands before calling an iterative solver
             0 MiB given to the printing process from OS
             0 MiB allocation reported by mallinfo(arena+hblkhd)
             0 MiB available memory on the node where the printing process lives
------------------
     ethr =  1.00E-02,  avg # of iterations =  2.7


     -----------------------------------------------
     Non-local corr. energy    =       0.58565732 Ry
     -----------------------------------------------


     total cpu time spent up to now is       12.8 secs

     total energy              =    -369.19192742 Ry
     estimated scf accuracy    <       0.92438139 Ry

     iteration #  2     ecut=    70.00 Ry     beta= 0.70
     Davidson diagonalization with overlap

---- Real-time Memory Report at c_bands before calling an iterative solver
             0 MiB given to the printing process from OS
             0 MiB allocation reported by mallinfo(arena+hblkhd)
             0 MiB available memory on the node where the printing process lives
------------------
     ethr =  1.78E-03,  avg # of iterations =  6.2


     -----------------------------------------------
     Non-local corr. energy    =       0.58549414 Ry
     -----------------------------------------------


     total cpu time spent up to now is       16.8 secs

     total energy              =    -367.99125567 Ry
     estimated scf accuracy    <      13.24879628 Ry

     iteration #  3     ecut=    70.00 Ry     beta= 0.70
     Davidson diagonalization with overlap

---- Real-time Memory Report at c_bands before calling an iterative solver
             0 MiB given to the printing process from OS
             0 MiB allocation reported by mallinfo(arena+hblkhd)
             0 MiB available memory on the node where the printing process lives
------------------
     ethr =  1.78E-03,  avg # of iterations =  4.4


     -----------------------------------------------
     Non-local corr. energy    =       0.58255254 Ry
     -----------------------------------------------


     total cpu time spent up to now is       19.8 secs

     total energy              =    -369.74286207 Ry
     estimated scf accuracy    <       0.09077666 Ry

     iteration #  4     ecut=    70.00 Ry     beta= 0.70
     Davidson diagonalization with overlap

---- Real-time Memory Report at c_bands before calling an iterative solver
             0 MiB given to the printing process from OS
             0 MiB allocation reported by mallinfo(arena+hblkhd)
             0 MiB available memory on the node where the printing process lives
------------------
     ethr =  1.75E-04,  avg # of iterations =  3.8


     -----------------------------------------------
     Non-local corr. energy    =       0.58229064 Ry
     -----------------------------------------------


     total cpu time spent up to now is       22.3 secs

     total energy              =    -369.74465179 Ry
     estimated scf accuracy    <       0.09844809 Ry

     iteration #  5     ecut=    70.00 Ry     beta= 0.70
     Davidson diagonalization with overlap

---- Real-time Memory Report at c_bands before calling an iterative solver
             0 MiB given to the printing process from OS
             0 MiB allocation reported by mallinfo(arena+hblkhd)
             0 MiB available memory on the node where the printing process lives
------------------
     ethr =  1.75E-04,  avg # of iterations =  2.2


     -----------------------------------------------
     Non-local corr. energy    =       0.58142866 Ry
     -----------------------------------------------


     total cpu time spent up to now is       24.6 secs

     total energy              =    -369.75003453 Ry
     estimated scf accuracy    <       0.02458438 Ry

     iteration #  6     ecut=    70.00 Ry     beta= 0.70
     Davidson diagonalization with overlap

---- Real-time Memory Report at c_bands before calling an iterative solver
             0 MiB given to the printing process from OS
             0 MiB allocation reported by mallinfo(arena+hblkhd)
             0 MiB available memory on the node where the printing process lives
------------------
     ethr =  4.73E-05,  avg # of iterations =  2.4


     -----------------------------------------------
     Non-local corr. energy    =       0.58189680 Ry
     -----------------------------------------------


     total cpu time spent up to now is       26.8 secs

     total energy              =    -369.75288141 Ry
     estimated scf accuracy    <       0.00098703 Ry

     iteration #  7     ecut=    70.00 Ry     beta= 0.70
     Davidson diagonalization with overlap

---- Real-time Memory Report at c_bands before calling an iterative solver
             0 MiB given to the printing process from OS
             0 MiB allocation reported by mallinfo(arena+hblkhd)
             0 MiB available memory on the node where the printing process lives
------------------
     ethr =  1.90E-06,  avg # of iterations =  8.8

     negative rho (up, down):  8.676E-08 0.000E+00


     -----------------------------------------------
     Non-local corr. energy    =       0.58183099 Ry
     -----------------------------------------------


     total cpu time spent up to now is       30.6 secs

     total energy              =    -369.75332633 Ry
     estimated scf accuracy    <       0.00028192 Ry

     iteration #  8     ecut=    70.00 Ry     beta= 0.70
     Davidson diagonalization with overlap

---- Real-time Memory Report at c_bands before calling an iterative solver
             0 MiB given to the printing process from OS
             0 MiB allocation reported by mallinfo(arena+hblkhd)
             0 MiB available memory on the node where the printing process lives
------------------
     ethr =  5.42E-07,  avg # of iterations =  1.0


     -----------------------------------------------
     Non-local corr. energy    =       0.58184812 Ry
     -----------------------------------------------


     total cpu time spent up to now is       32.4 secs

     total energy              =    -369.75330346 Ry
     estimated scf accuracy    <       0.00011070 Ry

     iteration #  9     ecut=    70.00 Ry     beta= 0.70
     Davidson diagonalization with overlap

---- Real-time Memory Report at c_bands before calling an iterative solver
             0 MiB given to the printing process from OS
             0 MiB allocation reported by mallinfo(arena+hblkhd)
             0 MiB available memory on the node where the printing process lives
------------------
     ethr =  2.13E-07,  avg # of iterations =  3.3


     -----------------------------------------------
     Non-local corr. energy    =       0.58184796 Ry
     -----------------------------------------------


     total cpu time spent up to now is       34.8 secs

     total energy              =    -369.75332378 Ry
     estimated scf accuracy    <       0.00000158 Ry

     iteration # 10     ecut=    70.00 Ry     beta= 0.70
     Davidson diagonalization with overlap

---- Real-time Memory Report at c_bands before calling an iterative solver
             0 MiB given to the printing process from OS
             0 MiB allocation reported by mallinfo(arena+hblkhd)
             0 MiB available memory on the node where the printing process lives
------------------
     ethr =  3.04E-09,  avg # of iterations =  5.1


     -----------------------------------------------
     Non-local corr. energy    =       0.58185200 Ry
     -----------------------------------------------


     total cpu time spent up to now is       37.9 secs

     total energy              =    -369.75332492 Ry
     estimated scf accuracy    <       0.00000089 Ry

     iteration # 11     ecut=    70.00 Ry     beta= 0.70
     Davidson diagonalization with overlap

---- Real-time Memory Report at c_bands before calling an iterative solver
             0 MiB given to the printing process from OS
             0 MiB allocation reported by mallinfo(arena+hblkhd)
             0 MiB available memory on the node where the printing process lives
------------------
     ethr =  1.72E-09,  avg # of iterations =  1.5


     -----------------------------------------------
     Non-local corr. energy    =       0.58185252 Ry
     -----------------------------------------------


     total cpu time spent up to now is       39.9 secs

     total energy              =    -369.75332490 Ry
     estimated scf accuracy    <       0.00000020 Ry

     iteration # 12     ecut=    70.00 Ry     beta= 0.70
     Davidson diagonalization with overlap

---- Real-time Memory Report at c_bands before calling an iterative solver
             0 MiB given to the printing process from OS
             0 MiB allocation reported by mallinfo(arena+hblkhd)
             0 MiB available memory on the node where the printing process lives
------------------
     ethr =  3.92E-10,  avg # of iterations =  4.4


     -----------------------------------------------
     Non-local corr. energy    =       0.58185229 Ry
     -----------------------------------------------


     total cpu time spent up to now is       42.5 secs

     End of self-consistent calculation

          k = 0.0000 0.0000 0.0000 ( 14593 PWs)   bands (ev):

   -58.9901 -58.9901 -33.1528 -33.1527 -32.9264 -32.9264 -32.9263 -32.9263
   -12.3448 -12.2054 -11.0917 -10.8754  -4.0822  -3.5555  -0.7499  -0.7499
    -0.7435  -0.7435  -0.5360   0.3538   0.3539   0.3767   0.3768   0.5225
     1.5761   2.2529   4.6056   4.6057   4.6252   4.6252   4.8036

     occupation numbers 
     1.0000   1.0000   1.0000   1.0000   1.0000   1.0000   1.0000   1.0000
     1.0000   1.0000   1.0000   1.0000   1.0000   1.0000   1.0000   1.0000
     1.0000   1.0000   1.0000   1.0000   1.0000   1.0000   1.0000   1.0000
     1.0000   1.0000   0.0000   0.0000   0.0000   0.0000   0.0000

          k = 0.0000 0.0962 0.0000 ( 14589 PWs)   bands (ev):

   -58.9875 -58.9875 -33.1476 -33.1475 -32.9529 -32.9529 -32.9324 -32.9323
   -12.2409 -12.1021 -11.0448 -10.8351  -3.9637  -3.4379  -0.9830  -0.9723
    -0.8104  -0.6425  -0.6333  -0.1990   0.1876   0.2130   0.5141   0.8896
     1.5610   2.1188   4.4808   4.4951   4.5562   4.6125   4.6610

     occupation numbers 
     1.0000   1.0000   1.0000   1.0000   1.0000   1.0000   1.0000   1.0000
     1.0000   1.0000   1.0000   1.0000   1.0000   1.0000   1.0000   1.0000
     1.0000   1.0000   1.0000   1.0000   1.0000   1.0000   1.0000   1.0000
     1.0000   1.0000   0.0000   0.0000   0.0000   0.0000   0.0000

          k = 0.0000 0.1925 0.0000 ( 14674 PWs)   bands (ev):

   -58.9803 -58.9803 -33.1334 -33.1333 -33.0251 -33.0251 -32.9489 -32.9488
   -11.9445 -11.8089 -10.9111 -10.7210  -3.6603  -3.1489  -1.5313  -1.4934
    -1.3215  -0.8882  -0.3442  -0.3266  -0.2024  -0.1726   0.5547   0.9550
     1.4212   1.6704   4.0160   4.2426   4.3851   4.3944   4.5064

     occupation numbers 
     1.0000   1.0000   1.0000   1.0000   1.0000   1.0000   1.0000   1.0000
     1.0000   1.0000   1.0000   1.0000   1.0000   1.0000   1.0000   1.0000
     1.0000   1.0000   1.0000   1.0000   1.0000   1.0000   1.0000   1.0000
     1.0000   1.0000   0.0000   0.0000   0.0000   0.0000   0.0000

          k = 0.0000 0.2887 0.0000 ( 14740 PWs)   bands (ev):

   -58.9704 -58.9704 -33.1223 -33.1222 -33.1139 -33.1138 -32.9713 -32.9713
   -11.5034 -11.3763 -10.7133 -10.5548  -3.3916  -2.9930  -2.0939  -1.9225
    -1.8357  -1.5651  -0.6415  -0.6069   0.0741   0.1067   0.3238   0.6672
     1.0522   1.1167   3.8002   4.1313   4.1790   4.2380   4.6439

     occupation numbers 
     1.0000   1.0000   1.0000   1.0000   1.0000   1.0000   1.0000   1.0000
     1.0000   1.0000   1.0000   1.0000   1.0000   1.0000   1.0000   1.0000
     1.0000   1.0000   1.0000   1.0000   1.0000   1.0000   1.0000   1.0000
     1.0000   1.0000   0.0000   0.0000   0.0000   0.0000   0.0000

          k = 0.0000 0.3849 0.0000 ( 14728 PWs)   bands (ev):

   -58.9605 -58.9605 -33.2179 -33.2179 -33.0943 -33.0943 -32.9936 -32.9936
   -11.0035 -10.8939 -10.4925 -10.3757  -3.5272  -3.3157  -2.5500  -2.3218
    -2.1279  -1.8499  -1.0092  -0.9717   0.0348   0.3053   0.4837   0.5420
     0.7843   0.9087   3.9780   4.0085   4.0876   4.3204   5.0730

     occupation numbers 
     1.0000   1.0000   1.0000   1.0000   1.0000   1.0000   1.0000   1.0000
     1.0000   1.0000   1.0000   1.0000   1.0000   1.0000   1.0000   1.0000
     1.0000   1.0000   1.0000   1.0000   1.0000   1.0000   1.0000   1.0000
     1.0000   1.0000   0.0000   0.0000   0.0000   0.0000   0.0000

          k = 0.0000 0.4811 0.0000 ( 14730 PWs)   bands (ev):

   -58.9533 -58.9533 -33.2871 -33.2870 -33.0800 -33.0799 -33.0099 -33.0098
   -10.5791 -10.4979 -10.3090 -10.2390  -3.8744  -3.7119  -2.9339  -2.7726
    -2.2829  -1.9712  -1.2479  -1.2087  -0.1240   0.0645   0.7597   0.8465
     0.9591   1.0820   4.0383   4.0798   4.3214   4.5341   5.3874

     occupation numbers 
     1.0000   1.0000   1.0000   1.0000   1.0000   1.0000   1.0000   1.0000
     1.0000   1.0000   1.0000   1.0000   1.0000   1.0000   1.0000   1.0000
     1.0000   1.0000   1.0000   1.0000   1.0000   1.0000   1.0000   1.0000
     1.0000   1.0000   0.0000   0.0000   0.0000   0.0000   0.0000

          k = 0.0000-0.5774 0.0000 ( 14778 PWs)   bands (ev):

   -58.9506 -58.9506 -33.3122 -33.3122 -33.0747 -33.0747 -33.0158 -33.0158
   -10.4031 -10.3425 -10.2334 -10.1919  -4.0353  -3.8753  -3.0825  -2.9443
    -2.3650  -2.0565  -1.3301  -1.2903  -0.1585  -0.0245   0.8512   0.9506
     1.1580   1.2107   4.0833   4.1065   4.5229   4.6576   5.4829

     occupation numbers 
     1.0000   1.0000   1.0000   1.0000   1.0000   1.0000   1.0000   1.0000
     1.0000   1.0000   1.0000   1.0000   1.0000   1.0000   1.0000   1.0000
     1.0000   1.0000   1.0000   1.0000   1.0000   1.0000   1.0000   1.0000
     1.0000   1.0000   0.0000   0.0000   0.0000   0.0000   0.0000

          k = 0.0833 0.1443 0.0000 ( 14662 PWs)   bands (ev):

   -58.9826 -58.9826 -33.1378 -33.1378 -33.0010 -33.0009 -32.9450 -32.9450
   -12.0406 -11.9038 -10.9543 -10.7577  -3.7499  -3.2298  -1.3555  -1.3494
    -1.1528  -0.6484  -0.4457  -0.4351  -0.2015  -0.1631   0.6753   1.0487
     1.4848   1.8268   4.1285   4.2839   4.3145   4.4777   4.5084

     occupation numbers 
     1.0000   1.0000   1.0000   1.0000   1.0000   1.0000   1.0000   1.0000
     1.0000   1.0000   1.0000   1.0000   1.0000   1.0000   1.0000   1.0000
     1.0000   1.0000   1.0000   1.0000   1.0000   1.0000   1.0000   1.0000
     1.0000   1.0000   0.0000   0.0000   0.0000   0.0000   0.0000

          k = 0.0833 0.2406 0.0000 ( 14719 PWs)   bands (ev):

   -58.9740 -58.9740 -33.1210 -33.1210 -33.0821 -33.0821 -32.9680 -32.9679
   -11.6709 -11.5398 -10.7876 -10.6165  -3.4398  -2.9694  -1.8695  -1.8107
    -1.5895  -1.2408  -0.7656  -0.6928  -0.1350  -0.1159   0.6841   0.9663
     1.2289   1.3068   3.7368   4.0720   4.2410   4.3372   4.3568

     occupation numbers 
     1.0000   1.0000   1.0000   1.0000   1.0000   1.0000   1.0000   1.0000
     1.0000   1.0000   1.0000   1.0000   1.0000   1.0000   1.0000   1.0000
     1.0000   1.0000   1.0000   1.0000   1.0000   1.0000   1.0000   1.0000
     1.0000   1.0000   0.0000   0.0000   0.0000   0.0000   0.0000

          k = 0.0833 0.3368 0.0000 ( 14727 PWs)   bands (ev):

   -58.9642 -58.9642 -33.1743 -33.1743 -33.1015 -33.1014 -32.9945 -32.9945
   -11.1968 -11.0788 -10.5753 -10.4405  -3.3615  -3.0817  -2.2898  -2.0799
    -1.9934  -1.8099  -1.1594  -1.0316   0.0976   0.1231   0.4299   0.6138
     0.9455   0.9963   3.6600   3.9996   4.1818   4.3452   4.6866

     occupation numbers 
     1.0000   1.0000   1.0000   1.0000   1.0000   1.0000   1.0000   1.0000
     1.0000   1.0000   1.0000   1.0000   1.0000   1.0000   1.0000   1.0000
     1.0000   1.0000   1.0000   1.0000   1.0000   1.0000   1.0000   1.0000
     1.0000   1.0000   0.0000   0.0000   0.0000   0.0000   0.0000

          k = 0.0833 0.4330 0.0000 ( 14771 PWs)   bands (ev):

   -58.9556 -58.9556 -33.2531 -33.2531 -33.0845 -33.0845 -33.0174 -33.0174
   -10.7259 -10.6317 -10.3674 -10.2772  -3.6393  -3.4680  -2.7642  -2.6359
    -2.1721  -1.8782  -1.3236  -1.2102   0.0633   0.1950   0.2365   0.3067
     1.0659   1.1114   3.8631   4.0821   4.3235   4.4417   5.1237

     occupation numbers 
     1.0000   1.0000   1.0000   1.0000   1.0000   1.0000   1.0000   1.0000
     1.0000   1.0000   1.0000   1.0000   1.0000   1.0000   1.0000   1.0000
     1.0000   1.0000   1.0000   1.0000   1.0000   1.0000   1.0000   1.0000
     1.0000   1.0000   0.0000   0.0000   0.0000   0.0000   0.0000

          k = 0.0833 0.5292 0.0000 ( 14775 PWs)   bands (ev):

   -58.9506 -58.9506 -33.2982 -33.2982 -33.0747 -33.0747 -33.0306 -33.0305
   -10.4127 -10.3483 -10.2306 -10.1830  -3.8947  -3.7380  -3.0793  -2.9906
    -2.3174  -2.0113  -1.3557  -1.2912  -0.1323   0.0455   0.3133   0.4150
     1.2893   1.3620   4.0644   4.1248   4.5092   4.6649   5.4958

     occupation numbers 
     1.0000   1.0000   1.0000   1.0000   1.0000   1.0000   1.0000   1.0000
     1.0000   1.0000   1.0000   1.0000   1.0000   1.0000   1.0000   1.0000
     1.0000   1.0000   1.0000   1.0000   1.0000   1.0000   1.0000   1.0000
     1.0000   1.0000   0.0000   0.0000   0.0000   0.0000   0.0000

          k = 0.1667 0.2887 0.0000 ( 14714 PWs)   bands (ev):

   -58.9655 -58.9655 -33.1520 -33.1520 -33.1041 -33.1040 -33.0012 -33.0012
   -11.2655 -11.1448 -10.6040 -10.4629  -3.2840  -2.9589  -2.1008  -1.9630
    -1.8686  -1.7354  -1.4670  -1.1756  -0.1109  -0.1052   0.7365   0.8364
     1.0216   1.0316   3.5137   3.9073   4.2388   4.3755   4.4080

     occupation numbers 
     1.0000   1.0000   1.0000   1.0000   1.0000   1.0000   1.0000   1.0000
     1.0000   1.0000   1.0000   1.0000   1.0000   1.0000   1.0000   1.0000
     1.0000   1.0000   1.0000   1.0000   1.0000   1.0000   1.0000   1.0000
     1.0000   1.0000   0.0000   0.0000   0.0000   0.0000   0.0000

          k = 0.1667 0.3849 0.0000 ( 14763 PWs)   bands (ev):

   -58.9569 -58.9569 -33.2177 -33.2176 -33.0872 -33.0872 -33.0380 -33.0380
   -10.8108 -10.7098 -10.3974 -10.2954  -3.3899  -3.2058  -2.5758  -2.5186
    -2.0175  -1.8116  -1.5708  -1.2656  -0.4201  -0.3613   0.4342   0.5163
     1.0761   1.0873   3.6438   4.0711   4.3807   4.4364   4.6816

     occupation numbers 
     1.0000   1.0000   1.0000   1.0000   1.0000   1.0000   1.0000   1.0000
     1.0000   1.0000   1.0000   1.0000   1.0000   1.0000   1.0000   1.0000
     1.0000   1.0000   1.0000   1.0000   1.0000   1.0000   1.0000   1.0000
     1.0000   1.0000   0.0000   0.0000   0.0000   0.0000   0.0000

          k = 0.1667 0.4811 0.0000 ( 14763 PWs)   bands (ev):

   -58.9506 -58.9506 -33.2641 -33.2640 -33.0747 -33.0747 -33.0660 -33.0660
   -10.4310 -10.3599 -10.2243 -10.1660  -3.5662  -3.4201  -3.0829  -3.0610
    -2.1459  -1.8742  -1.4918  -1.2408  -0.5755  -0.4416   0.0063   0.1965
     1.2965   1.3602   3.9169   4.1354   4.5564   4.6846   4.9808

     occupation numbers 
     1.0000   1.0000   1.0000   1.0000   1.0000   1.0000   1.0000   1.0000
     1.0000   1.0000   1.0000   1.0000   1.0000   1.0000   1.0000   1.0000
     1.0000   1.0000   1.0000   1.0000   1.0000   1.0000   1.0000   1.0000
     1.0000   1.0000   0.0000   0.0000   0.0000   0.0000   0.0000

          k = 0.1667 0.5774 0.0000 ( 14768 PWs)   bands (ev):

   -58.9483 -58.9483 -33.2808 -33.2807 -33.0765 -33.0765 -33.0702 -33.0702
   -10.2747 -10.2257 -10.1526 -10.1215  -3.6384  -3.4944  -3.2692  -3.2591
    -2.2695  -1.9834  -1.3965  -1.2122  -0.5736  -0.4313  -0.1938   0.0404
     1.4584   1.5486   3.9508   4.0088   4.7915   4.8899   5.1021

     occupation numbers 
     1.0000   1.0000   1.0000   1.0000   1.0000   1.0000   1.0000   1.0000
     1.0000   1.0000   1.0000   1.0000   1.0000   1.0000   1.0000   1.0000
     1.0000   1.0000   1.0000   1.0000   1.0000   1.0000   1.0000   1.0000
     1.0000   1.0000   0.0000   0.0000   0.0000   0.0000   0.0000

          k = 0.2500 0.4330 0.0000 ( 14788 PWs)   bands (ev):

   -58.9506 -58.9506 -33.2412 -33.2412 -33.0896 -33.0895 -33.0748 -33.0748
   -10.4399 -10.3657 -10.2210 -10.1577  -3.3708  -3.2317  -3.1171  -3.0566
    -1.8695  -1.7982  -1.5075  -1.2345  -1.1184  -0.9737   0.0868   0.2766
     1.2763   1.3262   3.8340   4.1169   4.5524   4.6947   4.7624

     occupation numbers 
     1.0000   1.0000   1.0000   1.0000   1.0000   1.0000   1.0000   1.0000
     1.0000   1.0000   1.0000   1.0000   1.0000   1.0000   1.0000   1.0000
     1.0000   1.0000   1.0000   1.0000   1.0000   1.0000   1.0000   1.0000
     1.0000   1.0000   0.0000   0.0000   0.0000   0.0000   0.0000

          k = 0.2500 0.5292 0.0000 ( 14792 PWs)   bands (ev):

   -58.9470 -58.9470 -33.2460 -33.2459 -33.1282 -33.1282 -33.0676 -33.0676
   -10.1999 -10.1587 -10.1036 -10.0784  -3.4796  -3.4024  -3.2165  -3.1217
    -2.0877  -1.9055  -1.5172  -1.3704  -1.2296  -1.0416  -0.2571  -0.0324
     1.5654   1.6477   3.7350   3.7912   4.6568   5.0508   5.0894

     occupation numbers 
     1.0000   1.0000   1.0000   1.0000   1.0000   1.0000   1.0000   1.0000
     1.0000   1.0000   1.0000   1.0000   1.0000   1.0000   1.0000   1.0000
     1.0000   1.0000   1.0000   1.0000   1.0000   1.0000   1.0000   1.0000
     1.0000   1.0000   0.0000   0.0000   0.0000   0.0000   0.0000

          k = 0.3333 0.5774 0.0000 ( 14790 PWs)   bands (ev):

   -58.9457 -58.9457 -33.2166 -33.2166 -33.1738 -33.1738 -33.0649 -33.0649
   -10.0973 -10.0973 -10.0512 -10.0512  -3.6257  -3.5407  -2.7941  -2.7941
    -2.2980  -2.1650  -1.7358  -1.7358  -1.0617  -1.0617  -0.3027  -0.3027
     1.7505   1.8347   3.5339   3.5339   4.5475   5.0700   5.3360

     occupation numbers 
     1.0000   1.0000   1.0000   1.0000   1.0000   1.0000   1.0000   1.0000
     1.0000   1.0000   1.0000   1.0000   1.0000   1.0000   1.0000   1.0000
     1.0000   1.0000   1.0000   1.0000   1.0000   1.0000   1.0000   1.0000
     1.0000   1.0000   0.0000   0.0000   0.0000   0.0000   0.0000

     the Fermi energy is     3.0896 ev

!    total energy              =    -369.75332494 Ry
     estimated scf accuracy    <       0.00000001 Ry
     smearing contrib. (-TS)   =      -0.00000000 Ry
     internal energy E=F+TS    =    -369.75332494 Ry

     The total energy is F=E-TS. E is the sum of the following terms:
     one-electron contribution =   -2784.02877231 Ry
     hartree contribution      =    1398.14783298 Ry
     xc contribution           =     -66.64541625 Ry
     ewald contribution        =    1082.77303065 Ry

     convergence has been achieved in  12 iterations


     -----------------------------------------------
     Non-local corr. energy    =       0.58185229 Ry
     -----------------------------------------------


     Forces acting on atoms (cartesian axes, Ry/au):

     atom    1 type  2   force =     0.00000000    0.00000000   -0.00007045
     atom    2 type  2   force =     0.00000000    0.00000000    0.00007045
     atom    3 type  1   force =    -0.00000000   -0.00000000    0.00001679
     atom    4 type  1   force =     0.00000000    0.00000000   -0.00001679
     atom    5 type  1   force =     0.00000000    0.00000000    0.00008932
     atom    6 type  1   force =    -0.00000000   -0.00000000   -0.00008932
     The non-local contrib.  to forces
     atom    1 type  2   force =     0.00000000   -0.00000000   -0.00224169
     atom    2 type  2   force =     0.00000000    0.00000000    0.00224169
     atom    3 type  1   force =     0.00000000    0.00000000   -0.24577332
     atom    4 type  1   force =    -0.00000000    0.00000000    0.24577332
     atom    5 type  1   force =     0.00000000   -0.00000000   -0.24655966
     atom    6 type  1   force =     0.00000000    0.00000000    0.24655966
     The ionic contribution  to forces
     atom    1 type  2   force =     0.00000912   -0.00000527  -75.39864117
     atom    2 type  2   force =    -0.00000912    0.00000527   75.39864117
     atom    3 type  1   force =    -0.00000463    0.00000268   -1.80205135
     atom    4 type  1   force =     0.00000463   -0.00000268    1.80205135
     atom    5 type  1   force =     0.00000457   -0.00000264   62.78580188
     atom    6 type  1   force =    -0.00000457    0.00000264  -62.78580188
     The local contribution  to forces
     atom    1 type  2   force =     0.00014598   -0.00001204   75.40079116
     atom    2 type  2   force =    -0.00008342    0.00012040  -75.40079116
     atom    3 type  1   force =    -0.00000376    0.00000542    2.04234492
     atom    4 type  1   force =     0.00000657   -0.00000054   -2.04234492
     atom    5 type  1   force =     0.00000663   -0.00000055  -62.54484964
     atom    6 type  1   force =    -0.00000379    0.00000546   62.54484964
     The core correction contribution to forces
     atom    1 type  2   force =    -0.00000316    0.00000026    0.00009770
     atom    2 type  2   force =     0.00000181   -0.00000261   -0.00009770
     atom    3 type  1   force =     0.00000050   -0.00000073    0.00540050
     atom    4 type  1   force =    -0.00000088    0.00000007   -0.00540050
     atom    5 type  1   force =    -0.00000088    0.00000007    0.00553316
     atom    6 type  1   force =     0.00000050   -0.00000073   -0.00553316
     The Hubbard contrib.    to forces
     atom    1 type  2   force =     0.00000000    0.00000000    0.00000000
     atom    2 type  2   force =     0.00000000    0.00000000    0.00000000
     atom    3 type  1   force =     0.00000000    0.00000000    0.00000000
     atom    4 type  1   force =     0.00000000    0.00000000    0.00000000
     atom    5 type  1   force =     0.00000000    0.00000000    0.00000000
     atom    6 type  1   force =     0.00000000    0.00000000    0.00000000
     The SCF correction term to forces
     atom    1 type  2   force =     0.00000000   -0.00000000   -0.00007645
     atom    2 type  2   force =    -0.00000000    0.00000000    0.00007645
     atom    3 type  1   force =     0.00000000    0.00000000    0.00009605
     atom    4 type  1   force =     0.00000000    0.00000000   -0.00009605
     atom    5 type  1   force =     0.00000000   -0.00000000    0.00016358
     atom    6 type  1   force =    -0.00000000    0.00000000   -0.00016358

     Total force =     0.000163     Total SCF correction =     0.000289
     SCF correction compared to forces is large: reduce conv_thr to get better values


     Computing stress (Cartesian axis) and pressure



     -----------------------------------------------
     Non-local corr. energy    =       0.58185229 Ry
     -----------------------------------------------

          total   stress  (Ry/bohr**3)                   (kbar)     P=       -1.39
  -0.00001023   0.00000000   0.00000000           -1.50        0.00        0.00
   0.00000000  -0.00001023   0.00000000            0.00       -1.50        0.00
   0.00000000   0.00000000  -0.00000780            0.00        0.00       -1.15

     kinetic stress (kbar)   7871.94      0.00      0.00
                                0.00   7871.94      0.00
                                0.00      0.00   7916.43

     local   stress (kbar)-274331.16     -0.00     -0.00
                               -0.00-274331.16      0.00
                               -0.00      0.00 266997.75

     nonloc. stress (kbar)   6229.50     -0.00     -0.00
                               -0.00   6229.50     -0.00
                               -0.00     -0.00   6244.63

     hartree stress (kbar) 134757.94      0.00     -0.00
                                0.00 134757.94      0.00
                               -0.00      0.00-131490.04

     exc-cor stress (kbar)   -141.90      0.00      0.00
                                0.00   -141.90     -0.00
                                0.00     -0.00   -141.80

     corecor stress (kbar)  -1750.99     -0.00      0.00
                               -0.00  -1750.99     -0.00
                                0.00     -0.00  -1753.03

     ewald   stress (kbar) 127345.67      0.01      0.00
                                0.01 127345.68     -0.00
                                0.00     -0.00-147799.47

     hubbard stress (kbar)      0.00      0.00      0.00
                                0.00      0.00      0.00
                                0.00      0.00      0.00

     DFT-D   stress (kbar)      0.00      0.00      0.00
                                0.00      0.00      0.00
                                0.00      0.00      0.00

     XDM     stress (kbar)      0.00      0.00      0.00
                                0.00      0.00      0.00
                                0.00      0.00      0.00

     dft-nl  stress (kbar)     17.49     -0.00      0.00
                               -0.00     17.49     -0.00
                                0.00     -0.00     24.40

     TS-vdW  stress (kbar)      0.00      0.00      0.00
                                0.00      0.00      0.00
                                0.00      0.00      0.00

     MDB     stress (kbar)      0.00      0.00      0.00
                                0.00      0.00      0.00
                                0.00      0.00      0.00

     3D-RISM stress (kbar)      0.00      0.00      0.00
                                0.00      0.00      0.00
                                0.00      0.00      0.00


     Writing all to output data dir ./tmp/MoS2_2L_pbe_vdW_nsoc.save/

     init_run     :      9.91s CPU      9.79s WALL (       1 calls)
     electrons    :     41.00s CPU     32.64s WALL (       1 calls)
     forces       :      1.16s CPU      0.87s WALL (       1 calls)
     stress       :      5.67s CPU      5.70s WALL (       1 calls)

     Called by init_run:
     wfcinit      :      1.01s CPU      0.82s WALL (       1 calls)
     wfcinit:atom :      0.02s CPU      0.02s WALL (      19 calls)
     wfcinit:wfcr :      0.90s CPU      0.70s WALL (      19 calls)
     potinit      :      8.42s CPU      8.47s WALL (       1 calls)
     hinit0       :      0.34s CPU      0.34s WALL (       1 calls)

     Called by electrons:
     c_bands      :     36.86s CPU     28.20s WALL (      12 calls)
     sum_band     :      2.64s CPU      2.72s WALL (      12 calls)
     v_of_rho     :      9.76s CPU      9.97s WALL (      13 calls)
     v_h          :      0.02s CPU      0.02s WALL (      13 calls)
     v_xc         :      9.98s CPU     10.22s WALL (      15 calls)
     mix_rho      :      0.08s CPU      0.12s WALL (      12 calls)
     vdW_kernel   :      8.24s CPU      8.28s WALL (       1 calls)

     Called by c_bands:
     init_us_2    :      0.99s CPU      1.01s WALL (     513 calls)
     init_us_2:cp :      0.99s CPU      1.01s WALL (     513 calls)
     cegterg      :     34.60s CPU     25.88s WALL (     228 calls)

     Called by sum_band:
     sum_band:wei :      0.00s CPU      0.00s WALL (      12 calls)
     sum_band:loo :      2.60s CPU      2.68s WALL (      12 calls)
     sum_band:buf :      0.16s CPU      0.16s WALL (     228 calls)
     sum_band:ini :      0.43s CPU      0.44s WALL (     228 calls)

     Called by *egterg:
     cdiaghg      :      1.35s CPU      1.38s WALL (    1101 calls)
     cegterg:over :      3.69s CPU      2.37s WALL (     873 calls)
     cegterg:upda :      2.52s CPU      1.43s WALL (     873 calls)
     cegterg:last :      3.84s CPU      2.11s WALL (     481 calls)
     h_psi        :     22.56s CPU     17.71s WALL (    1120 calls)
     g_psi        :      0.14s CPU      0.17s WALL (     873 calls)

     Called by h_psi:
     h_psi:calbec :      6.25s CPU      3.61s WALL (    1120 calls)
     vloc_psi     :     10.30s CPU     10.73s WALL (    1120 calls)
     add_vuspsi   :      5.78s CPU      3.11s WALL (    1120 calls)

     General routines
     calbec       :      7.22s CPU      4.16s WALL (    1215 calls)
     fft          :      0.80s CPU      0.82s WALL (     948 calls)
     ffts         :      0.01s CPU      0.01s WALL (      12 calls)
     fftw         :      9.97s CPU     10.30s WALL (   45502 calls)

     Parallel routines

     PWSCF        :     57.93s CPU     49.29s WALL


   This run was terminated on:  12:56:52  18Apr2024            

=------------------------------------------------------------------------------=
   JOB DONE.
=------------------------------------------------------------------------------=
