
     Program PWSCF v.7.2 starts on 18Apr2024 at 12:56:52 

     This program is part of the open-source Quantum ESPRESSO suite
     for quantum simulation of materials; please cite
         "P. Giannozzi et al., J. Phys.:Condens. Matter 21 395502 (2009);
         "P. Giannozzi et al., J. Phys.:Condens. Matter 29 465901 (2017);
         "P. Giannozzi et al., J. Chem. Phys. 152 154105 (2020);
          URL http://www.quantum-espresso.org", 
     in publications or presentations arising from this work. More details at
     http://www.quantum-espresso.org/quote

     Parallel version (MPI & OpenMP), running on       8 processor cores
     Number of MPI processes:                 8
     Threads/MPI process:                     1

     MPI processes distributed on     1 nodes
     0 MiB available memory on the printing compute node when the environment starts

     Waiting for input...
     Reading input from standard input
Warning: card &IONS ignored
Warning: card     ION_DYNAMICS='BFGS', ignored
Warning: card     UPSCALE=10 ignored
Warning: card / ignored
Warning: card &CELL ignored
Warning: card     CELL_DYNAMICS = 'BFGS' ignored
Warning: card     CELL_DOFREE = 'ALL' ignored
Warning: card / ignored

     Current dimensions of program PWSCF are:
     Max number of different atomic species (ntypx) = 10
     Max number of k-points (npk) =  40000
     Max angular momentum in pseudopotentials (lmaxx) =  4

     Atomic positions and unit cell read from directory:
     ./tmp/MoS2_2L_pbe_vdW_nsoc.save/
     Atomic positions from file used, from input discarded


     IMPORTANT: XC functional enforced from input :
     Exchange-correlation= VDW-DF2-B86R
                           (   1   4  26   0   2   0   0)
     Any further DFT definition will be discarded
     Please, verify this is what you really want


     R & G space division:  proc/nbgrp/npool/nimage =       8
     Subspace diagonalization in iterative solution of the eigenvalue problem:
     a serial algorithm will be used


     Parallelization info
     --------------------
     sticks:   dense  smooth     PW     G-vecs:    dense   smooth      PW
     Min          85      85     24                14701    14701    2318
     Max          86      86     25                14726    14726    2353
     Sum         685     685    199               117747   117747   18769

     Using Slab Decomposition



     bravais-lattice index     =            4
     lattice parameter (alat)  =       5.9915  a.u.
     unit-cell volume          =    1490.1169 (a.u.)^3
     number of atoms/cell      =            6
     number of atomic types    =            2
     number of electrons       =        52.00
     number of Kohn-Sham states=           40
     kinetic-energy cutoff     =      70.0000  Ry
     charge density cutoff     =     280.0000  Ry
     Exchange-correlation= VDW-DF2-B86R
                           (   1   4  26   0   2   0   0)

     celldm(1)=   5.991468  celldm(2)=   0.000000  celldm(3)=   8.000000
     celldm(4)=   0.000000  celldm(5)=   0.000000  celldm(6)=   0.000000

     crystal axes: (cart. coord. in units of alat)
               a(1) = (   1.000000   0.000000   0.000000 )  
               a(2) = (  -0.500000   0.866025   0.000000 )  
               a(3) = (   0.000000   0.000000   8.000000 )  

     reciprocal axes: (cart. coord. in units 2 pi/alat)
               b(1) = (  1.000000  0.577350 -0.000000 )  
               b(2) = (  0.000000  1.154701  0.000000 )  
               b(3) = (  0.000000 -0.000000  0.125000 )  


     PseudoPot. # 1 for S  read from file:
     ../../../Pseudo/PBE/S.upf
     MD5 check sum: b72b6a9ca752e39de1a6cc592280dae2
     Pseudo is Norm-conserving + core correction, Zval =  6.0
     Generated using ONCVPSP code by D. R. Hamann
     Using radial grid of 1148 points,  6 beta functions with: 
                l(1) =   0
                l(2) =   0
                l(3) =   1
                l(4) =   1
                l(5) =   2
                l(6) =   2

     PseudoPot. # 2 for Mo read from file:
     ../../../Pseudo/PBE/Mo.upf
     MD5 check sum: 7ca7a9feba7bf08d88d14bc7fbf60c1e
     Pseudo is Norm-conserving + core correction, Zval = 14.0
     Generated using ONCVPSP code by D. R. Hamann
     Using radial grid of 1640 points,  6 beta functions with: 
                l(1) =   0
                l(2) =   0
                l(3) =   1
                l(4) =   1
                l(5) =   2
                l(6) =   2

     atomic species   valence    mass     pseudopotential
        S              6.00    32.06500     S ( 1.00)
        Mo            14.00   183.84000     Mo( 1.00)

     12 Sym. Ops., with inversion, found


                                    s                        frac. trans.

      isym =  1     identity                                     

 cryst.   s( 1) = (     1          0          0      )
                  (     0          1          0      )
                  (     0          0          1      )

 cart.    s( 1) = (  1.0000000  0.0000000  0.0000000 )
                  (  0.0000000  1.0000000  0.0000000 )
                  (  0.0000000  0.0000000  1.0000000 )


      isym =  2     180 deg rotation - cart. axis [1,0,0]        

 cryst.   s( 2) = (     1          0          0      )
                  (    -1         -1          0      )
                  (     0          0         -1      )

 cart.    s( 2) = (  1.0000000  0.0000000  0.0000000 )
                  (  0.0000000 -1.0000000  0.0000000 )
                  (  0.0000000  0.0000000 -1.0000000 )


      isym =  3     120 deg rotation - cryst. axis [0,0,1]       

 cryst.   s( 3) = (     0          1          0      )
                  (    -1         -1          0      )
                  (     0          0          1      )

 cart.    s( 3) = ( -0.5000000 -0.8660254  0.0000000 )
                  (  0.8660254 -0.5000000  0.0000000 )
                  (  0.0000000  0.0000000  1.0000000 )


      isym =  4     120 deg rotation - cryst. axis [0,0,-1]      

 cryst.   s( 4) = (    -1         -1          0      )
                  (     1          0          0      )
                  (     0          0          1      )

 cart.    s( 4) = ( -0.5000000  0.8660254  0.0000000 )
                  ( -0.8660254 -0.5000000  0.0000000 )
                  (  0.0000000  0.0000000  1.0000000 )


      isym =  5     180 deg rotation - cryst. axis [0,1,0]       

 cryst.   s( 5) = (    -1         -1          0      )
                  (     0          1          0      )
                  (     0          0         -1      )

 cart.    s( 5) = ( -0.5000000 -0.8660254  0.0000000 )
                  ( -0.8660254  0.5000000  0.0000000 )
                  (  0.0000000  0.0000000 -1.0000000 )


      isym =  6     180 deg rotation - cryst. axis [1,1,0]       

 cryst.   s( 6) = (     0          1          0      )
                  (     1          0          0      )
                  (     0          0         -1      )

 cart.    s( 6) = ( -0.5000000  0.8660254  0.0000000 )
                  (  0.8660254  0.5000000  0.0000000 )
                  (  0.0000000  0.0000000 -1.0000000 )


      isym =  7     inversion                                    

 cryst.   s( 7) = (    -1          0          0      )
                  (     0         -1          0      )
                  (     0          0         -1      )

 cart.    s( 7) = ( -1.0000000  0.0000000  0.0000000 )
                  (  0.0000000 -1.0000000  0.0000000 )
                  (  0.0000000  0.0000000 -1.0000000 )


      isym =  8     inv. 180 deg rotation - cart. axis [1,0,0]   

 cryst.   s( 8) = (    -1          0          0      )
                  (     1          1          0      )
                  (     0          0          1      )

 cart.    s( 8) = ( -1.0000000  0.0000000  0.0000000 )
                  (  0.0000000  1.0000000  0.0000000 )
                  (  0.0000000  0.0000000  1.0000000 )


      isym =  9     inv. 120 deg rotation - cryst. axis [0,0,1]  

 cryst.   s( 9) = (     0         -1          0      )
                  (     1          1          0      )
                  (     0          0         -1      )

 cart.    s( 9) = (  0.5000000  0.8660254  0.0000000 )
                  ( -0.8660254  0.5000000  0.0000000 )
                  (  0.0000000  0.0000000 -1.0000000 )


      isym = 10     inv. 120 deg rotation - cryst. axis [0,0,-1] 

 cryst.   s(10) = (     1          1          0      )
                  (    -1          0          0      )
                  (     0          0         -1      )

 cart.    s(10) = (  0.5000000 -0.8660254  0.0000000 )
                  (  0.8660254  0.5000000  0.0000000 )
                  (  0.0000000  0.0000000 -1.0000000 )


      isym = 11     inv. 180 deg rotation - cryst. axis [0,1,0]  

 cryst.   s(11) = (     1          1          0      )
                  (     0         -1          0      )
                  (     0          0          1      )

 cart.    s(11) = (  0.5000000  0.8660254  0.0000000 )
                  (  0.8660254 -0.5000000  0.0000000 )
                  (  0.0000000  0.0000000  1.0000000 )


      isym = 12     inv. 180 deg rotation - cryst. axis [1,1,0]  

 cryst.   s(12) = (     0         -1          0      )
                  (    -1          0          0      )
                  (     0          0          1      )

 cart.    s(12) = (  0.5000000 -0.8660254  0.0000000 )
                  ( -0.8660254 -0.5000000  0.0000000 )
                  (  0.0000000  0.0000000  1.0000000 )


     point group D_3d (-3m) 
     there are  6 classes
     the character table:

       E     2C3   3C2'  i     2S6   3s_d 
A_1g   1.00  1.00  1.00  1.00  1.00  1.00
A_2g   1.00  1.00 -1.00  1.00  1.00 -1.00
E_g    2.00 -1.00  0.00  2.00 -1.00  0.00
A_1u   1.00  1.00  1.00 -1.00 -1.00 -1.00
A_2u   1.00  1.00 -1.00 -1.00 -1.00  1.00
E_u    2.00 -1.00  0.00 -2.00  1.00  0.00

     the symmetry operations in each class and the name of the first element:

     E        1
          identity                                               
     2C3      3    4
          120 deg rotation - cryst. axis [0,0,1]                 
     3C2'     2    5    6
          180 deg rotation - cart. axis [1,0,0]                  
     i        7
          inversion                                              
     2S6      9   10
          inv. 120 deg rotation - cryst. axis [0,0,1]            
     3s_d     8   11   12
          inv. 180 deg rotation - cart. axis [1,0,0]             

   Cartesian axes

     site n.     atom                  positions (alat units)
         1           Mo  tau(   1) = (  -0.0000003   0.5773503  -0.9752993  )
         2           Mo  tau(   2) = (   0.5000002   0.2886748   0.9752993  )
         3           S   tau(   3) = (   0.5000002   0.2886748  -0.4799475  )
         4           S   tau(   4) = (  -0.0000003   0.5773503   0.4799475  )
         5           S   tau(   5) = (  -0.0000003   0.5773503   1.4700984  )
         6           S   tau(   6) = (   0.5000002   0.2886748  -1.4700984  )

   Crystallographic axes

     site n.     atom                  positions (cryst. coord.)
         1           Mo  tau(   1) = (  0.3333330  0.6666667 -0.1219124  )
         2           Mo  tau(   2) = (  0.6666667  0.3333330  0.1219124  )
         3           S   tau(   3) = (  0.6666667  0.3333330 -0.0599934  )
         4           S   tau(   4) = (  0.3333330  0.6666667  0.0599934  )
         5           S   tau(   5) = (  0.3333330  0.6666667  0.1837623  )
         6           S   tau(   6) = (  0.6666667  0.3333330 -0.1837623  )

     number of k points=    51  Marzari-Vanderbilt smearing, width (Ry)=  0.0050
                       cart. coord. in units 2pi/alat
        k(    1) = (   0.0000000   0.0000000   0.0000000), wk =   0.0392157
        k(    2) = (  -0.0158729   0.0274930   0.0000000), wk =   0.0392157
        k(    3) = (  -0.0317457   0.0549860   0.0000000), wk =   0.0392157
        k(    4) = (  -0.0476186   0.0824789   0.0000000), wk =   0.0392157
        k(    5) = (  -0.0634914   0.1099719   0.0000000), wk =   0.0392157
        k(    6) = (  -0.0793643   0.1374649   0.0000000), wk =   0.0392157
        k(    7) = (  -0.0952371   0.1649579   0.0000000), wk =   0.0392157
        k(    8) = (  -0.1111100   0.1924509   0.0000000), wk =   0.0392157
        k(    9) = (  -0.1269829   0.2199438   0.0000000), wk =   0.0392157
        k(   10) = (  -0.1428557   0.2474368   0.0000000), wk =   0.0392157
        k(   11) = (  -0.1587286   0.2749298   0.0000000), wk =   0.0392157
        k(   12) = (  -0.1746014   0.3024228   0.0000000), wk =   0.0392157
        k(   13) = (  -0.1904743   0.3299158   0.0000000), wk =   0.0392157
        k(   14) = (  -0.2063471   0.3574087   0.0000000), wk =   0.0392157
        k(   15) = (  -0.2222200   0.3849017   0.0000000), wk =   0.0392157
        k(   16) = (  -0.2380929   0.4123947   0.0000000), wk =   0.0392157
        k(   17) = (  -0.2539657   0.4398877   0.0000000), wk =   0.0392157
        k(   18) = (  -0.2698386   0.4673807   0.0000000), wk =   0.0392157
        k(   19) = (  -0.2857114   0.4948736   0.0000000), wk =   0.0392157
        k(   20) = (  -0.3015843   0.5223666   0.0000000), wk =   0.0392157
        k(   21) = (  -0.3174571   0.5498596   0.0000000), wk =   0.0392157
        k(   22) = (  -0.3333300   0.5773526   0.0000000), wk =   0.0392157
        k(   23) = (  -0.3030273   0.5773524   0.0000000), wk =   0.0392157
        k(   24) = (  -0.2727245   0.5773522   0.0000000), wk =   0.0392157
        k(   25) = (  -0.2424218   0.5773519   0.0000000), wk =   0.0392157
        k(   26) = (  -0.2121191   0.5773517   0.0000000), wk =   0.0392157
        k(   27) = (  -0.1818164   0.5773515   0.0000000), wk =   0.0392157
        k(   28) = (  -0.1515136   0.5773513   0.0000000), wk =   0.0392157
        k(   29) = (  -0.1212109   0.5773511   0.0000000), wk =   0.0392157
        k(   30) = (  -0.0909082   0.5773509   0.0000000), wk =   0.0392157
        k(   31) = (  -0.0606055   0.5773507   0.0000000), wk =   0.0392157
        k(   32) = (  -0.0303027   0.5773505   0.0000000), wk =   0.0392157
        k(   33) = (   0.0000000   0.5773503   0.0000000), wk =   0.0392157
        k(   34) = (   0.0000000   0.5452753   0.0000000), wk =   0.0392157
        k(   35) = (   0.0000000   0.5132002   0.0000000), wk =   0.0392157
        k(   36) = (   0.0000000   0.4811252   0.0000000), wk =   0.0392157
        k(   37) = (   0.0000000   0.4490502   0.0000000), wk =   0.0392157
        k(   38) = (   0.0000000   0.4169752   0.0000000), wk =   0.0392157
        k(   39) = (   0.0000000   0.3849002   0.0000000), wk =   0.0392157
        k(   40) = (   0.0000000   0.3528252   0.0000000), wk =   0.0392157
        k(   41) = (   0.0000000   0.3207501   0.0000000), wk =   0.0392157
        k(   42) = (   0.0000000   0.2886751   0.0000000), wk =   0.0392157
        k(   43) = (   0.0000000   0.2566001   0.0000000), wk =   0.0392157
        k(   44) = (   0.0000000   0.2245251   0.0000000), wk =   0.0392157
        k(   45) = (   0.0000000   0.1924501   0.0000000), wk =   0.0392157
        k(   46) = (   0.0000000   0.1603751   0.0000000), wk =   0.0392157
        k(   47) = (   0.0000000   0.1283001   0.0000000), wk =   0.0392157
        k(   48) = (   0.0000000   0.0962250   0.0000000), wk =   0.0392157
        k(   49) = (   0.0000000   0.0641500   0.0000000), wk =   0.0392157
        k(   50) = (   0.0000000   0.0320750   0.0000000), wk =   0.0392157
        k(   51) = (   0.0000000   0.0000000   0.0000000), wk =   0.0392157

                       cryst. coord.
        k(    1) = (   0.0000000   0.0000000   0.0000000), wk =   0.0392157
        k(    2) = (  -0.0158729   0.0317460   0.0000000), wk =   0.0392157
        k(    3) = (  -0.0317457   0.0634921   0.0000000), wk =   0.0392157
        k(    4) = (  -0.0476186   0.0952381   0.0000000), wk =   0.0392157
        k(    5) = (  -0.0634914   0.1269842   0.0000000), wk =   0.0392157
        k(    6) = (  -0.0793643   0.1587302   0.0000000), wk =   0.0392157
        k(    7) = (  -0.0952371   0.1904763   0.0000000), wk =   0.0392157
        k(    8) = (  -0.1111100   0.2222223   0.0000000), wk =   0.0392157
        k(    9) = (  -0.1269829   0.2539684   0.0000000), wk =   0.0392157
        k(   10) = (  -0.1428557   0.2857144   0.0000000), wk =   0.0392157
        k(   11) = (  -0.1587286   0.3174605   0.0000000), wk =   0.0392157
        k(   12) = (  -0.1746014   0.3492065   0.0000000), wk =   0.0392157
        k(   13) = (  -0.1904743   0.3809526   0.0000000), wk =   0.0392157
        k(   14) = (  -0.2063471   0.4126986   0.0000000), wk =   0.0392157
        k(   15) = (  -0.2222200   0.4444447   0.0000000), wk =   0.0392157
        k(   16) = (  -0.2380929   0.4761907   0.0000000), wk =   0.0392157
        k(   17) = (  -0.2539657   0.5079368   0.0000000), wk =   0.0392157
        k(   18) = (  -0.2698386   0.5396828   0.0000000), wk =   0.0392157
        k(   19) = (  -0.2857114   0.5714289   0.0000000), wk =   0.0392157
        k(   20) = (  -0.3015843   0.6031749   0.0000000), wk =   0.0392157
        k(   21) = (  -0.3174571   0.6349210   0.0000000), wk =   0.0392157
        k(   22) = (  -0.3333300   0.6666670   0.0000000), wk =   0.0392157
        k(   23) = (  -0.3030273   0.6515155   0.0000000), wk =   0.0392157
        k(   24) = (  -0.2727245   0.6363639   0.0000000), wk =   0.0392157
        k(   25) = (  -0.2424218   0.6212124   0.0000000), wk =   0.0392157
        k(   26) = (  -0.2121191   0.6060608   0.0000000), wk =   0.0392157
        k(   27) = (  -0.1818164   0.5909093   0.0000000), wk =   0.0392157
        k(   28) = (  -0.1515136   0.5757577   0.0000000), wk =   0.0392157
        k(   29) = (  -0.1212109   0.5606062   0.0000000), wk =   0.0392157
        k(   30) = (  -0.0909082   0.5454546   0.0000000), wk =   0.0392157
        k(   31) = (  -0.0606055   0.5303031   0.0000000), wk =   0.0392157
        k(   32) = (  -0.0303027   0.5151515   0.0000000), wk =   0.0392157
        k(   33) = (   0.0000000   0.5000000   0.0000000), wk =   0.0392157
        k(   34) = (   0.0000000   0.4722222   0.0000000), wk =   0.0392157
        k(   35) = (   0.0000000   0.4444444   0.0000000), wk =   0.0392157
        k(   36) = (   0.0000000   0.4166667   0.0000000), wk =   0.0392157
        k(   37) = (   0.0000000   0.3888889   0.0000000), wk =   0.0392157
        k(   38) = (   0.0000000   0.3611111   0.0000000), wk =   0.0392157
        k(   39) = (   0.0000000   0.3333333   0.0000000), wk =   0.0392157
        k(   40) = (   0.0000000   0.3055556   0.0000000), wk =   0.0392157
        k(   41) = (   0.0000000   0.2777778   0.0000000), wk =   0.0392157
        k(   42) = (   0.0000000   0.2500000   0.0000000), wk =   0.0392157
        k(   43) = (   0.0000000   0.2222222   0.0000000), wk =   0.0392157
        k(   44) = (   0.0000000   0.1944444   0.0000000), wk =   0.0392157
        k(   45) = (   0.0000000   0.1666667   0.0000000), wk =   0.0392157
        k(   46) = (   0.0000000   0.1388889   0.0000000), wk =   0.0392157
        k(   47) = (   0.0000000   0.1111111   0.0000000), wk =   0.0392157
        k(   48) = (   0.0000000   0.0833333   0.0000000), wk =   0.0392157
        k(   49) = (   0.0000000   0.0555556   0.0000000), wk =   0.0392157
        k(   50) = (   0.0000000   0.0277778   0.0000000), wk =   0.0392157
        k(   51) = (   0.0000000   0.0000000   0.0000000), wk =   0.0392157

     Dense  grid:   117747 G-vectors     FFT dimensions: (  32,  32, 256)

     Dynamical RAM for                 wfc:       1.12 MB

     Dynamical RAM for     wfc (w. buffer):       1.12 MB

     Dynamical RAM for           str. fact:       0.45 MB

     Dynamical RAM for           local pot:       0.00 MB

     Dynamical RAM for          nlocal pot:       3.04 MB

     Dynamical RAM for                qrad:       2.69 MB

     Dynamical RAM for          rho,v,vnew:       1.42 MB

     Dynamical RAM for           G-vectors:       0.95 MB

     Dynamical RAM for          h,s,v(r/c):       0.29 MB

     Dynamical RAM for          <psi|beta>:       0.07 MB

     Dynamical RAM for                 psi:       2.25 MB

     Dynamical RAM for                hpsi:       2.25 MB

     Dynamical RAM for      wfcinit/wfcrot:       2.29 MB

     Estimated static dynamical RAM per process >      11.60 MB

     Estimated max dynamical RAM per process >      16.45 MB

     Estimated total dynamical RAM >     131.64 MB

     The potential is recalculated from file :
     ./tmp/MoS2_2L_pbe_vdW_nsoc.save/charge-density



     %%%%%%%%%%%%%%%%%%%%%%%%%%%%%%%%%%%%%%%%%%%%%%%%%%%%%%%%%%%%%%%%%%%%%%%%
     %                                                                      %
     % You are using vdW-DF, which was implemented by the Thonhauser group. %
     % Please cite the following two papers that made this development      %
     % possible and the two reviews that describe the various versions:     %
     %                                                                      %
     %   T. Thonhauser et al., PRL 115, 136402 (2015).                      %
     %   T. Thonhauser et al., PRB 76, 125112 (2007).                       %
     %   K. Berland et al., Rep. Prog. Phys. 78, 066501 (2015).             %
     %   D.C. Langreth et al., J. Phys.: Condens. Matter 21, 084203 (2009). %
     %                                                                      %
     % If you are calculating stress with vdW-DF, please also cite:         %
     %                                                                      %
     %   R. Sabatini et al., J. Phys.: Condens. Matter 24, 424209 (2012).   %
     %                                                                      %
     %%%%%%%%%%%%%%%%%%%%%%%%%%%%%%%%%%%%%%%%%%%%%%%%%%%%%%%%%%%%%%%%%%%%%%%%

     %%%%%%%%%%%%%%%%%%%%%%%%%%%%%%%%%%%%%%%%%%%%%%%%%%%%%%%%%%%%%%%%%%%%%%%%
     %                                                                      %
     %  vdW-DF NEWS:                                                        %
     %                                                                      %
     %  * vdW-DF3 is now available. DOI: 10.1021/acs.jctc.0c00471           %
     %    use with input_dft = 'vdW-DF3-opt1' or 'vdW-DF3-opt2'             %
     %                                                                      %
     %  * Unscreened and range-separated hybrid vdW-DF-cx functionals       %
     %    DOI: 10.1063/1.4986522 and 10.1088/1361-648X/ac2ad2               %
     %    use with input_dft = 'vdW-DF-cx0'    and 'vdW-DF-ahcx'            %
     %  * Unscreened and range-separated hybrid vdW-DF2-b86r functionals    %
     %    DOI: 10.1063/1.4986522 and DOI: 10.1103/PhysRevX.12.041003        %
     %    use with input_dft = 'vdW-DF2-br0' and 'vdW-DF2-ahbr'             %
     %                                                                      %
     %%%%%%%%%%%%%%%%%%%%%%%%%%%%%%%%%%%%%%%%%%%%%%%%%%%%%%%%%%%%%%%%%%%%%%%%


     Carrying out vdW-DF run using the following parameters:
     Nqs    =  20  Npoints =  1024  r_max =  100.000
     q_mesh =  0.00001000  0.04494208  0.09755937  0.15916263
               0.23128650  0.31572767  0.41458969  0.53033537
               0.66584808  0.82450364  1.01025438  1.22772762
               1.48234092  1.78043706  2.12944203  2.53805004
               3.01644009  3.57652955  4.23227104  5.00000000


     -----------------------------------------------
     Non-local corr. energy    =       0.58185229 Ry
     -----------------------------------------------

     Starting wfcs are   36 randomized atomic wfcs +    4 random wfcs

     Band Structure Calculation
     Davidson diagonalization with overlap

     Computing kpt #:     1  of    51
     total cpu time spent up to now is       12.0 secs

     Computing kpt #:     2  of    51
     total cpu time spent up to now is       13.6 secs

     Computing kpt #:     3  of    51
     total cpu time spent up to now is       15.1 secs

     Computing kpt #:     4  of    51
     total cpu time spent up to now is       16.9 secs

     Computing kpt #:     5  of    51
     total cpu time spent up to now is       18.6 secs

     Computing kpt #:     6  of    51
     total cpu time spent up to now is       20.3 secs

     Computing kpt #:     7  of    51
     total cpu time spent up to now is       22.0 secs

     Computing kpt #:     8  of    51
     total cpu time spent up to now is       23.8 secs

     Computing kpt #:     9  of    51
     total cpu time spent up to now is       25.6 secs

     Computing kpt #:    10  of    51
     total cpu time spent up to now is       27.4 secs

     Computing kpt #:    11  of    51
     total cpu time spent up to now is       29.2 secs

     Computing kpt #:    12  of    51
     total cpu time spent up to now is       31.3 secs

     Computing kpt #:    13  of    51
     total cpu time spent up to now is       33.4 secs

     Computing kpt #:    14  of    51
     total cpu time spent up to now is       35.3 secs

     Computing kpt #:    15  of    51
     total cpu time spent up to now is       37.3 secs

     Computing kpt #:    16  of    51
     total cpu time spent up to now is       39.5 secs

     Computing kpt #:    17  of    51
     total cpu time spent up to now is       41.4 secs

     Computing kpt #:    18  of    51
     total cpu time spent up to now is       43.1 secs

     Computing kpt #:    19  of    51
     total cpu time spent up to now is       44.8 secs

     Computing kpt #:    20  of    51
     total cpu time spent up to now is       46.6 secs

     Computing kpt #:    21  of    51
     total cpu time spent up to now is       48.2 secs

     Computing kpt #:    22  of    51
     total cpu time spent up to now is       49.8 secs

     Computing kpt #:    23  of    51
     total cpu time spent up to now is       51.4 secs

     Computing kpt #:    24  of    51
     total cpu time spent up to now is       53.2 secs

     Computing kpt #:    25  of    51
     total cpu time spent up to now is       54.9 secs

     Computing kpt #:    26  of    51
     total cpu time spent up to now is       56.6 secs

     Computing kpt #:    27  of    51
     total cpu time spent up to now is       58.7 secs

     Computing kpt #:    28  of    51
     total cpu time spent up to now is       60.6 secs

     Computing kpt #:    29  of    51
     total cpu time spent up to now is       62.3 secs

     Computing kpt #:    30  of    51
     total cpu time spent up to now is       64.1 secs

     Computing kpt #:    31  of    51
     total cpu time spent up to now is       65.9 secs

     Computing kpt #:    32  of    51
     total cpu time spent up to now is       67.9 secs

     Computing kpt #:    33  of    51
     total cpu time spent up to now is       69.7 secs

     Computing kpt #:    34  of    51
     total cpu time spent up to now is       71.5 secs

     Computing kpt #:    35  of    51
     total cpu time spent up to now is       73.2 secs

     Computing kpt #:    36  of    51
     total cpu time spent up to now is       74.9 secs

     Computing kpt #:    37  of    51
     total cpu time spent up to now is       76.6 secs

     Computing kpt #:    38  of    51
     total cpu time spent up to now is       78.3 secs

     Computing kpt #:    39  of    51
     total cpu time spent up to now is       80.3 secs

     Computing kpt #:    40  of    51
     total cpu time spent up to now is       82.2 secs

     Computing kpt #:    41  of    51
     total cpu time spent up to now is       84.1 secs

     Computing kpt #:    42  of    51
     total cpu time spent up to now is       86.1 secs

     Computing kpt #:    43  of    51
     total cpu time spent up to now is       87.9 secs

     Computing kpt #:    44  of    51
     total cpu time spent up to now is       89.6 secs

     Computing kpt #:    45  of    51
     total cpu time spent up to now is       91.4 secs

     Computing kpt #:    46  of    51
     total cpu time spent up to now is       93.1 secs

     Computing kpt #:    47  of    51
     total cpu time spent up to now is       94.8 secs

     Computing kpt #:    48  of    51
     total cpu time spent up to now is       96.4 secs

     Computing kpt #:    49  of    51
     total cpu time spent up to now is       97.9 secs

     Computing kpt #:    50  of    51
     total cpu time spent up to now is       99.4 secs

     Computing kpt #:    51  of    51
     total cpu time spent up to now is      101.1 secs

     ethr =  1.92E-10,  avg # of iterations = 51.4

     total cpu time spent up to now is      101.1 secs

     End of band structure calculation

          k = 0.0000 0.0000 0.0000 ( 14593 PWs)   bands (ev):

   -58.9882 -58.9882 -33.1510 -33.1508 -32.9245 -32.9245 -32.9244 -32.9244
   -12.3444 -12.2049 -11.0914 -10.8750  -4.0815  -3.5548  -0.7488  -0.7488
    -0.7424  -0.7424  -0.5356   0.3548   0.3548   0.3777   0.3777   0.5228
     1.5770   2.2539   4.6065   4.6065   4.6259   4.6259   4.8042   4.8042
     4.8836   4.8837   7.1110   7.1575   8.0976   8.2099   8.4736   9.4910

          k =-0.0159 0.0275 0.0000 ( 14574 PWs)   bands (ev):

   -58.9879 -58.9879 -33.1504 -33.1503 -32.9274 -32.9274 -32.9252 -32.9251
   -12.3329 -12.1935 -11.0862 -10.8706  -4.0683  -3.5416  -0.7756  -0.7690
    -0.7368  -0.7303  -0.5719   0.2251   0.3353   0.3586   0.4001   0.6335
     1.5762   2.2403   4.5915   4.6044   4.6265   4.6471   4.7769   4.7912
     4.8440   4.8710   7.1314   7.1768   8.1468   8.2633   8.4943   9.5062

          k =-0.0317 0.0550 0.0000 ( 14596 PWs)   bands (ev):

   -58.9870 -58.9870 -33.1487 -33.1486 -32.9362 -32.9362 -32.9272 -32.9271
   -12.2988 -12.1596 -11.0708 -10.8573  -4.0290  -3.5025  -0.8534  -0.8464
    -0.7014  -0.6944  -0.6688   0.0259   0.2762   0.3005   0.4565   0.7763
     1.5727   2.1980   4.5490   4.5514   4.6720   4.7005   4.7131   4.7314
     4.7657   4.8329   7.1889   7.2321   8.2820   8.4193   8.5637   9.5515

          k =-0.0476 0.0825 0.0000 ( 14584 PWs)   bands (ev):

   -58.9856 -58.9856 -33.1458 -33.1458 -32.9504 -32.9504 -32.9306 -32.9305
   -12.2425 -12.1037 -11.0454 -10.8355  -3.9653  -3.4394  -0.9753  -0.9680
    -0.8034  -0.6432  -0.6358  -0.1838   0.1761   0.2026   0.5273   0.8951
     1.5626   2.1232   4.4715   4.4915   4.5603   4.6147   4.6783   4.7627
     4.8010   4.8172   7.2765   7.3178   8.4555   8.6654   8.7152   9.6270

          k =-0.0635 0.1100 0.0000 ( 14638 PWs)   bands (ev):

   -58.9837 -58.9837 -33.1420 -33.1420 -32.9695 -32.9695 -32.9353 -32.9353
   -12.1649 -12.0269 -11.0104 -10.8055  -3.8800  -3.3555  -1.1311  -1.1238
    -0.9558  -0.5650  -0.5566  -0.3936   0.0338   0.0642   0.5984   0.9833
     1.5403   2.0131   4.3629   4.4018   4.4078   4.5462   4.5992   4.6819
     4.9222   4.9504   7.3897   7.4295   8.6112   8.9832   8.9844   9.7339

          k =-0.0794 0.1375 0.0000 ( 14652 PWs)   bands (ev):

   -58.9813 -58.9813 -33.1373 -33.1373 -32.9928 -32.9927 -32.9414 -32.9414
   -12.0674 -11.9303 -10.9664 -10.7679  -3.7771  -3.2557  -1.3084  -1.3019
    -1.1132  -0.5980  -0.4702  -0.4601  -0.1491  -0.1127   0.6618   1.0399
     1.4995   1.8686   4.1758   4.3091   4.3291   4.5035   4.5144   4.5872
     5.0711   5.1161   7.5265   7.5652   8.7629   9.3355   9.3477   9.8767

          k =-0.0952 0.1650 0.0000 ( 14684 PWs)   bands (ev):

   -58.9785 -58.9785 -33.1319 -33.1318 -33.0193 -33.0192 -32.9489 -32.9489
   -11.9515 -11.8159 -10.9140 -10.7233  -3.6625  -3.1477  -1.4933  -1.4896
    -1.2667  -0.7932  -0.3816  -0.3575  -0.3513  -0.3171   0.7133   1.0655
     1.4351   1.6960   3.9961   4.2146   4.2842   4.4041   4.4704   4.5351
     5.2352   5.3027   7.6862   7.7237   8.9314   9.7182   9.7227  10.0751

          k =-0.1111 0.1925 0.0000 ( 14718 PWs)   bands (ev):

   -58.9754 -58.9754 -33.1258 -33.1258 -33.0479 -33.0479 -32.9578 -32.9578
   -11.8193 -11.6856 -10.8543 -10.6726  -3.5443  -3.0429  -1.6735  -1.6699
    -1.4109  -0.9804  -0.6186  -0.5548  -0.2543  -0.2402   0.7505   1.0618
     1.3465   1.5071   3.8380   4.1275   4.2676   4.3147   4.3931   4.5589
     5.4046   5.5005   7.8682   7.9043   9.1230  10.0247  10.1070  10.3730

          k =-0.1270 0.2199 0.0000 ( 14746 PWs)   bands (ev):

   -58.9722 -58.9722 -33.1193 -33.1193 -33.0778 -33.0778 -32.9680 -32.9680
   -11.6730 -11.5419 -10.7883 -10.6168  -3.4338  -2.9583  -1.8397  -1.8184
    -1.5430  -1.1686  -0.8834  -0.7853  -0.1577  -0.1423   0.7711   1.0310
     1.2410   1.3189   3.7060   4.0428   4.2487   4.2804   4.3471   4.6068
     5.5695   5.6993   8.0714   8.1059   9.3398  10.2613  10.4301  10.7230

          k =-0.1429 0.2474 0.0000 ( 14724 PWs)   bands (ev):

   -58.9687 -58.9687 -33.1125 -33.1125 -33.1076 -33.1076 -32.9796 -32.9796
   -11.5155 -11.3878 -10.7171 -10.5569  -3.3453  -2.9161  -1.9738  -1.9169
    -1.6661  -1.3769  -1.1473  -0.9837  -0.0930  -0.0787   0.7732   0.9744
     1.1359   1.1560   3.6025   3.9669   4.2185   4.3173   4.3400   4.6696
     5.7209   5.8894   8.2944   8.3269   9.5818  10.4657  10.6006  10.8790

          k =-0.1587 0.2749 0.0000 ( 14730 PWs)   bands (ev):

   -58.9653 -58.9653 -33.1365 -33.1364 -33.1057 -33.1056 -32.9925 -32.9925
   -11.3498 -11.2266 -10.6421 -10.4944  -3.2932  -2.9313  -2.0662  -1.9557
    -1.7951  -1.6148  -1.3783  -1.1251  -0.0858  -0.0767   0.7545   0.8895
     1.0492   1.0562   3.5335   3.9174   4.2248   4.3605   4.3748   4.7420
     5.8515   6.0623   8.5346   8.5651   9.8486  10.5499  10.5949  10.8543

          k =-0.1746 0.3024 0.0000 ( 14752 PWs)   bands (ev):

   -58.9619 -58.9619 -33.1633 -33.1633 -33.0990 -33.0989 -33.0066 -33.0066
   -11.1796 -11.0619 -10.5648 -10.4304  -3.2835  -2.9935  -2.1375  -1.9883
    -1.9400  -1.8290  -1.5302  -1.2128  -0.1539  -0.1507   0.7137   0.7789
     1.0122   1.0211   3.5076   3.9115   4.2614   4.3933   4.4458   4.8203
     5.9566   6.2119   8.7883   8.8177  10.1384  10.3825  10.4855  10.9885

          k =-0.1905 0.3299 0.0000 ( 14774 PWs)   bands (ev):

   -58.9586 -58.9586 -33.1872 -33.1872 -33.0925 -33.0924 -33.0220 -33.0219
   -11.0089 -10.8979 -10.4870 -10.3667  -3.3069  -3.0755  -2.2915  -2.1947
    -2.0087  -1.8502  -1.5942  -1.2591  -0.2927  -0.2870   0.6516   0.6520
     1.0276   1.0285   3.5313   3.9580   4.3168   4.4235   4.5233   4.9013
     6.0365   6.3348   9.0488   9.0800  10.1454  10.3160  10.4468  11.0421

          k =-0.2063 0.3574 0.0000 ( 14764 PWs)   bands (ev):

   -58.9555 -58.9555 -33.2074 -33.2074 -33.0864 -33.0864 -33.0383 -33.0383
   -10.8419 -10.7390 -10.4103 -10.3047  -3.3435  -3.1529  -2.5206  -2.4487
    -1.9932  -1.8159  -1.6010  -1.2747  -0.4819  -0.4596   0.5110   0.5717
     1.0653   1.0758   3.6013   4.0508   4.3786   4.4429   4.5998   4.9812
     6.0965   6.4317   9.3001   9.3399   9.9110  10.1157  10.7351  10.9773

          k =-0.2222 0.3849 0.0000 ( 14764 PWs)   bands (ev):

   -58.9528 -58.9528 -33.2232 -33.2232 -33.0809 -33.0809 -33.0556 -33.0556
   -10.6833 -10.5898 -10.3366 -10.2462  -3.3734  -3.2096  -2.7548  -2.6909
    -1.9532  -1.7904  -1.5767  -1.2688  -0.7020  -0.6482   0.3603   0.4753
     1.1240   1.1481   3.7006   4.1515   4.4388   4.4692   4.6682   5.0543
     6.1473   6.5072   9.4875   9.5046   9.7899   9.9344  10.7922  11.1364

          k =-0.2381 0.4124 0.0000 ( 14758 PWs)   bands (ev):

   -58.9503 -58.9503 -33.2343 -33.2343 -33.0761 -33.0761 -33.0737 -33.0737
   -10.5376 -10.4548 -10.2678 -10.1929  -3.3822  -3.2354  -2.9720  -2.9102
    -1.9053  -1.7851  -1.5381  -1.2493  -0.9384  -0.8393   0.2043   0.3657
     1.2039   1.2427   3.7947   4.1716   4.5010   4.5689   4.7244   5.1135
     6.2018   6.5677   9.3859   9.4574   9.8917   9.9794  10.7600  11.2408

          k =-0.2540 0.4399 0.0000 ( 14764 PWs)   bands (ev):

   -58.9482 -58.9482 -33.2404 -33.2404 -33.0924 -33.0924 -33.0720 -33.0720
   -10.4091 -10.3380 -10.2059 -10.1464  -3.3626  -3.2251  -3.1598  -3.1002
    -1.8575  -1.8053  -1.4979  -1.2327  -1.1758  -1.0115   0.0488   0.2466
     1.3044   1.3578   3.8399   4.0917   4.5712   4.7414   4.7785   5.1540
     6.2704   6.6191   9.2347   9.2631   9.8807  10.2250  10.8382  10.9366

          k =-0.2698 0.4674 0.0000 ( 14778 PWs)   bands (ev):

   -58.9466 -58.9466 -33.2415 -33.2415 -33.1114 -33.1114 -33.0687 -33.0687
   -10.3010 -10.2426 -10.1527 -10.1084  -3.3599  -3.2635  -3.2613  -3.1692
    -1.8531  -1.8195  -1.5207  -1.3393  -1.3003  -1.0798  -0.0981   0.1221
     1.4207   1.4867   3.8136   3.9603   4.6171   4.8727   4.9207   5.1789
     6.3555   6.6634   9.0509   9.1318   9.7945  10.3618  10.7674  11.0209

          k =-0.2857 0.4949 0.0000 ( 14790 PWs)   bands (ev):

   -58.9453 -58.9453 -33.2379 -33.2379 -33.1304 -33.1303 -33.0662 -33.0661
   -10.2158 -10.1705 -10.1098 -10.0798  -3.4668  -3.3855  -3.1784  -3.0816
    -1.9282  -1.8219  -1.6944  -1.4486  -1.3078  -1.0478  -0.2242  -0.0027
     1.5415   1.6170   3.7336   3.8108   4.6137   5.0183   5.0477   5.2137
     6.4512   6.6981   8.8649   9.0980   9.6826  10.2115  10.8937  11.2068

          k =-0.3016 0.5224 0.0000 ( 14796 PWs)   bands (ev):

   -58.9444 -58.9444 -33.2302 -33.2302 -33.1485 -33.1485 -33.0644 -33.0644
   -10.1539 -10.1226 -10.0784 -10.0612  -3.5549  -3.4726  -3.0415  -2.9641
    -2.0255  -1.9913  -1.7429  -1.5861  -1.2256  -1.0137  -0.3109  -0.1213
     1.6499   1.7312   3.6368   3.6722   4.5869   5.0821   5.1681   5.2838
     6.5459   6.7177   8.7279   9.1448   9.5779   9.9738  11.0933  11.3356

          k =-0.3175 0.5499 0.0000 ( 14788 PWs)   bands (ev):

   -58.9439 -58.9439 -33.2205 -33.2205 -33.1643 -33.1643 -33.0634 -33.0634
   -10.1147 -10.0986 -10.0590 -10.0519  -3.6077  -3.5236  -2.8859  -2.8465
    -2.1940  -2.1221  -1.7416  -1.6870  -1.1367  -1.0157  -0.3373  -0.2252
     1.7253   1.8092   3.5610   3.5733   4.5600   5.0766   5.2825   5.3346
     6.6276   6.7159   8.6526   9.2751   9.4957   9.7320  11.2589  11.3905

          k =-0.3333 0.5774 0.0000 ( 14790 PWs)   bands (ev):

   -58.9438 -58.9438 -33.2147 -33.2147 -33.1720 -33.1719 -33.0631 -33.0631
   -10.0968 -10.0968 -10.0509 -10.0509  -3.6250  -3.5400  -2.7935  -2.7935
    -2.2974  -2.1644  -1.7352  -1.7352  -1.0614  -1.0613  -0.3022  -0.3022
     1.7518   1.8360   3.5353   3.5353   4.5484   5.0709   5.3372   5.3373
     6.6866   6.6866   8.6333   9.4540   9.4540   9.5257  11.3624  11.3624

          k =-0.3030 0.5774 0.0000 ( 14786 PWs)   bands (ev):

   -58.9439 -58.9439 -33.2208 -33.2208 -33.1643 -33.1643 -33.0634 -33.0634
   -10.1116 -10.0976 -10.0577 -10.0518  -3.6102  -3.5263  -2.8760  -2.8516
    -2.2036  -2.1443  -1.7119  -1.6945  -1.1270  -1.0199  -0.3381  -0.2332
     1.7302   1.8147   3.5590   3.5667   4.5619   5.0791   5.2989   5.3273
     6.6284   6.7145   8.6376   9.2675   9.4801   9.7563  11.2662  11.3972

          k =-0.2727 0.5774 0.0000 ( 14800 PWs)   bands (ev):

   -58.9442 -58.9442 -33.2335 -33.2334 -33.1474 -33.1474 -33.0641 -33.0641
   -10.1383 -10.1131 -10.0717 -10.0595  -3.5685  -3.4883  -3.0433  -2.9787
    -2.1412  -2.0509  -1.6269  -1.5380  -1.1889  -1.0158  -0.3333  -0.1528
     1.6762   1.7623   3.6273   3.6432   4.6065   5.1052   5.2356   5.2639
     6.5393   6.7089   8.6250   9.0577   9.5971  10.0676  11.1300  11.3750

          k =-0.2424 0.5774 0.0000 ( 14804 PWs)   bands (ev):

   -58.9448 -58.9448 -33.2474 -33.2474 -33.1270 -33.1270 -33.0651 -33.0651
   -10.1731 -10.1392 -10.0914 -10.0729  -3.5062  -3.4320  -3.2209  -3.1294
    -2.1697  -1.9739  -1.4283  -1.3663  -1.1672  -1.0346  -0.2995  -0.0768
     1.6086   1.6972   3.7201   3.7465   4.6856   5.1075   5.1636   5.2066
     6.4219   6.6663   8.5776   8.8595   9.8030  10.4108  10.9854  11.3077

          k =-0.2121 0.5774 0.0000 ( 14768 PWs)   bands (ev):

   -58.9454 -58.9454 -33.2609 -33.2609 -33.1056 -33.1056 -33.0663 -33.0663
   -10.2127 -10.1717 -10.1148 -10.0906  -3.4547  -3.3651  -3.3629  -3.2814
    -2.2097  -1.9614  -1.3634  -1.2138  -0.9982  -0.9157  -0.2549  -0.0149
     1.5422   1.6328   3.8193   3.8584   4.7923   5.0276   5.0517   5.2832
     6.2831   6.5882   8.5001   8.6767  10.0663  10.7490  10.8584  11.2253

          k =-0.1818 0.5774 0.0000 ( 14768 PWs)   bands (ev):

   -58.9461 -58.9461 -33.2733 -33.2733 -33.0847 -33.0846 -33.0677 -33.0677
   -10.2539 -10.2073 -10.1398 -10.1107  -3.5683  -3.4273  -3.3142  -3.2924
    -2.2501  -1.9733  -1.3886  -1.1944  -0.7359  -0.5959  -0.2123   0.0275
     1.4846   1.5755   3.9116   3.9638   4.8358   4.9355   5.0330   5.4024
     6.1332   6.4815   8.4018   8.5124  10.3282  10.7819  10.8995  11.2727

          k =-0.1515 0.5774 0.0000 ( 14772 PWs)   bands (ev):

   -58.9468 -58.9468 -33.2842 -33.2842 -33.0690 -33.0690 -33.0651 -33.0651
   -10.2939 -10.2428 -10.1645 -10.1314  -3.7035  -3.5564  -3.2264  -3.2220
    -2.2859  -1.9931  -1.3985  -1.2308  -0.4090  -0.2662  -0.1747   0.0493
     1.4365   1.5252   3.9882   4.0504   4.7392   4.8497   5.1939   5.5439
     5.9872   6.3577   8.2903   8.3690  10.4582  10.7659  10.7944  10.9042

          k =-0.1212 0.5774 0.0000 ( 14780 PWs)   bands (ev):

   -58.9474 -58.9474 -33.2934 -33.2934 -33.0703 -33.0703 -33.0478 -33.0477
   -10.3301 -10.2756 -10.1872 -10.1509  -3.8195  -3.6672  -3.1708  -3.1321
    -2.3150  -2.0139  -1.3885  -1.2672  -0.1872  -0.0425   0.0175   0.0895
     1.3933   1.4770   4.0446   4.1068   4.6395   4.7775   5.4017   5.6665
     5.8872   6.2305   8.1727   8.2482  10.4004  10.4401  10.5345  10.8229

          k =-0.0909 0.5774 0.0000 ( 14762 PWs)   bands (ev):

   -58.9479 -58.9479 -33.3007 -33.3007 -33.0714 -33.0713 -33.0335 -33.0334
   -10.3605 -10.3034 -10.2064 -10.1677  -3.9123  -3.7564  -3.1293  -3.0539
    -2.3371  -2.0319  -1.3621  -1.2958  -0.1633   0.0253   0.2578   0.3685
     1.3463   1.4231   4.0803   4.1260   4.5711   4.7226   5.6184   5.6437
     5.9549   6.1138   8.0580   8.1512  10.0063  10.2566  10.3895  10.5396

          k =-0.0606 0.5774 0.0000 ( 14770 PWs)   bands (ev):

   -58.9484 -58.9484 -33.3061 -33.3061 -33.0722 -33.0722 -33.0228 -33.0228
   -10.3835 -10.3245 -10.2210 -10.1806  -3.9799  -3.8216  -3.1018  -2.9940
    -2.3524  -2.0452  -1.3285  -1.3151  -0.1582   0.0036   0.5330   0.6341
     1.2861   1.3551   4.0989   4.1145   4.5377   4.6859   5.5623   5.8148
     6.0211   6.0914   7.9587   8.0790   9.6851  10.0029  10.3222  10.3401

          k =-0.0303 0.5774 0.0000 ( 14768 PWs)   bands (ev):

   -58.9486 -58.9486 -33.3093 -33.3093 -33.0727 -33.0727 -33.0162 -33.0162
   -10.3977 -10.3377 -10.2300 -10.1887  -4.0209  -3.8614  -3.0867  -2.9565
    -2.3614  -2.0532  -1.3259  -1.3004  -0.1578  -0.0162   0.7511   0.8476
     1.2099   1.2704   4.0940   4.1063   4.5265   4.6654   5.5042   5.9372
     5.9814   6.1963   7.8896   8.0339   9.4706   9.8297  10.1808  10.3031

          k = 0.0000 0.5774 0.0000 ( 14778 PWs)   bands (ev):

   -58.9487 -58.9487 -33.3104 -33.3104 -33.0729 -33.0729 -33.0140 -33.0140
   -10.4025 -10.3421 -10.2331 -10.1914  -4.0346  -3.8747  -3.0819  -2.9439
    -2.3644  -2.0558  -1.3292  -1.2894  -0.1581  -0.0241   0.8516   0.9511
     1.1589   1.2116   4.0848   4.1080   4.5243   4.6590   5.4838   5.9309
     6.0198   6.2352   7.8646   8.0183   9.3944   9.7683  10.1314  10.2891

          k = 0.0000 0.5453 0.0000 ( 14776 PWs)   bands (ev):

   -58.9490 -58.9490 -33.3076 -33.3075 -33.0735 -33.0735 -33.0133 -33.0133
   -10.4234 -10.3600 -10.2421 -10.1964  -4.0156  -3.8557  -3.0649  -2.9243
    -2.3542  -2.0450  -1.3201  -1.2803  -0.1552  -0.0136   0.8416   0.9396
     1.1289   1.1986   4.0786   4.1040   4.4979   4.6428   5.4739   5.9216
     6.0154   6.2293   7.9074   8.0934   9.3893   9.7500  10.0557  10.3174

          k = 0.0000 0.5132 0.0000 ( 14734 PWs)   bands (ev):

   -58.9499 -58.9499 -33.2991 -33.2991 -33.0752 -33.0752 -33.0113 -33.0113
   -10.4838 -10.4127 -10.2680 -10.2119  -3.9602  -3.7999  -3.0146  -2.8663
    -2.3253  -2.0146  -1.2926  -1.2530  -0.1448   0.0168   0.8113   0.9049
     1.0547   1.1541   4.0619   4.0936   4.4255   4.5984   5.4430   5.8913
     6.0019   6.2114   8.0439   8.2914   9.3731   9.7083   9.9471  10.2305

          k = 0.0000 0.4811 0.0000 ( 14730 PWs)   bands (ev):

   -58.9514 -58.9514 -33.2852 -33.2852 -33.0781 -33.0781 -33.0080 -33.0080
   -10.5786 -10.4975 -10.3087 -10.2386  -3.8738  -3.7112  -2.9334  -2.7721
    -2.2823  -1.9705  -1.2470  -1.2078  -0.1235   0.0649   0.7603   0.8471
     0.9600   1.0830   4.0397   4.0812   4.3227   4.5354   5.3881   5.8353
     5.9786   6.1807   8.2690   8.5630   9.3361   9.6772   9.8432  10.0956

          k = 0.0000 0.4491 0.0000 ( 14738 PWs)   bands (ev):

   -58.9533 -58.9533 -33.2664 -33.2664 -33.0821 -33.0820 -33.0036 -33.0036
   -10.7012 -10.6099 -10.3614 -10.2758  -3.7645  -3.5954  -2.8249  -2.6456
    -2.2320  -1.9220  -1.1840  -1.1452  -0.0879   0.1292   0.6882   0.7663
     0.8687   1.0033   4.0190   4.0725   4.2057   4.4637   5.3073   5.7501
     5.9442   6.1365   8.5585   8.8431   9.2532   9.6614   9.7733  10.0450

          k = 0.0000 0.4170 0.0000 ( 14714 PWs)   bands (ev):

   -58.9558 -58.9558 -33.2431 -33.2431 -33.0869 -33.0868 -32.9981 -32.9981
   -10.8450 -10.7440 -10.4234 -10.3220  -3.6437  -3.4600  -2.6945  -2.4923
    -2.1805  -1.8796  -1.1041  -1.0659  -0.0354   0.2093   0.5957   0.6641
     0.8041   0.9384   4.0069   4.0734   4.0878   4.3907   5.2012   5.6355
     5.8976   6.0776   8.8650   9.0293   9.1140   9.6008   9.9083  10.1084

          k = 0.0000 0.3849 0.0000 ( 14728 PWs)   bands (ev):

   -58.9586 -58.9586 -33.2161 -33.2160 -33.0925 -33.0924 -32.9918 -32.9917
   -11.0030 -10.8935 -10.4922 -10.3753  -3.5265  -3.3150  -2.5494  -2.3213
    -2.1274  -1.8493  -1.0084  -0.9708   0.0352   0.3056   0.4844   0.5428
     0.7853   0.9098   3.9792   4.0096   4.0888   4.3214   5.0736   5.4953
     5.8372   6.0030   8.9131   8.9288   9.2639   9.6608  10.1651  10.2794

          k = 0.0000 0.3528 0.0000 ( 14724 PWs)   bands (ev):

   -58.9617 -58.9617 -33.1860 -33.1860 -33.0987 -33.0986 -32.9847 -32.9847
   -11.1690 -11.0524 -10.5650 -10.4332  -3.4324  -3.1741  -2.3983  -2.1526
    -2.0577  -1.8193  -0.8980  -0.8613   0.1224   0.3575   0.4063   0.4174
     0.8227   0.9308   3.8890   4.0309   4.1213   4.2602   4.9316   5.3364
     5.7618   5.9118   8.7192   8.7391   9.5786   9.7907  10.0905  10.4238

          k = 0.0000 0.3208 0.0000 ( 14704 PWs)   bands (ev):

   -58.9651 -58.9651 -33.1538 -33.1537 -33.1053 -33.1052 -32.9772 -32.9772
   -11.3373 -11.2148 -10.6394 -10.4936  -3.3829  -3.0578  -2.2480  -2.0209
    -1.9577  -1.7368  -0.7747  -0.7390   0.2193   0.2213   0.2594   0.5408
     0.9164   1.0023   3.8265   4.0720   4.1718   4.2114   4.7849   5.1675
     5.6707   5.8040   8.4984   8.5257   9.7948   9.8552   9.9766  10.6460

          k = 0.0000 0.2887 0.0000 ( 14740 PWs)   bands (ev):

   -58.9685 -58.9685 -33.1204 -33.1204 -33.1121 -33.1120 -32.9695 -32.9695
   -11.5030 -11.3758 -10.7130 -10.5544  -3.3909  -2.9923  -2.0931  -1.9219
    -1.8351  -1.5644  -0.6406  -0.6060   0.0750   0.1077   0.3241   0.6675
     1.0533   1.1177   3.8011   4.1323   4.1799   4.2389   4.6449   4.9987
     5.5642   5.6802   8.2779   8.3085   9.5655  10.0129  10.0846  10.6714

          k = 0.0000 0.2566 0.0000 ( 14706 PWs)   bands (ev):

   -58.9719 -58.9719 -33.1188 -33.1187 -33.0868 -33.0868 -32.9617 -32.9617
   -11.6616 -11.5309 -10.7839 -10.6135  -3.4516  -2.9942  -1.9214  -1.8145
    -1.6757  -1.3492  -0.4984  -0.4650  -0.0699  -0.0435   0.4211   0.7867
     1.1982   1.2781   3.8217   4.1714   4.2091   4.3199   4.5241   4.8409
     5.4437   5.5425   8.0663   8.0995   9.3360  10.0172  10.0955  10.5652

          k = 0.0000 0.2245 0.0000 ( 14708 PWs)   bands (ev):

   -58.9752 -58.9752 -33.1254 -33.1253 -33.0541 -33.0541 -32.9541 -32.9541
   -11.8097 -11.6762 -10.8504 -10.6694  -3.5476  -3.0545  -1.7311  -1.6679
    -1.5005  -1.1204  -0.3520  -0.3199  -0.2095  -0.1884   0.5016   0.8867
     1.3227   1.4726   3.8939   4.1915   4.2984   4.4109   4.4346   4.7057
     5.3119   5.3942   7.8691   7.9045   9.1247   9.8948   9.9475  10.3462

          k = 0.0000 0.1925 0.0000 ( 14674 PWs)   bands (ev):

   -58.9783 -58.9783 -33.1315 -33.1315 -33.0232 -33.0232 -32.9470 -32.9470
   -11.9440 -11.8085 -10.9108 -10.7206  -3.6597  -3.1482  -1.5304  -1.4924
    -1.3209  -0.8875  -0.3431  -0.3255  -0.2015  -0.1716   0.5551   0.9553
     1.4221   1.6714   4.0168   4.2432   4.3860   4.3952   4.5071   4.6046
     5.1736   5.2402   7.6899   7.7271   8.9351   9.6570   9.6787  10.0901

          k = 0.0000 0.1604 0.0000 ( 14654 PWs)   bands (ev):

   -58.9812 -58.9812 -33.1371 -33.1370 -32.9952 -32.9952 -32.9406 -32.9406
   -12.0619 -11.9249 -10.9639 -10.7658  -3.7729  -3.2526  -1.3307  -1.3071
    -1.1426  -0.6546  -0.4599  -0.4460  -0.0589  -0.0304   0.5748   0.9819
     1.4933   1.8535   4.1810   4.3240   4.3824   4.4934   4.5484   4.6030
     5.0350   5.0871   7.5310   7.5695   8.7671   9.3278   9.3434   9.8872

          k = 0.0000 0.1283 0.0000 ( 14612 PWs)   bands (ev):

   -58.9836 -58.9836 -33.1419 -33.1418 -32.9709 -32.9708 -32.9350 -32.9350
   -12.1613 -12.0233 -11.0088 -10.8041  -3.8764  -3.3522  -1.1438  -1.1285
    -0.9703  -0.5605  -0.5492  -0.4241   0.0737   0.1006   0.5594   0.9601
     1.5379   2.0053   4.3686   4.4183   4.4202   4.5471   4.5860   4.6922
     4.9048   4.9431   7.3937   7.4335   8.6152   8.9889   8.9939   9.7394

          k = 0.0000 0.0962 0.0000 ( 14589 PWs)   bands (ev):

   -58.9855 -58.9855 -33.1458 -33.1457 -32.9511 -32.9510 -32.9305 -32.9305
   -12.2404 -12.1017 -11.0445 -10.8347  -3.9630  -3.4372  -0.9819  -0.9713
    -0.8099  -0.6414  -0.6322  -0.1983   0.1885   0.2139   0.5149   0.8900
     1.5619   2.1198   4.4817   4.4959   4.5569   4.6133   4.6618   4.7643
     4.7960   4.8217   7.2794   7.3206   8.4598   8.6732   8.7212   9.6299

          k = 0.0000 0.0642 0.0000 ( 14605 PWs)   bands (ev):

   -58.9870 -58.9870 -33.1486 -33.1485 -32.9365 -32.9365 -32.9272 -32.9272
   -12.2978 -12.1587 -11.0704 -10.8570  -4.0279  -3.5015  -0.8562  -0.8481
    -0.7006  -0.6929  -0.6716   0.0198   0.2780   0.3021   0.4546   0.7776
     1.5725   2.1967   4.5472   4.5551   4.6707   4.6981   4.7113   4.7321
     4.7616   4.8343   7.1904   7.2336   8.2853   8.4234   8.5658   9.5527

          k = 0.0000 0.0321 0.0000 ( 14565 PWs)   bands (ev):

   -58.9879 -58.9879 -33.1504 -33.1502 -32.9275 -32.9274 -32.9252 -32.9251
   -12.3327 -12.1933 -11.0861 -10.8705  -4.0680  -3.5413  -0.7763  -0.7694
    -0.7367  -0.7299  -0.5727   0.2230   0.3351   0.3584   0.4003   0.6350
     1.5762   2.2400   4.5905   4.6063   4.6247   4.6481   4.7761   4.7913
     4.8429   4.8709   7.1318   7.1772   8.1478   8.2644   8.4948   9.5065

          k = 0.0000 0.0000 0.0000 ( 14593 PWs)   bands (ev):

   -58.9882 -58.9882 -33.1510 -33.1508 -32.9245 -32.9245 -32.9244 -32.9244
   -12.3444 -12.2049 -11.0914 -10.8750  -4.0815  -3.5548  -0.7488  -0.7488
    -0.7424  -0.7424  -0.5356   0.3548   0.3548   0.3777   0.3777   0.5228
     1.5770   2.2539   4.6065   4.6065   4.6259   4.6259   4.8042   4.8042
     4.8836   4.8837   7.1110   7.1575   8.0976   8.2099   8.4736   9.4910

     Writing all to output data dir ./tmp/MoS2_2L_pbe_vdW_nsoc.save/

     init_run     :     10.10s CPU     10.20s WALL (       1 calls)
     electrons    :    124.76s CPU     90.70s WALL (       1 calls)

     Called by init_run:
     wfcinit      :      0.00s CPU      0.00s WALL (       1 calls)
     wfcinit:atom :      0.07s CPU      0.07s WALL (      51 calls)
     wfcinit:wfcr :      3.09s CPU      2.42s WALL (      51 calls)
     potinit      :      9.53s CPU      9.62s WALL (       1 calls)
     hinit0       :      0.38s CPU      0.39s WALL (       1 calls)

     Called by electrons:
     c_bands      :    124.76s CPU     90.70s WALL (       1 calls)
     v_of_rho     :      9.52s CPU      9.61s WALL (       1 calls)
     v_h          :      0.00s CPU      0.00s WALL (       1 calls)
     v_xc         :      9.52s CPU      9.61s WALL (       1 calls)
     vdW_kernel   :      9.40s CPU      9.47s WALL (       1 calls)

     Called by c_bands:
     init_us_2    :      0.10s CPU      0.10s WALL (      51 calls)
     init_us_2:cp :      0.10s CPU      0.10s WALL (      51 calls)
     cegterg      :    121.08s CPU     87.63s WALL (     159 calls)

     Called by sum_band:

     Called by *egterg:
     cdiaghg      :      7.22s CPU      7.36s WALL (    2673 calls)
     cegterg:over :     18.63s CPU     10.77s WALL (    2622 calls)
     cegterg:upda :     11.20s CPU      5.97s WALL (    2622 calls)
     cegterg:last :     20.32s CPU     11.46s WALL (    1290 calls)
     h_psi        :     62.19s CPU     50.40s WALL (    2832 calls)
     g_psi        :      0.54s CPU      0.63s WALL (    2622 calls)

     Called by h_psi:
     h_psi:calbec :     17.10s CPU     10.19s WALL (    2832 calls)
     vloc_psi     :     29.13s CPU     30.16s WALL (    2832 calls)
     add_vuspsi   :     15.20s CPU      9.25s WALL (    2832 calls)

     General routines
     calbec       :     17.09s CPU     10.17s WALL (    2832 calls)
     fft          :      0.22s CPU      0.23s WALL (      61 calls)
     fftw         :     24.26s CPU     24.99s WALL (  102778 calls)
     davcio       :      0.00s CPU      0.08s WALL (     102 calls)

     Parallel routines

     PWSCF        :   2m15.36s CPU   1m41.66s WALL


   This run was terminated on:  12:58:34  18Apr2024            

=------------------------------------------------------------------------------=
   JOB DONE.
=------------------------------------------------------------------------------=
