
     Program PWSCF v.7.2 starts on 18Apr2024 at 12:58:56 

     This program is part of the open-source Quantum ESPRESSO suite
     for quantum simulation of materials; please cite
         "P. Giannozzi et al., J. Phys.:Condens. Matter 21 395502 (2009);
         "P. Giannozzi et al., J. Phys.:Condens. Matter 29 465901 (2017);
         "P. Giannozzi et al., J. Chem. Phys. 152 154105 (2020);
          URL http://www.quantum-espresso.org", 
     in publications or presentations arising from this work. More details at
     http://www.quantum-espresso.org/quote

     Parallel version (MPI & OpenMP), running on       8 processor cores
     Number of MPI processes:                 8
     Threads/MPI process:                     1

     MPI processes distributed on     1 nodes
     0 MiB available memory on the printing compute node when the environment starts

     Waiting for input...
     Reading input from standard input
Warning: card &CELL ignored
Warning: card     CELL_DYNAMICS = 'BFGS' ignored
Warning: card     CELL_DOFREE = 'ALL' ignored
Warning: card / ignored

     Current dimensions of program PWSCF are:
     Max number of different atomic species (ntypx) = 10
     Max number of k-points (npk) =  40000
     Max angular momentum in pseudopotentials (lmaxx) =  4

     R & G space division:  proc/nbgrp/npool/nimage =       8
     Subspace diagonalization in iterative solution of the eigenvalue problem:
     a serial algorithm will be used


     Parallelization info
     --------------------
     sticks:   dense  smooth     PW     G-vecs:    dense   smooth      PW
     Min          85      85     24                14701    14701    2318
     Max          86      86     25                14726    14726    2353
     Sum         685     685    199               117747   117747   18769

     Using Slab Decomposition



     bravais-lattice index     =            4
     lattice parameter (alat)  =       5.9915  a.u.
     unit-cell volume          =    1490.1169 (a.u.)^3
     number of atoms/cell      =            6
     number of atomic types    =            2
     number of electrons       =        52.00
     number of Kohn-Sham states=           31
     kinetic-energy cutoff     =      70.0000  Ry
     charge density cutoff     =     280.0000  Ry
     scf convergence threshold =      1.0E-07
     mixing beta               =       0.7000
     number of iterations used =            8  plain     mixing
     Exchange-correlation= PBE
                           (   1   4   3   4   0   0   0)

     celldm(1)=   5.991468  celldm(2)=   0.000000  celldm(3)=   8.000000
     celldm(4)=   0.000000  celldm(5)=   0.000000  celldm(6)=   0.000000

     crystal axes: (cart. coord. in units of alat)
               a(1) = (   1.000000   0.000000   0.000000 )  
               a(2) = (  -0.500000   0.866025   0.000000 )  
               a(3) = (   0.000000   0.000000   8.000000 )  

     reciprocal axes: (cart. coord. in units 2 pi/alat)
               b(1) = (  1.000000  0.577350 -0.000000 )  
               b(2) = (  0.000000  1.154701  0.000000 )  
               b(3) = (  0.000000 -0.000000  0.125000 )  


     PseudoPot. # 1 for S  read from file:
     ../../../Pseudo/PBE/S_FR.upf
     MD5 check sum: a7319d53700e7dada26ada44d0048388
     Pseudo is Norm-conserving + core correction, Zval =  6.0
     Generated using ONCVPSP code by D. R. Hamann
     Using radial grid of 1146 points,  6 beta functions with: 
                l(1) =   0
                l(2) =   0
                l(3) =   1
                l(4) =   1
                l(5) =   2
                l(6) =   2

     PseudoPot. # 2 for Mo read from file:
     ../../../Pseudo/PBE/Mo_FR.upf
     MD5 check sum: 4e1c3579de4f68baf863f15f5be96aa1
     Pseudo is Norm-conserving + core correction, Zval = 14.0
     Generated using ONCVPSP code by D. R. Hamann
     Using radial grid of 1640 points,  6 beta functions with: 
                l(1) =   0
                l(2) =   0
                l(3) =   1
                l(4) =   1
                l(5) =   2
                l(6) =   2

     atomic species   valence    mass     pseudopotential
        S              6.00    32.06500     S ( 1.00)
        Mo            14.00   183.84000     Mo( 1.00)

     12 Sym. Ops., with inversion, found


                                    s                        frac. trans.

      isym =  1     identity                                     

 cryst.   s( 1) = (     1          0          0      )
                  (     0          1          0      )
                  (     0          0          1      )

 cart.    s( 1) = (  1.0000000  0.0000000  0.0000000 )
                  (  0.0000000  1.0000000  0.0000000 )
                  (  0.0000000  0.0000000  1.0000000 )


      isym =  2     180 deg rotation - cart. axis [1,0,0]        

 cryst.   s( 2) = (     1          0          0      )
                  (    -1         -1          0      )
                  (     0          0         -1      )

 cart.    s( 2) = (  1.0000000  0.0000000  0.0000000 )
                  (  0.0000000 -1.0000000  0.0000000 )
                  (  0.0000000  0.0000000 -1.0000000 )


      isym =  3     120 deg rotation - cryst. axis [0,0,1]       

 cryst.   s( 3) = (     0          1          0      )
                  (    -1         -1          0      )
                  (     0          0          1      )

 cart.    s( 3) = ( -0.5000000 -0.8660254  0.0000000 )
                  (  0.8660254 -0.5000000  0.0000000 )
                  (  0.0000000  0.0000000  1.0000000 )


      isym =  4     120 deg rotation - cryst. axis [0,0,-1]      

 cryst.   s( 4) = (    -1         -1          0      )
                  (     1          0          0      )
                  (     0          0          1      )

 cart.    s( 4) = ( -0.5000000  0.8660254  0.0000000 )
                  ( -0.8660254 -0.5000000  0.0000000 )
                  (  0.0000000  0.0000000  1.0000000 )


      isym =  5     180 deg rotation - cryst. axis [0,1,0]       

 cryst.   s( 5) = (    -1         -1          0      )
                  (     0          1          0      )
                  (     0          0         -1      )

 cart.    s( 5) = ( -0.5000000 -0.8660254  0.0000000 )
                  ( -0.8660254  0.5000000  0.0000000 )
                  (  0.0000000  0.0000000 -1.0000000 )


      isym =  6     180 deg rotation - cryst. axis [1,1,0]       

 cryst.   s( 6) = (     0          1          0      )
                  (     1          0          0      )
                  (     0          0         -1      )

 cart.    s( 6) = ( -0.5000000  0.8660254  0.0000000 )
                  (  0.8660254  0.5000000  0.0000000 )
                  (  0.0000000  0.0000000 -1.0000000 )


      isym =  7     inversion                                    

 cryst.   s( 7) = (    -1          0          0      )
                  (     0         -1          0      )
                  (     0          0         -1      )

 cart.    s( 7) = ( -1.0000000  0.0000000  0.0000000 )
                  (  0.0000000 -1.0000000  0.0000000 )
                  (  0.0000000  0.0000000 -1.0000000 )


      isym =  8     inv. 180 deg rotation - cart. axis [1,0,0]   

 cryst.   s( 8) = (    -1          0          0      )
                  (     1          1          0      )
                  (     0          0          1      )

 cart.    s( 8) = ( -1.0000000  0.0000000  0.0000000 )
                  (  0.0000000  1.0000000  0.0000000 )
                  (  0.0000000  0.0000000  1.0000000 )


      isym =  9     inv. 120 deg rotation - cryst. axis [0,0,1]  

 cryst.   s( 9) = (     0         -1          0      )
                  (     1          1          0      )
                  (     0          0         -1      )

 cart.    s( 9) = (  0.5000000  0.8660254  0.0000000 )
                  ( -0.8660254  0.5000000  0.0000000 )
                  (  0.0000000  0.0000000 -1.0000000 )


      isym = 10     inv. 120 deg rotation - cryst. axis [0,0,-1] 

 cryst.   s(10) = (     1          1          0      )
                  (    -1          0          0      )
                  (     0          0         -1      )

 cart.    s(10) = (  0.5000000 -0.8660254  0.0000000 )
                  (  0.8660254  0.5000000  0.0000000 )
                  (  0.0000000  0.0000000 -1.0000000 )


      isym = 11     inv. 180 deg rotation - cryst. axis [0,1,0]  

 cryst.   s(11) = (     1          1          0      )
                  (     0         -1          0      )
                  (     0          0          1      )

 cart.    s(11) = (  0.5000000  0.8660254  0.0000000 )
                  (  0.8660254 -0.5000000  0.0000000 )
                  (  0.0000000  0.0000000  1.0000000 )


      isym = 12     inv. 180 deg rotation - cryst. axis [1,1,0]  

 cryst.   s(12) = (     0         -1          0      )
                  (    -1          0          0      )
                  (     0          0          1      )

 cart.    s(12) = (  0.5000000 -0.8660254  0.0000000 )
                  ( -0.8660254 -0.5000000  0.0000000 )
                  (  0.0000000  0.0000000  1.0000000 )


     point group D_3d (-3m) 
     there are  6 classes
     the character table:

       E     2C3   3C2'  i     2S6   3s_d 
A_1g   1.00  1.00  1.00  1.00  1.00  1.00
A_2g   1.00  1.00 -1.00  1.00  1.00 -1.00
E_g    2.00 -1.00  0.00  2.00 -1.00  0.00
A_1u   1.00  1.00  1.00 -1.00 -1.00 -1.00
A_2u   1.00  1.00 -1.00 -1.00 -1.00  1.00
E_u    2.00 -1.00  0.00 -2.00  1.00  0.00

     the symmetry operations in each class and the name of the first element:

     E        1
          identity                                               
     2C3      3    4
          120 deg rotation - cryst. axis [0,0,1]                 
     3C2'     2    5    6
          180 deg rotation - cart. axis [1,0,0]                  
     i        7
          inversion                                              
     2S6      9   10
          inv. 120 deg rotation - cryst. axis [0,0,1]            
     3s_d     8   11   12
          inv. 180 deg rotation - cart. axis [1,0,0]             

   Cartesian axes

     site n.     atom                  positions (alat units)
         1           Mo  tau(   1) = (  -0.0000003   0.5773503  -0.9752993  )
         2           Mo  tau(   2) = (   0.5000002   0.2886748   0.9752993  )
         3           S   tau(   3) = (   0.5000002   0.2886748  -0.4799475  )
         4           S   tau(   4) = (  -0.0000003   0.5773503   0.4799475  )
         5           S   tau(   5) = (  -0.0000003   0.5773503   1.4700984  )
         6           S   tau(   6) = (   0.5000002   0.2886748  -1.4700984  )

   Crystallographic axes

     site n.     atom                  positions (cryst. coord.)
         1           Mo  tau(   1) = (  0.3333330  0.6666667 -0.1219124  )
         2           Mo  tau(   2) = (  0.6666667  0.3333330  0.1219124  )
         3           S   tau(   3) = (  0.6666667  0.3333330 -0.0599934  )
         4           S   tau(   4) = (  0.3333330  0.6666667  0.0599934  )
         5           S   tau(   5) = (  0.3333330  0.6666667  0.1837623  )
         6           S   tau(   6) = (  0.6666667  0.3333330 -0.1837623  )

     number of k points=    19  Marzari-Vanderbilt smearing, width (Ry)=  0.0050
                       cart. coord. in units 2pi/alat
        k(    1) = (   0.0000000   0.0000000   0.0000000), wk =   0.0138889
        k(    2) = (   0.0000000   0.0962250   0.0000000), wk =   0.0833333
        k(    3) = (   0.0000000   0.1924501   0.0000000), wk =   0.0833333
        k(    4) = (   0.0000000   0.2886751   0.0000000), wk =   0.0833333
        k(    5) = (   0.0000000   0.3849002   0.0000000), wk =   0.0833333
        k(    6) = (   0.0000000   0.4811252   0.0000000), wk =   0.0833333
        k(    7) = (   0.0000000  -0.5773503   0.0000000), wk =   0.0416667
        k(    8) = (   0.0833333   0.1443376   0.0000000), wk =   0.0833333
        k(    9) = (   0.0833333   0.2405626   0.0000000), wk =   0.1666667
        k(   10) = (   0.0833333   0.3367877   0.0000000), wk =   0.1666667
        k(   11) = (   0.0833333   0.4330127   0.0000000), wk =   0.1666667
        k(   12) = (   0.0833333   0.5292377   0.0000000), wk =   0.1666667
        k(   13) = (   0.1666667   0.2886751   0.0000000), wk =   0.0833333
        k(   14) = (   0.1666667   0.3849002   0.0000000), wk =   0.1666667
        k(   15) = (   0.1666667   0.4811252   0.0000000), wk =   0.1666667
        k(   16) = (   0.1666667   0.5773503   0.0000000), wk =   0.0833333
        k(   17) = (   0.2500000   0.4330127   0.0000000), wk =   0.0833333
        k(   18) = (   0.2500000   0.5292377   0.0000000), wk =   0.1666667
        k(   19) = (   0.3333333   0.5773503   0.0000000), wk =   0.0277778

                       cryst. coord.
        k(    1) = (   0.0000000   0.0000000   0.0000000), wk =   0.0138889
        k(    2) = (   0.0000000   0.0833333   0.0000000), wk =   0.0833333
        k(    3) = (   0.0000000   0.1666667   0.0000000), wk =   0.0833333
        k(    4) = (   0.0000000   0.2500000   0.0000000), wk =   0.0833333
        k(    5) = (   0.0000000   0.3333333   0.0000000), wk =   0.0833333
        k(    6) = (   0.0000000   0.4166667   0.0000000), wk =   0.0833333
        k(    7) = (   0.0000000  -0.5000000   0.0000000), wk =   0.0416667
        k(    8) = (   0.0833333   0.0833333   0.0000000), wk =   0.0833333
        k(    9) = (   0.0833333   0.1666667   0.0000000), wk =   0.1666667
        k(   10) = (   0.0833333   0.2500000   0.0000000), wk =   0.1666667
        k(   11) = (   0.0833333   0.3333333   0.0000000), wk =   0.1666667
        k(   12) = (   0.0833333   0.4166667   0.0000000), wk =   0.1666667
        k(   13) = (   0.1666667   0.1666667   0.0000000), wk =   0.0833333
        k(   14) = (   0.1666667   0.2500000   0.0000000), wk =   0.1666667
        k(   15) = (   0.1666667   0.3333333   0.0000000), wk =   0.1666667
        k(   16) = (   0.1666667   0.4166667   0.0000000), wk =   0.0833333
        k(   17) = (   0.2500000   0.2500000   0.0000000), wk =   0.0833333
        k(   18) = (   0.2500000   0.3333333   0.0000000), wk =   0.1666667
        k(   19) = (   0.3333333   0.3333333   0.0000000), wk =   0.0277778

     Dense  grid:   117747 G-vectors     FFT dimensions: (  32,  32, 256)

     Dynamical RAM for                 wfc:       0.87 MB

     Dynamical RAM for     wfc (w. buffer):      17.43 MB

     Dynamical RAM for           str. fact:       0.45 MB

     Dynamical RAM for           local pot:       0.00 MB

     Dynamical RAM for          nlocal pot:       3.04 MB

     Dynamical RAM for                qrad:       2.69 MB

     Dynamical RAM for          rho,v,vnew:       1.42 MB

     Dynamical RAM for               rhoin:       0.47 MB

     Dynamical RAM for            rho*nmix:       3.59 MB

     Dynamical RAM for           G-vectors:       0.95 MB

     Dynamical RAM for          h,s,v(r/c):       0.18 MB

     Dynamical RAM for          <psi|beta>:       0.05 MB

     Dynamical RAM for                 psi:       1.74 MB

     Dynamical RAM for                hpsi:       1.74 MB

     Dynamical RAM for      wfcinit/wfcrot:       2.05 MB

     Estimated static dynamical RAM per process >      28.37 MB

     Estimated max dynamical RAM per process >      35.68 MB

     Estimated total dynamical RAM >     285.45 MB

     Initial potential from superposition of free atoms

     starting charge      51.9970, renormalised to      52.0000

     negative rho (up, down):  4.522E-05 0.000E+00
     Starting wfcs are   36 randomized atomic wfcs

     total cpu time spent up to now is        1.6 secs

     Self-consistent Calculation

     iteration #  1     ecut=    70.00 Ry     beta= 0.70
     Davidson diagonalization with overlap

---- Real-time Memory Report at c_bands before calling an iterative solver
             0 MiB given to the printing process from OS
             0 MiB allocation reported by mallinfo(arena+hblkhd)
             0 MiB available memory on the node where the printing process lives
------------------
     ethr =  1.00E-02,  avg # of iterations =  2.8

     total cpu time spent up to now is        4.0 secs

     total energy              =    -369.21581069 Ry
     estimated scf accuracy    <       0.92532009 Ry

     iteration #  2     ecut=    70.00 Ry     beta= 0.70
     Davidson diagonalization with overlap

---- Real-time Memory Report at c_bands before calling an iterative solver
             0 MiB given to the printing process from OS
             0 MiB allocation reported by mallinfo(arena+hblkhd)
             0 MiB available memory on the node where the printing process lives
------------------
     ethr =  1.78E-03,  avg # of iterations =  6.1

     total cpu time spent up to now is        7.7 secs

     total energy              =    -368.02324949 Ry
     estimated scf accuracy    <      13.05842892 Ry

     iteration #  3     ecut=    70.00 Ry     beta= 0.70
     Davidson diagonalization with overlap

---- Real-time Memory Report at c_bands before calling an iterative solver
             0 MiB given to the printing process from OS
             0 MiB allocation reported by mallinfo(arena+hblkhd)
             0 MiB available memory on the node where the printing process lives
------------------
     ethr =  1.78E-03,  avg # of iterations =  4.6

     total cpu time spent up to now is       10.7 secs

     total energy              =    -369.76398089 Ry
     estimated scf accuracy    <       0.08824591 Ry

     iteration #  4     ecut=    70.00 Ry     beta= 0.70
     Davidson diagonalization with overlap

---- Real-time Memory Report at c_bands before calling an iterative solver
             0 MiB given to the printing process from OS
             0 MiB allocation reported by mallinfo(arena+hblkhd)
             0 MiB available memory on the node where the printing process lives
------------------
     ethr =  1.70E-04,  avg # of iterations =  3.8

     total cpu time spent up to now is       13.2 secs

     total energy              =    -369.76684028 Ry
     estimated scf accuracy    <       0.07171296 Ry

     iteration #  5     ecut=    70.00 Ry     beta= 0.70
     Davidson diagonalization with overlap

---- Real-time Memory Report at c_bands before calling an iterative solver
             0 MiB given to the printing process from OS
             0 MiB allocation reported by mallinfo(arena+hblkhd)
             0 MiB available memory on the node where the printing process lives
------------------
     ethr =  1.38E-04,  avg # of iterations =  2.2

     total cpu time spent up to now is       15.4 secs

     total energy              =    -369.76968579 Ry
     estimated scf accuracy    <       0.02891565 Ry

     iteration #  6     ecut=    70.00 Ry     beta= 0.70
     Davidson diagonalization with overlap

---- Real-time Memory Report at c_bands before calling an iterative solver
             0 MiB given to the printing process from OS
             0 MiB allocation reported by mallinfo(arena+hblkhd)
             0 MiB available memory on the node where the printing process lives
------------------
     ethr =  5.56E-05,  avg # of iterations =  2.3

     total cpu time spent up to now is       17.6 secs

     total energy              =    -369.77278928 Ry
     estimated scf accuracy    <       0.00068681 Ry

     iteration #  7     ecut=    70.00 Ry     beta= 0.70
     Davidson diagonalization with overlap

---- Real-time Memory Report at c_bands before calling an iterative solver
             0 MiB given to the printing process from OS
             0 MiB allocation reported by mallinfo(arena+hblkhd)
             0 MiB available memory on the node where the printing process lives
------------------
     c_bands:  1 eigenvalues not converged
     c_bands:  2 eigenvalues not converged
     ethr =  1.32E-06,  avg # of iterations =  9.6

     total cpu time spent up to now is       21.8 secs

     total energy              =    -369.77327958 Ry
     estimated scf accuracy    <       0.00044800 Ry

     iteration #  8     ecut=    70.00 Ry     beta= 0.70
     Davidson diagonalization with overlap

---- Real-time Memory Report at c_bands before calling an iterative solver
             0 MiB given to the printing process from OS
             0 MiB allocation reported by mallinfo(arena+hblkhd)
             0 MiB available memory on the node where the printing process lives
------------------
     ethr =  8.62E-07,  avg # of iterations =  1.1

     total cpu time spent up to now is       23.5 secs

     total energy              =    -369.77325742 Ry
     estimated scf accuracy    <       0.00013078 Ry

     iteration #  9     ecut=    70.00 Ry     beta= 0.70
     Davidson diagonalization with overlap

---- Real-time Memory Report at c_bands before calling an iterative solver
             0 MiB given to the printing process from OS
             0 MiB allocation reported by mallinfo(arena+hblkhd)
             0 MiB available memory on the node where the printing process lives
------------------
     ethr =  2.51E-07,  avg # of iterations =  3.1

     total cpu time spent up to now is       26.0 secs

     total energy              =    -369.77328208 Ry
     estimated scf accuracy    <       0.00000507 Ry

     iteration # 10     ecut=    70.00 Ry     beta= 0.70
     Davidson diagonalization with overlap

---- Real-time Memory Report at c_bands before calling an iterative solver
             0 MiB given to the printing process from OS
             0 MiB allocation reported by mallinfo(arena+hblkhd)
             0 MiB available memory on the node where the printing process lives
------------------
     ethr =  9.75E-09,  avg # of iterations =  5.8

     total cpu time spent up to now is       28.9 secs

     total energy              =    -369.77328297 Ry
     estimated scf accuracy    <       0.00000350 Ry

     iteration # 11     ecut=    70.00 Ry     beta= 0.70
     Davidson diagonalization with overlap

---- Real-time Memory Report at c_bands before calling an iterative solver
             0 MiB given to the printing process from OS
             0 MiB allocation reported by mallinfo(arena+hblkhd)
             0 MiB available memory on the node where the printing process lives
------------------
     ethr =  6.73E-09,  avg # of iterations =  2.1

     total cpu time spent up to now is       31.0 secs

     total energy              =    -369.77328327 Ry
     estimated scf accuracy    <       0.00000017 Ry

     iteration # 12     ecut=    70.00 Ry     beta= 0.70
     Davidson diagonalization with overlap

---- Real-time Memory Report at c_bands before calling an iterative solver
             0 MiB given to the printing process from OS
             0 MiB allocation reported by mallinfo(arena+hblkhd)
             0 MiB available memory on the node where the printing process lives
------------------
     ethr =  3.22E-10,  avg # of iterations =  5.1

     total cpu time spent up to now is       34.0 secs

     End of self-consistent calculation

          k = 0.0000 0.0000 0.0000 ( 14593 PWs)   bands (ev):

   -58.8688 -58.8688 -33.0728 -33.0726 -32.8496 -32.8496 -32.8495 -32.8495
   -12.2260 -12.0896 -10.9721 -10.7599  -3.9529  -3.4394  -0.6079  -0.6079
    -0.6014  -0.6014  -0.3744   0.4897   0.4898   0.5124   0.5125   0.6671
     1.7423   2.3930   4.7349   4.7351   4.7544   4.7545   4.9384

     occupation numbers 
     1.0000   1.0000   1.0000   1.0000   1.0000   1.0000   1.0000   1.0000
     1.0000   1.0000   1.0000   1.0000   1.0000   1.0000   1.0000   1.0000
     1.0000   1.0000   1.0000   1.0000   1.0000   1.0000   1.0000   1.0000
     1.0000   1.0000   0.0000   0.0000   0.0000   0.0000   0.0000

          k = 0.0000 0.0962 0.0000 ( 14589 PWs)   bands (ev):

   -58.8662 -58.8662 -33.0676 -33.0675 -32.8759 -32.8759 -32.8556 -32.8555
   -12.1221 -11.9864 -10.9250 -10.7192  -3.8351  -3.3225  -0.8434  -0.8328
    -0.6547  -0.5012  -0.4919  -0.0606   0.3230   0.3481   0.6506   1.0267
     1.7229   2.2562   4.6141   4.6299   4.7005   4.7545   4.7962

     occupation numbers 
     1.0000   1.0000   1.0000   1.0000   1.0000   1.0000   1.0000   1.0000
     1.0000   1.0000   1.0000   1.0000   1.0000   1.0000   1.0000   1.0000
     1.0000   1.0000   1.0000   1.0000   1.0000   1.0000   1.0000   1.0000
     1.0000   1.0000   0.0000   0.0000   0.0000   0.0000   0.0000

          k = 0.0000 0.1925 0.0000 ( 14674 PWs)   bands (ev):

   -58.8590 -58.8590 -33.0534 -33.0534 -32.9476 -32.9476 -32.8719 -32.8719
   -11.8259 -11.6933 -10.7906 -10.6039  -3.5332  -3.0352  -1.3977  -1.3608
    -1.1750  -0.7540  -0.2054  -0.1876  -0.0678  -0.0386   0.6850   1.0818
     1.5728   1.8074   4.1756   4.4000   4.5311   4.5331   4.6427

     occupation numbers 
     1.0000   1.0000   1.0000   1.0000   1.0000   1.0000   1.0000   1.0000
     1.0000   1.0000   1.0000   1.0000   1.0000   1.0000   1.0000   1.0000
     1.0000   1.0000   1.0000   1.0000   1.0000   1.0000   1.0000   1.0000
     1.0000   1.0000   0.0000   0.0000   0.0000   0.0000   0.0000

          k = 0.0000 0.2887 0.0000 ( 14740 PWs)   bands (ev):

   -58.8491 -58.8491 -33.0441 -33.0440 -33.0341 -33.0340 -32.8942 -32.8942
   -11.3852 -11.2607 -10.5917 -10.4358  -3.2646  -2.8760  -1.9660  -1.8023
    -1.7061  -1.4404  -0.5080  -0.4738   0.2088   0.2411   0.4487   0.7877
     1.1970   1.2592   3.9695   4.2751   4.3428   4.3791   4.8002

     occupation numbers 
     1.0000   1.0000   1.0000   1.0000   1.0000   1.0000   1.0000   1.0000
     1.0000   1.0000   1.0000   1.0000   1.0000   1.0000   1.0000   1.0000
     1.0000   1.0000   1.0000   1.0000   1.0000   1.0000   1.0000   1.0000
     1.0000   1.0000   0.0000   0.0000   0.0000   0.0000   0.0000

          k = 0.0000 0.3849 0.0000 ( 14728 PWs)   bands (ev):

   -58.8393 -58.8393 -33.1390 -33.1390 -33.0147 -33.0146 -32.9163 -32.9163
   -10.8855 -10.7780 -10.3694 -10.2543  -3.4011  -3.1963  -2.4224  -2.2015
    -2.0175  -1.7457  -0.8763  -0.8392   0.1613   0.4276   0.6125   0.6700
     0.9275   1.0494   4.1485   4.1593   4.2362   4.4835   5.2313

     occupation numbers 
     1.0000   1.0000   1.0000   1.0000   1.0000   1.0000   1.0000   1.0000
     1.0000   1.0000   1.0000   1.0000   1.0000   1.0000   1.0000   1.0000
     1.0000   1.0000   1.0000   1.0000   1.0000   1.0000   1.0000   1.0000
     1.0000   1.0000   0.0000   0.0000   0.0000   0.0000   0.0000

          k = 0.0000 0.4811 0.0000 ( 14730 PWs)   bands (ev):

   -58.8321 -58.8321 -33.2077 -33.2077 -33.0004 -33.0004 -32.9325 -32.9324
   -10.4613 -10.3814 -10.1844 -10.1155  -3.7528  -3.5961  -2.8131  -2.6571
    -2.1716  -1.8648  -1.1153  -1.0766   0.0051   0.1887   0.8831   0.9682
     1.0937   1.2145   4.1958   4.2360   4.4910   4.6974   5.5431

     occupation numbers 
     1.0000   1.0000   1.0000   1.0000   1.0000   1.0000   1.0000   1.0000
     1.0000   1.0000   1.0000   1.0000   1.0000   1.0000   1.0000   1.0000
     1.0000   1.0000   1.0000   1.0000   1.0000   1.0000   1.0000   1.0000
     1.0000   1.0000   0.0000   0.0000   0.0000   0.0000   0.0000

          k = 0.0000-0.5774 0.0000 ( 14778 PWs)   bands (ev):

   -58.8294 -58.8294 -33.2327 -33.2327 -32.9952 -32.9952 -32.9384 -32.9384
   -10.2855 -10.2256 -10.1083 -10.0673  -3.9157  -3.7615  -2.9647  -2.8308
    -2.2512  -1.9473  -1.1976  -1.1584  -0.0284   0.1002   0.9725   1.0698
     1.2846   1.3402   4.2436   4.2660   4.6925   4.8220   5.6368

     occupation numbers 
     1.0000   1.0000   1.0000   1.0000   1.0000   1.0000   1.0000   1.0000
     1.0000   1.0000   1.0000   1.0000   1.0000   1.0000   1.0000   1.0000
     1.0000   1.0000   1.0000   1.0000   1.0000   1.0000   1.0000   1.0000
     1.0000   1.0000   0.0000   0.0000   0.0000   0.0000   0.0000

          k = 0.0833 0.1443 0.0000 ( 14662 PWs)   bands (ev):

   -58.8613 -58.8613 -33.0579 -33.0579 -32.9237 -32.9236 -32.8681 -32.8681
   -11.9220 -11.7882 -10.8341 -10.6410  -3.6224  -3.1159  -1.2201  -1.2138
    -1.0022  -0.5117  -0.3065  -0.2958  -0.0685  -0.0305   0.8087   1.1793
     1.6391   1.9625   4.2821   4.4344   4.4579   4.6160   4.6477

     occupation numbers 
     1.0000   1.0000   1.0000   1.0000   1.0000   1.0000   1.0000   1.0000
     1.0000   1.0000   1.0000   1.0000   1.0000   1.0000   1.0000   1.0000
     1.0000   1.0000   1.0000   1.0000   1.0000   1.0000   1.0000   1.0000
     1.0000   1.0000   0.0000   0.0000   0.0000   0.0000   0.0000

          k = 0.0833 0.2406 0.0000 ( 14719 PWs)   bands (ev):

   -58.8527 -58.8527 -33.0412 -33.0411 -33.0042 -33.0042 -32.8909 -32.8908
   -11.5525 -11.4243 -10.6665 -10.4982  -3.3136  -2.8556  -1.7403  -1.6843
    -1.4485  -1.1102  -0.6347  -0.5618  -0.0004   0.0184   0.8102   1.0883
     1.3754   1.4463   3.9014   4.2275   4.3875   4.4873   4.5071

     occupation numbers 
     1.0000   1.0000   1.0000   1.0000   1.0000   1.0000   1.0000   1.0000
     1.0000   1.0000   1.0000   1.0000   1.0000   1.0000   1.0000   1.0000
     1.0000   1.0000   1.0000   1.0000   1.0000   1.0000   1.0000   1.0000
     1.0000   1.0000   0.0000   0.0000   0.0000   0.0000   0.0000

          k = 0.0833 0.3368 0.0000 ( 14727 PWs)   bands (ev):

   -58.8429 -58.8429 -33.0957 -33.0957 -33.0218 -33.0217 -32.9172 -32.9172
   -11.0787 -10.9630 -10.4528 -10.3201  -3.2350  -2.9627  -2.1611  -1.9582
    -1.8759  -1.6983  -1.0273  -0.9013   0.2258   0.2520   0.5526   0.7333
     1.0904   1.1408   3.8272   4.1531   4.3364   4.5034   4.8437

     occupation numbers 
     1.0000   1.0000   1.0000   1.0000   1.0000   1.0000   1.0000   1.0000
     1.0000   1.0000   1.0000   1.0000   1.0000   1.0000   1.0000   1.0000
     1.0000   1.0000   1.0000   1.0000   1.0000   1.0000   1.0000   1.0000
     1.0000   1.0000   0.0000   0.0000   0.0000   0.0000   0.0000

          k = 0.0833 0.4330 0.0000 ( 14771 PWs)   bands (ev):

   -58.8344 -58.8344 -33.1740 -33.1740 -33.0050 -33.0050 -32.9399 -32.9399
   -10.6081 -10.5155 -10.2433 -10.1545  -3.5159  -3.3506  -2.6406  -2.5165
    -2.0619  -1.7737  -1.1916  -1.0813   0.1893   0.3183   0.3575   0.4278
     1.2069   1.2538   4.0284   4.2378   4.4848   4.6038   5.2794

     occupation numbers 
     1.0000   1.0000   1.0000   1.0000   1.0000   1.0000   1.0000   1.0000
     1.0000   1.0000   1.0000   1.0000   1.0000   1.0000   1.0000   1.0000
     1.0000   1.0000   1.0000   1.0000   1.0000   1.0000   1.0000   1.0000
     1.0000   1.0000   0.0000   0.0000   0.0000   0.0000   0.0000

          k = 0.0833 0.5292 0.0000 ( 14775 PWs)   bands (ev):

   -58.8294 -58.8294 -33.2188 -33.2188 -32.9952 -32.9952 -32.9530 -32.9530
   -10.2951 -10.2315 -10.1055 -10.0586  -3.7747  -3.6238  -2.9606  -2.8741
    -2.2036  -1.9031  -1.2252  -1.1630  -0.0038   0.1678   0.4285   0.5295
     1.4282   1.5009   4.2256   4.2839   4.6774   4.8278   5.6479

     occupation numbers 
     1.0000   1.0000   1.0000   1.0000   1.0000   1.0000   1.0000   1.0000
     1.0000   1.0000   1.0000   1.0000   1.0000   1.0000   1.0000   1.0000
     1.0000   1.0000   1.0000   1.0000   1.0000   1.0000   1.0000   1.0000
     1.0000   1.0000   0.0000   0.0000   0.0000   0.0000   0.0000

          k = 0.1667 0.2887 0.0000 ( 14714 PWs)   bands (ev):

   -58.8442 -58.8442 -33.0736 -33.0736 -33.0244 -33.0243 -32.9239 -32.9239
   -11.1475 -11.0292 -10.4817 -10.3428  -3.1584  -2.8416  -1.9736  -1.8451
    -1.7410  -1.6122  -1.3373  -1.0488   0.0149   0.0205   0.8557   0.9537
     1.1672   1.1787   3.6829   4.0636   4.3931   4.5330   4.5667

     occupation numbers 
     1.0000   1.0000   1.0000   1.0000   1.0000   1.0000   1.0000   1.0000
     1.0000   1.0000   1.0000   1.0000   1.0000   1.0000   1.0000   1.0000
     1.0000   1.0000   1.0000   1.0000   1.0000   1.0000   1.0000   1.0000
     1.0000   1.0000   0.0000   0.0000   0.0000   0.0000   0.0000

          k = 0.1667 0.3849 0.0000 ( 14763 PWs)   bands (ev):

   -58.8357 -58.8357 -33.1388 -33.1388 -33.0076 -33.0076 -32.9604 -32.9603
   -10.6931 -10.5939 -10.2736 -10.1732  -3.2661  -3.0880  -2.4494  -2.3955
    -1.9031  -1.7044  -1.4441  -1.1433  -0.2992  -0.2410   0.5534   0.6326
     1.2247   1.2359   3.8148   4.2298   4.5402   4.5955   4.8409

     occupation numbers 
     1.0000   1.0000   1.0000   1.0000   1.0000   1.0000   1.0000   1.0000
     1.0000   1.0000   1.0000   1.0000   1.0000   1.0000   1.0000   1.0000
     1.0000   1.0000   1.0000   1.0000   1.0000   1.0000   1.0000   1.0000
     1.0000   1.0000   0.0000   0.0000   0.0000   0.0000   0.0000

          k = 0.1667 0.4811 0.0000 ( 14763 PWs)   bands (ev):

   -58.8294 -58.8294 -33.1849 -33.1849 -32.9952 -32.9952 -32.9882 -32.9882
   -10.3136 -10.2434 -10.0992 -10.0418  -3.4452  -3.3048  -2.9612  -2.9404
    -2.0326  -1.7678  -1.3649  -1.1198  -0.4619  -0.3300   0.1296   0.3138
     1.4477   1.5102   4.0816   4.2933   4.7223   4.8457   5.1379

     occupation numbers 
     1.0000   1.0000   1.0000   1.0000   1.0000   1.0000   1.0000   1.0000
     1.0000   1.0000   1.0000   1.0000   1.0000   1.0000   1.0000   1.0000
     1.0000   1.0000   1.0000   1.0000   1.0000   1.0000   1.0000   1.0000
     1.0000   1.0000   0.0000   0.0000   0.0000   0.0000   0.0000

          k = 0.1667 0.5774 0.0000 ( 14768 PWs)   bands (ev):

   -58.8271 -58.8271 -33.2015 -33.2015 -32.9986 -32.9985 -32.9907 -32.9907
   -10.1575 -10.1089 -10.0271  -9.9964  -3.5188  -3.3807  -3.1492  -3.1394
    -2.1546  -1.8751  -1.2716  -1.0920  -0.4636  -0.3236  -0.0678   0.1589
     1.6098   1.6978   4.1124   4.1691   4.9578   5.0514   5.2582

     occupation numbers 
     1.0000   1.0000   1.0000   1.0000   1.0000   1.0000   1.0000   1.0000
     1.0000   1.0000   1.0000   1.0000   1.0000   1.0000   1.0000   1.0000
     1.0000   1.0000   1.0000   1.0000   1.0000   1.0000   1.0000   1.0000
     1.0000   1.0000   0.0000   0.0000   0.0000   0.0000   0.0000

          k = 0.2500 0.4330 0.0000 ( 14788 PWs)   bands (ev):

   -58.8294 -58.8294 -33.1622 -33.1622 -33.0115 -33.0115 -32.9953 -32.9953
   -10.3225 -10.2494 -10.0959 -10.0337  -3.2489  -3.1158  -2.9939  -2.9345
    -1.7547  -1.6904  -1.3888  -1.1164  -1.0025  -0.8641   0.2072   0.3910
     1.4327   1.4802   3.9999   4.2744   4.7198   4.8548   4.9218

     occupation numbers 
     1.0000   1.0000   1.0000   1.0000   1.0000   1.0000   1.0000   1.0000
     1.0000   1.0000   1.0000   1.0000   1.0000   1.0000   1.0000   1.0000
     1.0000   1.0000   1.0000   1.0000   1.0000   1.0000   1.0000   1.0000
     1.0000   1.0000   0.0000   0.0000   0.0000   0.0000   0.0000

          k = 0.2500 0.5292 0.0000 ( 14792 PWs)   bands (ev):

   -58.8258 -58.8258 -33.1670 -33.1670 -33.0498 -33.0498 -32.9882 -32.9881
   -10.0827 -10.0422  -9.9778  -9.9529  -3.3546  -3.2813  -3.0991  -3.0060
    -1.9752  -1.7952  -1.4037  -1.2578  -1.1205  -0.9313  -0.1332   0.0839
     1.7250   1.8045   3.8956   3.9503   4.8254   5.2115   5.2448

     occupation numbers 
     1.0000   1.0000   1.0000   1.0000   1.0000   1.0000   1.0000   1.0000
     1.0000   1.0000   1.0000   1.0000   1.0000   1.0000   1.0000   1.0000
     1.0000   1.0000   1.0000   1.0000   1.0000   1.0000   1.0000   1.0000
     1.0000   1.0000   0.0000   0.0000   0.0000   0.0000   0.0000

          k = 0.3333 0.5774 0.0000 ( 14790 PWs)   bands (ev):

   -58.8245 -58.8245 -33.1380 -33.1380 -33.0949 -33.0948 -32.9855 -32.9855
    -9.9808  -9.9808  -9.9249  -9.9249  -3.5010  -3.4192  -2.6743  -2.6743
    -2.1846  -2.0563  -1.6326  -1.6326  -0.9497  -0.9497  -0.1819  -0.1819
     1.9135   1.9946   3.6928   3.6928   4.7180   5.2196   5.4949

     occupation numbers 
     1.0000   1.0000   1.0000   1.0000   1.0000   1.0000   1.0000   1.0000
     1.0000   1.0000   1.0000   1.0000   1.0000   1.0000   1.0000   1.0000
     1.0000   1.0000   1.0000   1.0000   1.0000   1.0000   1.0000   1.0000
     1.0000   1.0000   0.0000   0.0000   0.0000   0.0000   0.0000

     the Fermi energy is     3.2402 ev

!    total energy              =    -369.77328332 Ry
     estimated scf accuracy    <       0.00000003 Ry
     smearing contrib. (-TS)   =      -0.00000000 Ry
     internal energy E=F+TS    =    -369.77328332 Ry

     The total energy is F=E-TS. E is the sum of the following terms:
     one-electron contribution =   -2784.31417472 Ry
     hartree contribution      =    1398.49136600 Ry
     xc contribution           =     -66.72350524 Ry
     ewald contribution        =    1082.77303065 Ry

     convergence has been achieved in  12 iterations

     Forces acting on atoms (cartesian axes, Ry/au):

     atom    1 type  2   force =     0.00000000    0.00000000   -0.00053342
     atom    2 type  2   force =     0.00000000    0.00000000    0.00053342
     atom    3 type  1   force =     0.00000000    0.00000000   -0.00586903
     atom    4 type  1   force =    -0.00000000   -0.00000000    0.00586903
     atom    5 type  1   force =    -0.00000000    0.00000000   -0.00062425
     atom    6 type  1   force =     0.00000000    0.00000000    0.00062425
     The non-local contrib.  to forces
     atom    1 type  2   force =     0.00000000   -0.00000000   -0.00197111
     atom    2 type  2   force =     0.00000000    0.00000000    0.00197111
     atom    3 type  1   force =     0.00000000   -0.00000000   -0.26935628
     atom    4 type  1   force =     0.00000000    0.00000000    0.26935628
     atom    5 type  1   force =     0.00000000    0.00000000   -0.26741571
     atom    6 type  1   force =     0.00000000   -0.00000000    0.26741571
     The ionic contribution  to forces
     atom    1 type  2   force =     0.00000912   -0.00000527  -75.39864117
     atom    2 type  2   force =    -0.00000912    0.00000527   75.39864117
     atom    3 type  1   force =    -0.00000463    0.00000268   -1.80205135
     atom    4 type  1   force =     0.00000463   -0.00000268    1.80205135
     atom    5 type  1   force =     0.00000457   -0.00000264   62.78580188
     atom    6 type  1   force =    -0.00000457    0.00000264  -62.78580188
     The local contribution  to forces
     atom    1 type  2   force =     0.00014604   -0.00001205   75.39952041
     atom    2 type  2   force =    -0.00008345    0.00012045  -75.39952041
     atom    3 type  1   force =    -0.00000376    0.00000543    2.05719890
     atom    4 type  1   force =     0.00000658   -0.00000054   -2.05719890
     atom    5 type  1   force =     0.00000663   -0.00000055  -62.52698502
     atom    6 type  1   force =    -0.00000379    0.00000547   62.52698502
     The core correction contribution to forces
     atom    1 type  2   force =    -0.00000308    0.00000025    0.00010139
     atom    2 type  2   force =     0.00000176   -0.00000254   -0.00010139
     atom    3 type  1   force =     0.00000051   -0.00000073    0.00810820
     atom    4 type  1   force =    -0.00000089    0.00000007   -0.00810820
     atom    5 type  1   force =    -0.00000089    0.00000007    0.00793951
     atom    6 type  1   force =     0.00000051   -0.00000073   -0.00793951
     The Hubbard contrib.    to forces
     atom    1 type  2   force =     0.00000000    0.00000000    0.00000000
     atom    2 type  2   force =     0.00000000    0.00000000    0.00000000
     atom    3 type  1   force =     0.00000000    0.00000000    0.00000000
     atom    4 type  1   force =     0.00000000    0.00000000    0.00000000
     atom    5 type  1   force =     0.00000000    0.00000000    0.00000000
     atom    6 type  1   force =     0.00000000    0.00000000    0.00000000
     The SCF correction term to forces
     atom    1 type  2   force =     0.00000000   -0.00000000    0.00045705
     atom    2 type  2   force =    -0.00000000    0.00000000   -0.00045705
     atom    3 type  1   force =    -0.00000000    0.00000000    0.00023150
     atom    4 type  1   force =     0.00000000   -0.00000000   -0.00023150
     atom    5 type  1   force =     0.00000000   -0.00000000    0.00003509
     atom    6 type  1   force =    -0.00000000    0.00000000   -0.00003509

     Total force =     0.008381     Total SCF correction =     0.000726


     Computing stress (Cartesian axis) and pressure

          total   stress  (Ry/bohr**3)                   (kbar)     P=        4.12
   0.00003668   0.00000000   0.00000000            5.40        0.00        0.00
   0.00000000   0.00003668   0.00000000            0.00        5.40        0.00
   0.00000000   0.00000000   0.00001075            0.00        0.00        1.58

     kinetic stress (kbar)   7876.71     -0.00     -0.00
                               -0.00   7876.71     -0.00
                               -0.00     -0.00   7923.93

     local   stress (kbar)-274367.93     -0.00     -0.00
                               -0.00-274367.94      0.00
                               -0.00      0.00 267027.18

     nonloc. stress (kbar)   6236.99     -0.00     -0.00
                               -0.00   6236.99      0.00
                               -0.00      0.00   6252.06

     hartree stress (kbar) 134791.18      0.00     -0.00
                                0.00 134791.18      0.00
                               -0.00      0.00-131522.60

     exc-cor stress (kbar)   -102.72      0.00      0.00
                                0.00   -102.72     -0.00
                                0.00     -0.00   -103.09

     corecor stress (kbar)  -1774.52     -0.00      0.00
                               -0.00  -1774.52     -0.00
                                0.00     -0.00  -1776.42

     ewald   stress (kbar) 127345.67      0.01      0.00
                                0.01 127345.68     -0.00
                                0.00     -0.00-147799.47

     hubbard stress (kbar)      0.00      0.00      0.00
                                0.00      0.00      0.00
                                0.00      0.00      0.00

     DFT-D   stress (kbar)      0.00      0.00      0.00
                                0.00      0.00      0.00
                                0.00      0.00      0.00

     XDM     stress (kbar)      0.00      0.00      0.00
                                0.00      0.00      0.00
                                0.00      0.00      0.00

     dft-nl  stress (kbar)      0.00      0.00      0.00
                                0.00      0.00      0.00
                                0.00      0.00      0.00

     TS-vdW  stress (kbar)      0.00      0.00      0.00
                                0.00      0.00      0.00
                                0.00      0.00      0.00

     MDB     stress (kbar)      0.00      0.00      0.00
                                0.00      0.00      0.00
                                0.00      0.00      0.00

     3D-RISM stress (kbar)      0.00      0.00      0.00
                                0.00      0.00      0.00
                                0.00      0.00      0.00


     Writing all to output data dir ./tmp/MoS2_2L_pbe_wsoc.save/

     init_run     :      1.65s CPU      1.45s WALL (       1 calls)
     electrons    :     42.11s CPU     32.45s WALL (       1 calls)
     forces       :      1.17s CPU      0.91s WALL (       1 calls)
     stress       :      5.57s CPU      5.57s WALL (       1 calls)

     Called by init_run:
     wfcinit      :      1.05s CPU      0.83s WALL (       1 calls)
     wfcinit:atom :      0.02s CPU      0.02s WALL (      19 calls)
     wfcinit:wfcr :      0.93s CPU      0.71s WALL (      19 calls)
     potinit      :      0.09s CPU      0.10s WALL (       1 calls)
     hinit0       :      0.35s CPU      0.36s WALL (       1 calls)

     Called by electrons:
     c_bands      :     39.05s CPU     29.22s WALL (      12 calls)
     sum_band     :      2.70s CPU      2.78s WALL (      12 calls)
     v_of_rho     :      0.27s CPU      0.31s WALL (      13 calls)
     v_h          :      0.02s CPU      0.02s WALL (      13 calls)
     v_xc         :      0.29s CPU      0.34s WALL (      15 calls)
     mix_rho      :      0.08s CPU      0.13s WALL (      12 calls)

     Called by c_bands:
     init_us_2    :      1.06s CPU      1.08s WALL (     513 calls)
     init_us_2:cp :      1.05s CPU      1.07s WALL (     513 calls)
     cegterg      :     36.75s CPU     26.87s WALL (     228 calls)

     Called by sum_band:
     sum_band:wei :      0.00s CPU      0.00s WALL (      12 calls)
     sum_band:loo :      2.67s CPU      2.74s WALL (      12 calls)
     sum_band:buf :      0.17s CPU      0.18s WALL (     228 calls)
     sum_band:ini :      0.47s CPU      0.48s WALL (     228 calls)

     Called by *egterg:
     cdiaghg      :      1.48s CPU      1.50s WALL (    1146 calls)
     cegterg:over :      3.99s CPU      2.47s WALL (     918 calls)
     cegterg:upda :      2.77s CPU      1.54s WALL (     918 calls)
     cegterg:last :      4.12s CPU      2.18s WALL (     489 calls)
     h_psi        :     23.71s CPU     18.27s WALL (    1165 calls)
     g_psi        :      0.15s CPU      0.17s WALL (     918 calls)

     Called by h_psi:
     h_psi:calbec :      6.75s CPU      3.77s WALL (    1165 calls)
     vloc_psi     :     10.55s CPU     10.92s WALL (    1165 calls)
     add_vuspsi   :      6.17s CPU      3.30s WALL (    1165 calls)

     General routines
     calbec       :      7.76s CPU      4.40s WALL (    1260 calls)
     fft          :      0.27s CPU      0.28s WALL (     154 calls)
     ffts         :      0.01s CPU      0.01s WALL (      12 calls)
     fftw         :     10.09s CPU     10.39s WALL (   45950 calls)

     Parallel routines

     PWSCF        :     50.75s CPU     40.73s WALL


   This run was terminated on:  12:59:37  18Apr2024            

=------------------------------------------------------------------------------=
   JOB DONE.
=------------------------------------------------------------------------------=
