
     Program PWSCF v.7.2 starts on  4Apr2024 at 10: 4:53 

     This program is part of the open-source Quantum ESPRESSO suite
     for quantum simulation of materials; please cite
         "P. Giannozzi et al., J. Phys.:Condens. Matter 21 395502 (2009);
         "P. Giannozzi et al., J. Phys.:Condens. Matter 29 465901 (2017);
         "P. Giannozzi et al., J. Chem. Phys. 152 154105 (2020);
          URL http://www.quantum-espresso.org", 
     in publications or presentations arising from this work. More details at
     http://www.quantum-espresso.org/quote

     Parallel version (MPI & OpenMP), running on       8 processor cores
     Number of MPI processes:                 8
     Threads/MPI process:                     1

     MPI processes distributed on     1 nodes
     0 MiB available memory on the printing compute node when the environment starts

     Waiting for input...
     Reading input from standard input

     Current dimensions of program PWSCF are:
     Max number of different atomic species (ntypx) = 10
     Max number of k-points (npk) =  40000
     Max angular momentum in pseudopotentials (lmaxx) =  4

     R & G space division:  proc/nbgrp/npool/nimage =       8
     Subspace diagonalization in iterative solution of the eigenvalue problem:
     a serial algorithm will be used


     Parallelization info
     --------------------
     sticks:   dense  smooth     PW     G-vecs:    dense   smooth      PW
     Min          59      59     18                 8471     8471    1422
     Max          60      60     19                 8504     8504    1439
     Sum         475     475    151                67863    67863   11451

     Using Slab Decomposition



     bravais-lattice index     =            4
     lattice parameter (alat)  =       4.6645  a.u.
     unit-cell volume          =     703.1169 (a.u.)^3
     number of atoms/cell      =            4
     number of atomic types    =            1
     number of electrons       =        16.00
     number of Kohn-Sham states=           12
     kinetic-energy cutoff     =      80.0000  Ry
     charge density cutoff     =     320.0000  Ry
     scf convergence threshold =      1.0E-06
     mixing beta               =       0.7000
     number of iterations used =            8  plain     mixing
     energy convergence thresh.=      1.0E-04
     force convergence thresh. =      1.0E-03
     press convergence thresh. =      5.0E-01
     Exchange-correlation= PZ
                           (   1   1   0   0   0   0   0)
     nstep                     =           50


     celldm(1)=   4.664470  celldm(2)=   0.000000  celldm(3)=   8.000000
     celldm(4)=   0.000000  celldm(5)=   0.000000  celldm(6)=   0.000000

     crystal axes: (cart. coord. in units of alat)
               a(1) = (   1.000000   0.000000   0.000000 )  
               a(2) = (  -0.500000   0.866025   0.000000 )  
               a(3) = (   0.000000   0.000000   8.000000 )  

     reciprocal axes: (cart. coord. in units 2 pi/alat)
               b(1) = (  1.000000  0.577350 -0.000000 )  
               b(2) = (  0.000000  1.154701  0.000000 )  
               b(3) = (  0.000000 -0.000000  0.125000 )  


     PseudoPot. # 1 for C  read from file:
     ../../../../Pseudo/LDA/C.upf
     MD5 check sum: 9ef9f0a1c6c947210c7947280cfb54e2
     Pseudo is Norm-conserving + core correction, Zval =  4.0
     Generated using ONCVPSP code by D. R. Hamann
     Using radial grid of 1230 points,  4 beta functions with: 
                l(1) =   0
                l(2) =   0
                l(3) =   1
                l(4) =   1

     atomic species   valence    mass     pseudopotential
        C              4.00    12.01100     C ( 1.00)

      6 Sym. Ops. (no inversion) found


                                    s                        frac. trans.

      isym =  1     identity                                     

 cryst.   s( 1) = (     1          0          0      )
                  (     0          1          0      )
                  (     0          0          1      )

 cart.    s( 1) = (  1.0000000  0.0000000  0.0000000 )
                  (  0.0000000  1.0000000  0.0000000 )
                  (  0.0000000  0.0000000  1.0000000 )


      isym =  2     120 deg rotation - cryst. axis [0,0,1]       

 cryst.   s( 2) = (     0          1          0      )
                  (    -1         -1          0      )
                  (     0          0          1      )

 cart.    s( 2) = ( -0.5000000 -0.8660254  0.0000000 )
                  (  0.8660254 -0.5000000  0.0000000 )
                  (  0.0000000  0.0000000  1.0000000 )


      isym =  3     120 deg rotation - cryst. axis [0,0,-1]      

 cryst.   s( 3) = (    -1         -1          0      )
                  (     1          0          0      )
                  (     0          0          1      )

 cart.    s( 3) = ( -0.5000000  0.8660254  0.0000000 )
                  ( -0.8660254 -0.5000000  0.0000000 )
                  (  0.0000000  0.0000000  1.0000000 )


      isym =  4     inv. 180 deg rotation - cart. axis [1,0,0]   

 cryst.   s( 4) = (    -1          0          0      )
                  (     1          1          0      )
                  (     0          0          1      )

 cart.    s( 4) = ( -1.0000000  0.0000000  0.0000000 )
                  (  0.0000000  1.0000000  0.0000000 )
                  (  0.0000000  0.0000000  1.0000000 )


      isym =  5     inv. 180 deg rotation - cryst. axis [0,1,0]  

 cryst.   s( 5) = (     1          1          0      )
                  (     0         -1          0      )
                  (     0          0          1      )

 cart.    s( 5) = (  0.5000000  0.8660254  0.0000000 )
                  (  0.8660254 -0.5000000  0.0000000 )
                  (  0.0000000  0.0000000  1.0000000 )


      isym =  6     inv. 180 deg rotation - cryst. axis [1,1,0]  

 cryst.   s( 6) = (     0         -1          0      )
                  (    -1          0          0      )
                  (     0          0          1      )

 cart.    s( 6) = (  0.5000000 -0.8660254  0.0000000 )
                  ( -0.8660254 -0.5000000  0.0000000 )
                  (  0.0000000  0.0000000  1.0000000 )


     point group C_3v (3m)  
     there are  3 classes
     the character table:

       E     2C3   3s_v 
A_1    1.00  1.00  1.00
A_2    1.00  1.00 -1.00
E      2.00 -1.00  0.00

     the symmetry operations in each class and the name of the first element:

     E        1
          identity                                               
     2C3      2    3
          120 deg rotation - cryst. axis [0,0,1]                 
     3s_v     4    5    6
          inv. 180 deg rotation - cart. axis [1,0,0]             

   Cartesian axes

     site n.     atom                  positions (alat units)
         1           C   tau(   1) = (   0.0000000   0.0000000   0.0000000  )
         2           C   tau(   2) = (   0.0000000   0.0000000   1.3401360  )
         3           C   tau(   3) = (   0.5000005   0.2886748   0.0000000  )
         4           C   tau(   4) = (  -0.0000005   0.5773506   1.3401360  )

   Crystallographic axes

     site n.     atom                  positions (cryst. coord.)
         1           C   tau(   1) = (  0.0000000  0.0000000  0.0000000  )
         2           C   tau(   2) = (  0.0000000  0.0000000  0.1675170  )
         3           C   tau(   3) = (  0.6666670  0.3333330  0.0000000  )
         4           C   tau(   4) = (  0.3333330  0.6666670  0.1675170  )

     number of k points=    19  Marzari-Vanderbilt smearing, width (Ry)=  0.0050
                       cart. coord. in units 2pi/alat
        k(    1) = (   0.0000000   0.0000000   0.0000000), wk =   0.0138889
        k(    2) = (   0.0000000   0.0962250   0.0000000), wk =   0.0833333
        k(    3) = (   0.0000000   0.1924501   0.0000000), wk =   0.0833333
        k(    4) = (   0.0000000   0.2886751   0.0000000), wk =   0.0833333
        k(    5) = (   0.0000000   0.3849002   0.0000000), wk =   0.0833333
        k(    6) = (   0.0000000   0.4811252   0.0000000), wk =   0.0833333
        k(    7) = (   0.0000000  -0.5773503   0.0000000), wk =   0.0416667
        k(    8) = (   0.0833333   0.1443376   0.0000000), wk =   0.0833333
        k(    9) = (   0.0833333   0.2405626   0.0000000), wk =   0.1666667
        k(   10) = (   0.0833333   0.3367877   0.0000000), wk =   0.1666667
        k(   11) = (   0.0833333   0.4330127   0.0000000), wk =   0.1666667
        k(   12) = (   0.0833333   0.5292377   0.0000000), wk =   0.1666667
        k(   13) = (   0.1666667   0.2886751   0.0000000), wk =   0.0833333
        k(   14) = (   0.1666667   0.3849002   0.0000000), wk =   0.1666667
        k(   15) = (   0.1666667   0.4811252   0.0000000), wk =   0.1666667
        k(   16) = (   0.1666667   0.5773503   0.0000000), wk =   0.0833333
        k(   17) = (   0.2500000   0.4330127   0.0000000), wk =   0.0833333
        k(   18) = (   0.2500000   0.5292377   0.0000000), wk =   0.1666667
        k(   19) = (   0.3333333   0.5773503   0.0000000), wk =   0.0277778

                       cryst. coord.
        k(    1) = (   0.0000000   0.0000000   0.0000000), wk =   0.0138889
        k(    2) = (   0.0000000   0.0833333   0.0000000), wk =   0.0833333
        k(    3) = (   0.0000000   0.1666667   0.0000000), wk =   0.0833333
        k(    4) = (   0.0000000   0.2500000   0.0000000), wk =   0.0833333
        k(    5) = (   0.0000000   0.3333333   0.0000000), wk =   0.0833333
        k(    6) = (   0.0000000   0.4166667   0.0000000), wk =   0.0833333
        k(    7) = (   0.0000000  -0.5000000   0.0000000), wk =   0.0416667
        k(    8) = (   0.0833333   0.0833333   0.0000000), wk =   0.0833333
        k(    9) = (   0.0833333   0.1666667   0.0000000), wk =   0.1666667
        k(   10) = (   0.0833333   0.2500000   0.0000000), wk =   0.1666667
        k(   11) = (   0.0833333   0.3333333   0.0000000), wk =   0.1666667
        k(   12) = (   0.0833333   0.4166667   0.0000000), wk =   0.1666667
        k(   13) = (   0.1666667   0.1666667   0.0000000), wk =   0.0833333
        k(   14) = (   0.1666667   0.2500000   0.0000000), wk =   0.1666667
        k(   15) = (   0.1666667   0.3333333   0.0000000), wk =   0.1666667
        k(   16) = (   0.1666667   0.4166667   0.0000000), wk =   0.0833333
        k(   17) = (   0.2500000   0.2500000   0.0000000), wk =   0.0833333
        k(   18) = (   0.2500000   0.3333333   0.0000000), wk =   0.1666667
        k(   19) = (   0.3333333   0.3333333   0.0000000), wk =   0.0277778

     Dense  grid:    67863 G-vectors     FFT dimensions: (  27,  27, 216)

     Dynamical RAM for                 wfc:       0.19 MB

     Dynamical RAM for     wfc (w. buffer):       3.89 MB

     Dynamical RAM for           str. fact:       0.13 MB

     Dynamical RAM for           local pot:       0.00 MB

     Dynamical RAM for          nlocal pot:       0.52 MB

     Dynamical RAM for                qrad:       0.82 MB

     Dynamical RAM for          rho,v,vnew:       0.84 MB

     Dynamical RAM for               rhoin:       0.28 MB

     Dynamical RAM for            rho*nmix:       2.07 MB

     Dynamical RAM for           G-vectors:       0.55 MB

     Dynamical RAM for          h,s,v(r/c):       0.03 MB

     Dynamical RAM for          <psi|beta>:       0.01 MB

     Dynamical RAM for                 psi:       0.39 MB

     Dynamical RAM for                hpsi:       0.39 MB

     Dynamical RAM for      wfcinit/wfcrot:       0.52 MB

     Estimated static dynamical RAM per process >       8.03 MB

     Estimated max dynamical RAM per process >      10.91 MB

     Estimated total dynamical RAM >      87.30 MB

     Initial potential from superposition of free atoms

     starting charge      15.9998, renormalised to      16.0000

     negative rho (up, down):  3.266E-05 0.000E+00
     Starting wfcs are   16 randomized atomic wfcs

     total cpu time spent up to now is        0.9 secs

     Self-consistent Calculation

     iteration #  1     ecut=    80.00 Ry     beta= 0.70
     Davidson diagonalization with overlap

---- Real-time Memory Report at c_bands before calling an iterative solver
             0 MiB given to the printing process from OS
             0 MiB allocation reported by mallinfo(arena+hblkhd)
             0 MiB available memory on the node where the printing process lives
------------------
     ethr =  1.00E-02,  avg # of iterations =  3.5

     negative rho (up, down):  1.520E-08 0.000E+00

     total cpu time spent up to now is        1.7 secs

     total energy              =     -48.19952071 Ry
     estimated scf accuracy    <       0.36432429 Ry

     iteration #  2     ecut=    80.00 Ry     beta= 0.70
     Davidson diagonalization with overlap

---- Real-time Memory Report at c_bands before calling an iterative solver
             0 MiB given to the printing process from OS
             0 MiB allocation reported by mallinfo(arena+hblkhd)
             0 MiB available memory on the node where the printing process lives
------------------
     ethr =  2.28E-03,  avg # of iterations =  4.2

     total cpu time spent up to now is        2.4 secs

     total energy              =     -48.24631641 Ry
     estimated scf accuracy    <       0.00443212 Ry

     iteration #  3     ecut=    80.00 Ry     beta= 0.70
     Davidson diagonalization with overlap

---- Real-time Memory Report at c_bands before calling an iterative solver
             0 MiB given to the printing process from OS
             0 MiB allocation reported by mallinfo(arena+hblkhd)
             0 MiB available memory on the node where the printing process lives
------------------
     c_bands:  1 eigenvalues not converged
     c_bands:  1 eigenvalues not converged
     ethr =  2.77E-05,  avg # of iterations = 10.8

     total cpu time spent up to now is        3.7 secs

     total energy              =     -48.24748620 Ry
     estimated scf accuracy    <       0.00107956 Ry

     iteration #  4     ecut=    80.00 Ry     beta= 0.70
     Davidson diagonalization with overlap

---- Real-time Memory Report at c_bands before calling an iterative solver
             0 MiB given to the printing process from OS
             0 MiB allocation reported by mallinfo(arena+hblkhd)
             0 MiB available memory on the node where the printing process lives
------------------
     c_bands:  1 eigenvalues not converged
     ethr =  6.75E-06,  avg # of iterations =  7.4

     total cpu time spent up to now is        4.6 secs

     total energy              =     -48.24759455 Ry
     estimated scf accuracy    <       0.00093023 Ry

     iteration #  5     ecut=    80.00 Ry     beta= 0.70
     Davidson diagonalization with overlap

---- Real-time Memory Report at c_bands before calling an iterative solver
             0 MiB given to the printing process from OS
             0 MiB allocation reported by mallinfo(arena+hblkhd)
             0 MiB available memory on the node where the printing process lives
------------------
     ethr =  5.81E-06,  avg # of iterations =  6.3

     total cpu time spent up to now is        5.5 secs

     WARNING: integrated charge=    16.00005513, expected=    16.00000000

     total energy              =     -48.24779116 Ry
     estimated scf accuracy    <       0.00194614 Ry

     iteration #  6     ecut=    80.00 Ry     beta= 0.70
     Davidson diagonalization with overlap

---- Real-time Memory Report at c_bands before calling an iterative solver
             0 MiB given to the printing process from OS
             0 MiB allocation reported by mallinfo(arena+hblkhd)
             0 MiB available memory on the node where the printing process lives
------------------
     ethr =  5.81E-06,  avg # of iterations =  3.5

     total cpu time spent up to now is        6.2 secs

     WARNING: integrated charge=    16.00000719, expected=    16.00000000

     total energy              =     -48.24786265 Ry
     estimated scf accuracy    <       0.00008532 Ry

     iteration #  7     ecut=    80.00 Ry     beta= 0.70
     Davidson diagonalization with overlap

---- Real-time Memory Report at c_bands before calling an iterative solver
             0 MiB given to the printing process from OS
             0 MiB allocation reported by mallinfo(arena+hblkhd)
             0 MiB available memory on the node where the printing process lives
------------------
     ethr =  5.33E-07,  avg # of iterations =  2.2

     total cpu time spent up to now is        6.7 secs

     WARNING: integrated charge=    15.99999665, expected=    16.00000000

     total energy              =     -48.24787051 Ry
     estimated scf accuracy    <       0.00000311 Ry

     iteration #  8     ecut=    80.00 Ry     beta= 0.70
     Davidson diagonalization with overlap

---- Real-time Memory Report at c_bands before calling an iterative solver
             0 MiB given to the printing process from OS
             0 MiB allocation reported by mallinfo(arena+hblkhd)
             0 MiB available memory on the node where the printing process lives
------------------
     ethr =  1.95E-08,  avg # of iterations =  2.3

     total cpu time spent up to now is        7.4 secs

     WARNING: integrated charge=    16.00000509, expected=    16.00000000

     total energy              =     -48.24787022 Ry
     estimated scf accuracy    <       0.00000377 Ry

     iteration #  9     ecut=    80.00 Ry     beta= 0.70
     Davidson diagonalization with overlap

---- Real-time Memory Report at c_bands before calling an iterative solver
             0 MiB given to the printing process from OS
             0 MiB allocation reported by mallinfo(arena+hblkhd)
             0 MiB available memory on the node where the printing process lives
------------------
     ethr =  1.95E-08,  avg # of iterations =  1.0

     total cpu time spent up to now is        7.9 secs

     total energy              =     -48.24787069 Ry
     estimated scf accuracy    <       0.00000115 Ry

     iteration # 10     ecut=    80.00 Ry     beta= 0.70
     Davidson diagonalization with overlap

---- Real-time Memory Report at c_bands before calling an iterative solver
             0 MiB given to the printing process from OS
             0 MiB allocation reported by mallinfo(arena+hblkhd)
             0 MiB available memory on the node where the printing process lives
------------------
     ethr =  7.22E-09,  avg # of iterations =  1.0

     total cpu time spent up to now is        8.4 secs

     End of self-consistent calculation

          k = 0.0000 0.0000 0.0000 (  8603 PWs)   bands (ev):

   -20.1053 -19.9260  -8.9011  -7.8089  -3.7468  -3.7467  -3.7359  -3.7358
     2.8138   3.3345   4.1200   5.3031

     occupation numbers 
     1.0000   1.0000   1.0000   1.0000   1.0000   1.0000   1.0000   1.0000
     0.0000   0.0000   0.0000   0.0000

          k = 0.0000 0.0962 0.0000 (  8567 PWs)   bands (ev):

   -19.9417 -19.7643  -8.7017  -7.6164  -4.3883  -4.3685  -4.0890  -4.0722
     3.0315   3.5559   4.3454   5.5263

     occupation numbers 
     1.0000   1.0000   1.0000   1.0000   1.0000   1.0000   1.0000   1.0000
     0.0000   0.0000   0.0000   0.0000

          k = 0.0000 0.1925 0.0000 (  8545 PWs)   bands (ev):

   -19.4528 -19.2807  -8.1083  -7.0449  -6.0073  -5.9694  -4.8870  -4.8631
     3.6845   4.2181   5.0217   6.1940

     occupation numbers 
     1.0000   1.0000   1.0000   1.0000   1.0000   1.0000   1.0000   1.0000
     0.0000   0.0000   0.0000   0.0000

          k = 0.0000 0.2887 0.0000 (  8492 PWs)   bands (ev):

   -18.6439 -18.4808  -8.0889  -8.0301  -7.1375  -6.1158  -5.7714  -5.7430
     4.7683   5.2968   6.1426   6.2717

     occupation numbers 
     1.0000   1.0000   1.0000   1.0000   1.0000   1.0000   1.0000   1.0000
     0.0000   0.0000   0.0000   0.0000

          k = 0.0000 0.3849 0.0000 (  8472 PWs)   bands (ev):

   -17.5266 -17.3756 -10.2801 -10.2007  -6.5080  -6.4770  -5.8326  -4.8875
     3.8718   4.3850   6.2626   6.8260

     occupation numbers 
     1.0000   1.0000   1.0000   1.0000   1.0000   1.0000   1.0000   1.0000
     0.0000   0.0000   0.0000   0.0000

          k = 0.0000 0.4811 0.0000 (  8484 PWs)   bands (ev):

   -16.1272 -15.9923 -12.3761 -12.2787  -6.9828  -6.9506  -4.3278  -3.5588
     1.7263   2.2938   6.7294   6.9508

     occupation numbers 
     1.0000   1.0000   1.0000   1.0000   1.0000   1.0000   1.0000   1.0000
     0.0000   0.0000   0.0000   0.0000

          k = 0.0000-0.5774 0.0000 (  8450 PWs)   bands (ev):

   -14.7935 -14.7265 -13.8923 -13.8416  -7.1459  -7.1132  -3.3183  -2.9187
     0.7387   1.1326   6.6479   6.8825

     occupation numbers 
     1.0000   1.0000   1.0000   1.0000   1.0000   1.0000   1.0000   1.0000
     0.0000   0.0000   0.0000   0.0000

          k = 0.0833 0.1443 0.0000 (  8561 PWs)   bands (ev):

   -19.6155 -19.4416  -8.3052  -7.2343  -5.4012  -5.3822  -4.7662  -4.7522
     3.4672   3.9980   4.7964   5.9725

     occupation numbers 
     1.0000   1.0000   1.0000   1.0000   1.0000   1.0000   1.0000   1.0000
     0.0000   0.0000   0.0000   0.0000

          k = 0.0833 0.2406 0.0000 (  8508 PWs)   bands (ev):

   -18.9666 -18.7999  -7.5224  -7.0951  -7.0547  -6.4824  -5.7708  -5.7444
     4.3372   4.8774   5.6980   6.8551

     occupation numbers 
     1.0000   1.0000   1.0000   1.0000   1.0000   1.0000   1.0000   1.0000
     0.0000   0.0000   0.0000   0.0000

          k = 0.0833 0.3368 0.0000 (  8491 PWs)   bands (ev):

   -18.0035 -17.8473  -9.1580  -9.0924  -6.6603  -6.6251  -6.3792  -5.3959
     4.9334   5.3358   5.6345   6.2140

     occupation numbers 
     1.0000   1.0000   1.0000   1.0000   1.0000   1.0000   1.0000   1.0000
     0.0000   0.0000   0.0000   0.0000

          k = 0.0833 0.4330 0.0000 (  8467 PWs)   bands (ev):

   -16.7432 -16.6009 -11.2740 -11.1872  -7.2963  -7.2572  -4.9475  -4.0739
     2.6895   3.2101   7.3049   7.5321

     occupation numbers 
     1.0000   1.0000   1.0000   1.0000   1.0000   1.0000   1.0000   1.0000
     0.0000   0.0000   0.0000   0.0000

          k = 0.0833 0.5292 0.0000 (  8469 PWs)   bands (ev):

   -15.2468 -15.1271 -13.2216 -13.1235  -7.6252  -7.5846  -3.5042  -2.9277
     0.9762   1.4304   7.3610   7.6051

     occupation numbers 
     1.0000   1.0000   1.0000   1.0000   1.0000   1.0000   1.0000   1.0000
     0.0000   0.0000   0.0000   0.0000

          k = 0.1667 0.2887 0.0000 (  8483 PWs)   bands (ev):

   -18.1635 -18.0056  -8.3931  -8.3609  -7.1334  -7.1099  -6.5638  -5.5685
     5.4152   5.4516   5.7128   5.9721

     occupation numbers 
     1.0000   1.0000   1.0000   1.0000   1.0000   1.0000   1.0000   1.0000
     0.0000   0.0000   0.0000   0.0000

          k = 0.1667 0.3849 0.0000 (  8505 PWs)   bands (ev):

   -17.0568 -16.9109 -10.1187 -10.0560  -8.1931  -8.1495  -5.2738  -4.3557
     3.4766   3.8324   6.9218   7.4669

     occupation numbers 
     1.0000   1.0000   1.0000   1.0000   1.0000   1.0000   1.0000   1.0000
     0.0000   0.0000   0.0000   0.0000

          k = 0.1667 0.4811 0.0000 (  8491 PWs)   bands (ev):

   -15.6773 -15.5477 -12.0361 -11.9475  -8.7662  -8.7117  -3.7718  -3.0155
     1.5450   1.9744   8.7904   9.1081

     occupation numbers 
     1.0000   1.0000   1.0000   1.0000   1.0000   1.0000   1.0000   1.0000
     0.0000   0.0000   0.0000   0.0000

          k = 0.1667 0.5774 0.0000 (  8478 PWs)   bands (ev):

   -14.3796 -14.3154 -13.4792 -13.4338  -8.9496  -8.8927  -2.7210  -2.3280
     0.6219   0.8159   9.0690   9.3882

     occupation numbers 
     1.0000   1.0000   1.0000   1.0000   1.0000   1.0000   1.0000   1.0000
     0.0000   0.0000   0.0000   0.0000

          k = 0.2500 0.4330 0.0000 (  8483 PWs)   bands (ev):

   -15.8275 -15.6957 -11.1121 -11.0671  -9.6830  -9.6491  -3.8806  -3.0692
     1.8854   2.2242   8.5944   8.9889

     occupation numbers 
     1.0000   1.0000   1.0000   1.0000   1.0000   1.0000   1.0000   1.0000
     0.0000   0.0000   0.0000   0.0000

          k = 0.2500 0.5292 0.0000 (  8484 PWs)   bands (ev):

   -14.3905 -14.2816 -12.5532 -12.4774 -10.3942 -10.3348  -2.3938  -1.8139
     0.4019   0.7106   9.8258   9.9727

     occupation numbers 
     1.0000   1.0000   1.0000   1.0000   1.0000   1.0000   1.0000   1.0000
     0.0000   0.0000   0.0000   0.0000

          k = 0.3333 0.5774 0.0000 (  8478 PWs)   bands (ev):

   -13.1715 -13.1123 -13.1122 -13.0589 -11.3051 -11.3051  -1.1162  -0.7495
    -0.7493  -0.3585   9.6003   9.6003

     occupation numbers 
     1.0000   1.0000   1.0000   1.0000   1.0000   1.0000   1.0000   0.5008
     0.4992   0.0000   0.0000   0.0000

     the Fermi energy is    -0.7399 ev

!    total energy              =     -48.24787077 Ry
     estimated scf accuracy    <          5.4E-09 Ry
     smearing contrib. (-TS)   =      -0.00004558 Ry
     internal energy E=F+TS    =     -48.24782519 Ry

     The total energy is F=E-TS. E is the sum of the following terms:
     one-electron contribution =    -529.24996101 Ry
     hartree contribution      =     268.24687613 Ry
     xc contribution           =     -17.07092835 Ry
     ewald contribution        =     229.82618804 Ry

     convergence has been achieved in  10 iterations

     Forces acting on atoms (cartesian axes, Ry/au):

     atom    1 type  1   force =     0.00000000    0.00000000    0.00069865
     atom    2 type  1   force =     0.00000000    0.00000000   -0.00070277
     atom    3 type  1   force =     0.00000000    0.00000000   -0.00054995
     atom    4 type  1   force =     0.00000000   -0.00000000    0.00055407
     The non-local contrib.  to forces
     atom    1 type  1   force =     0.00000000    0.00000000    0.00057489
     atom    2 type  1   force =     0.00000000    0.00000000   -0.00054843
     atom    3 type  1   force =     0.00000000    0.00000000   -0.00103642
     atom    4 type  1   force =     0.00000000    0.00000000    0.00106218
     The ionic contribution  to forces
     atom    1 type  1   force =     0.00000851   -0.00000491  -14.19328446
     atom    2 type  1   force =    -0.00000851    0.00000491   14.19328446
     atom    3 type  1   force =    -0.00000852    0.00000492  -14.18753220
     atom    4 type  1   force =     0.00000852   -0.00000492   14.18753220
     The local contribution  to forces
     atom    1 type  1   force =     0.00000000    0.00000000   14.19339607
     atom    2 type  1   force =    -0.00000000   -0.00000000  -14.19356864
     atom    3 type  1   force =    -0.00000681    0.00000393   14.18793721
     atom    4 type  1   force =     0.00000681   -0.00000393  -14.18810125
     The core correction contribution to forces
     atom    1 type  1   force =    -0.00000000    0.00000000   -0.00006495
     atom    2 type  1   force =     0.00000000   -0.00000000    0.00006361
     atom    3 type  1   force =     0.00000029   -0.00000017    0.00000440
     atom    4 type  1   force =    -0.00000029    0.00000017   -0.00000532
     The Hubbard contrib.    to forces
     atom    1 type  1   force =     0.00000000    0.00000000    0.00000000
     atom    2 type  1   force =     0.00000000    0.00000000    0.00000000
     atom    3 type  1   force =     0.00000000    0.00000000    0.00000000
     atom    4 type  1   force =     0.00000000    0.00000000    0.00000000
     The SCF correction term to forces
     atom    1 type  1   force =    -0.00000000    0.00000000    0.00000000
     atom    2 type  1   force =     0.00000000   -0.00000000    0.00006824
     atom    3 type  1   force =     0.00000000   -0.00000000    0.00000000
     atom    4 type  1   force =     0.00000000   -0.00000000    0.00006829

     Total force =     0.000895     Total SCF correction =     0.000097
     SCF correction compared to forces is large: reduce conv_thr to get better values


     Computing stress (Cartesian axis) and pressure

          total   stress  (Ry/bohr**3)                   (kbar)     P=      -22.07
  -0.00022096   0.00000000   0.00000000          -32.50        0.00        0.00
   0.00000000  -0.00022096   0.00000000            0.00      -32.50        0.00
   0.00000000   0.00000000  -0.00000817            0.00        0.00       -1.20

     kinetic stress (kbar)   4554.69      0.00      0.00
                                0.00   4554.69      0.00
                                0.00      0.00   5009.68

     local   stress (kbar)-115129.94      0.00     -0.00
                                0.00-115129.94      0.00
                               -0.00      0.00 116515.39

     nonloc. stress (kbar)   -542.23      0.00      0.00
                                0.00   -542.23      0.00
                                0.00      0.00   -456.63

     hartree stress (kbar)  55779.60      0.00     -0.00
                                0.00  55779.60     -0.00
                               -0.00     -0.00 -55436.98

     exc-cor stress (kbar)   -351.16      0.00      0.00
                                0.00   -351.16      0.00
                                0.00      0.00   -351.16

     corecor stress (kbar)   -689.90      0.00      0.00
                                0.00   -689.90     -0.00
                                0.00     -0.00   -672.51

     ewald   stress (kbar)  56346.45     -0.01      0.00
                               -0.01  56346.44     -0.00
                                0.00     -0.00 -64608.99

     hubbard stress (kbar)      0.00      0.00      0.00
                                0.00      0.00      0.00
                                0.00      0.00      0.00

     DFT-D   stress (kbar)      0.00      0.00      0.00
                                0.00      0.00      0.00
                                0.00      0.00      0.00

     XDM     stress (kbar)      0.00      0.00      0.00
                                0.00      0.00      0.00
                                0.00      0.00      0.00

     dft-nl  stress (kbar)      0.00      0.00      0.00
                                0.00      0.00      0.00
                                0.00      0.00      0.00

     TS-vdW  stress (kbar)      0.00      0.00      0.00
                                0.00      0.00      0.00
                                0.00      0.00      0.00

     MDB     stress (kbar)      0.00      0.00      0.00
                                0.00      0.00      0.00
                                0.00      0.00      0.00

     3D-RISM stress (kbar)      0.00      0.00      0.00
                                0.00      0.00      0.00
                                0.00      0.00      0.00


     BFGS Geometry Optimization
     Energy error            =      0.0E+00 Ry
     Gradient error          =      7.0E-04 Ry/Bohr
     Cell gradient error     =      3.3E+01 kbar

     number of scf cycles    =   1
     number of bfgs steps    =   0

     enthalpy           new  =     -48.2478707678 Ry

     new trust radius        =       0.0292946126 bohr
     new conv_thr            =       0.0000010000 Ry

     new unit-cell volume =    695.22844 a.u.^3 (   103.02223 Ang^3 )
     density =      0.77439 g/cm^3

CELL_PARAMETERS (alat=  4.66447000)
   0.994476123   0.000000000   0.000000000
  -0.497238062   0.861241586   0.000000000
   0.000000000   0.000000000   7.998365801

ATOMIC_POSITIONS (crystal)
C             0.0000000000        0.0000000000        0.0000000000    0   0   0
C             0.0000000000        0.0000000000        0.1674981669    0   0   1
C             0.6666670000        0.3333330000        0.0000000000    0   0   0
C             0.3333330000        0.6666670000        0.1675318482    0   0   1



     Writing config-only to output data dir ./tmp/C2L_AB_LDA.save/
     NEW-OLD atomic charge density approx. for the potential

     negative rho (up, down):  1.308E-06 0.000E+00
     extrapolated charge   15.81846, renormalised to   16.00000

     total cpu time spent up to now is        9.8 secs

     Self-consistent Calculation

     iteration #  1     ecut=    80.00 Ry     beta= 0.70
     Davidson diagonalization with overlap

---- Real-time Memory Report at c_bands before calling an iterative solver
             0 MiB given to the printing process from OS
             0 MiB allocation reported by mallinfo(arena+hblkhd)
             0 MiB available memory on the node where the printing process lives
------------------
     c_bands:  1 eigenvalues not converged
     c_bands:  2 eigenvalues not converged
     c_bands:  3 eigenvalues not converged
     c_bands:  1 eigenvalues not converged
     c_bands:  3 eigenvalues not converged
     c_bands:  2 eigenvalues not converged
     c_bands:  1 eigenvalues not converged
     c_bands:  1 eigenvalues not converged
     c_bands:  1 eigenvalues not converged
     c_bands:  1 eigenvalues not converged
     c_bands:  1 eigenvalues not converged
     ethr =  1.00E-06,  avg # of iterations = 16.3

     negative rho (up, down):  3.411E-07 0.000E+00

     total cpu time spent up to now is       11.8 secs

     total energy              =     -48.21029037 Ry
     estimated scf accuracy    <       0.02896694 Ry

     iteration #  2     ecut=    80.00 Ry     beta= 0.70
     Davidson diagonalization with overlap

---- Real-time Memory Report at c_bands before calling an iterative solver
             0 MiB given to the printing process from OS
             0 MiB allocation reported by mallinfo(arena+hblkhd)
             0 MiB available memory on the node where the printing process lives
------------------
     ethr =  1.81E-04,  avg # of iterations =  9.2

     negative rho (up, down):  1.090E-07 0.000E+00

     total cpu time spent up to now is       13.1 secs

     total energy              =     -48.23958948 Ry
     estimated scf accuracy    <       0.13614981 Ry

     iteration #  3     ecut=    80.00 Ry     beta= 0.70
     Davidson diagonalization with overlap

---- Real-time Memory Report at c_bands before calling an iterative solver
             0 MiB given to the printing process from OS
             0 MiB allocation reported by mallinfo(arena+hblkhd)
             0 MiB available memory on the node where the printing process lives
------------------
     ethr =  1.81E-04,  avg # of iterations =  3.0

     negative rho (up, down):  5.773E-08 0.000E+00

     total cpu time spent up to now is       13.9 secs

     total energy              =     -48.24937749 Ry
     estimated scf accuracy    <       0.01357752 Ry

     iteration #  4     ecut=    80.00 Ry     beta= 0.70
     Davidson diagonalization with overlap

---- Real-time Memory Report at c_bands before calling an iterative solver
             0 MiB given to the printing process from OS
             0 MiB allocation reported by mallinfo(arena+hblkhd)
             0 MiB available memory on the node where the printing process lives
------------------
     ethr =  8.49E-05,  avg # of iterations =  2.7

     negative rho (up, down):  4.333E-08 0.000E+00

     total cpu time spent up to now is       14.5 secs

     total energy              =     -48.24968189 Ry
     estimated scf accuracy    <       0.00512574 Ry

     iteration #  5     ecut=    80.00 Ry     beta= 0.70
     Davidson diagonalization with overlap

---- Real-time Memory Report at c_bands before calling an iterative solver
             0 MiB given to the printing process from OS
             0 MiB allocation reported by mallinfo(arena+hblkhd)
             0 MiB available memory on the node where the printing process lives
------------------
     ethr =  3.20E-05,  avg # of iterations =  3.0

     negative rho (up, down):  2.634E-08 0.000E+00

     total cpu time spent up to now is       15.3 secs

     total energy              =     -48.24937996 Ry
     estimated scf accuracy    <       0.00306449 Ry

     iteration #  6     ecut=    80.00 Ry     beta= 0.70
     Davidson diagonalization with overlap

---- Real-time Memory Report at c_bands before calling an iterative solver
             0 MiB given to the printing process from OS
             0 MiB allocation reported by mallinfo(arena+hblkhd)
             0 MiB available memory on the node where the printing process lives
------------------
     ethr =  1.92E-05,  avg # of iterations =  2.3

     negative rho (up, down):  1.696E-08 0.000E+00

     total cpu time spent up to now is       15.9 secs

     total energy              =     -48.24899661 Ry
     estimated scf accuracy    <       0.00170992 Ry

     iteration #  7     ecut=    80.00 Ry     beta= 0.70
     Davidson diagonalization with overlap

---- Real-time Memory Report at c_bands before calling an iterative solver
             0 MiB given to the printing process from OS
             0 MiB allocation reported by mallinfo(arena+hblkhd)
             0 MiB available memory on the node where the printing process lives
------------------
     ethr =  1.07E-05,  avg # of iterations =  4.5

     total cpu time spent up to now is       16.6 secs

     total energy              =     -48.24888466 Ry
     estimated scf accuracy    <       0.00045559 Ry

     iteration #  8     ecut=    80.00 Ry     beta= 0.70
     Davidson diagonalization with overlap

---- Real-time Memory Report at c_bands before calling an iterative solver
             0 MiB given to the printing process from OS
             0 MiB allocation reported by mallinfo(arena+hblkhd)
             0 MiB available memory on the node where the printing process lives
------------------
     ethr =  2.85E-06,  avg # of iterations =  5.7

     total cpu time spent up to now is       17.5 secs

     total energy              =     -48.24896603 Ry
     estimated scf accuracy    <       0.00000544 Ry

     iteration #  9     ecut=    80.00 Ry     beta= 0.70
     Davidson diagonalization with overlap

---- Real-time Memory Report at c_bands before calling an iterative solver
             0 MiB given to the printing process from OS
             0 MiB allocation reported by mallinfo(arena+hblkhd)
             0 MiB available memory on the node where the printing process lives
------------------
     ethr =  3.40E-08,  avg # of iterations =  3.8

     total cpu time spent up to now is       18.2 secs

     total energy              =     -48.24896882 Ry
     estimated scf accuracy    <       0.00000131 Ry

     iteration # 10     ecut=    80.00 Ry     beta= 0.70
     Davidson diagonalization with overlap

---- Real-time Memory Report at c_bands before calling an iterative solver
             0 MiB given to the printing process from OS
             0 MiB allocation reported by mallinfo(arena+hblkhd)
             0 MiB available memory on the node where the printing process lives
------------------
     ethr =  8.17E-09,  avg # of iterations =  1.3

     total cpu time spent up to now is       18.7 secs

     End of self-consistent calculation

          k = 0.0000 0.0000 0.0000 (  8603 PWs)   bands (ev):

   -20.1567 -19.9785  -8.9313  -7.8441  -3.6588  -3.6587  -3.6481  -3.6481
     2.8359   3.3585   4.1469   5.3299

     occupation numbers 
     1.0000   1.0000   1.0000   1.0000   1.0000   1.0000   1.0000   1.0000
     0.0000   0.0000   0.0000   0.0000

          k = 0.0000 0.0968 0.0000 (  8567 PWs)   bands (ev):

   -19.9915 -19.8152  -8.7293  -7.6489  -4.3045  -4.2851  -4.0070  -3.9906
     3.0559   3.5824   4.3748   5.5557

     occupation numbers 
     1.0000   1.0000   1.0000   1.0000   1.0000   1.0000   1.0000   1.0000
     0.0000   0.0000   0.0000   0.0000

          k = 0.0000 0.1935 0.0000 (  8545 PWs)   bands (ev):

   -19.4978 -19.3269  -8.1281  -7.0692  -5.9357  -5.8985  -4.8182  -4.7948
     3.7160   4.2524   5.0586   6.2313

     occupation numbers 
     1.0000   1.0000   1.0000   1.0000   1.0000   1.0000   1.0000   1.0000
     0.0000   0.0000   0.0000   0.0000

          k = 0.0000 0.2903 0.0000 (  8492 PWs)   bands (ev):

   -18.6810 -18.5191  -8.0351  -7.9773  -7.1441  -6.1265  -5.7162  -5.6885
     4.8119   5.3463   6.1935   6.4572

     occupation numbers 
     1.0000   1.0000   1.0000   1.0000   1.0000   1.0000   1.0000   1.0000
     0.0000   0.0000   0.0000   0.0000

          k = 0.0000 0.3870 0.0000 (  8472 PWs)   bands (ev):

   -17.5523 -17.4025 -10.2468 -10.1684  -6.4638  -6.4336  -5.8212  -4.8793
     4.0178   4.5324   6.3257   6.9179

     occupation numbers 
     1.0000   1.0000   1.0000   1.0000   1.0000   1.0000   1.0000   1.0000
     0.0000   0.0000   0.0000   0.0000

          k = 0.0000 0.4838 0.0000 (  8484 PWs)   bands (ev):

   -16.1370 -16.0031 -12.3651 -12.2686  -6.9455  -6.9140  -4.2945  -3.5273
     1.8337   2.4031   6.9755   7.1952

     occupation numbers 
     1.0000   1.0000   1.0000   1.0000   1.0000   1.0000   1.0000   1.0000
     0.0000   0.0000   0.0000   0.0000

          k = 0.0000-0.5806 0.0000 (  8450 PWs)   bands (ev):

   -14.7690 -14.7026 -13.9181 -13.8680  -7.1108  -7.0790  -3.2692  -2.8717
     0.8244   1.2213   6.8969   7.1316

     occupation numbers 
     1.0000   1.0000   1.0000   1.0000   1.0000   1.0000   1.0000   1.0000
     0.0000   0.0000   0.0000   0.0000

          k = 0.0838 0.1451 0.0000 (  8561 PWs)   bands (ev):

   -19.6621 -19.4894  -8.3276  -7.2613  -5.3236  -5.3051  -4.6958  -4.6821
     3.4964   4.0297   4.8309   6.0070

     occupation numbers 
     1.0000   1.0000   1.0000   1.0000   1.0000   1.0000   1.0000   1.0000
     0.0000   0.0000   0.0000   0.0000

          k = 0.0838 0.2419 0.0000 (  8508 PWs)   bands (ev):

   -19.0069 -18.8414  -7.5343  -7.0307  -6.9909  -6.4986  -5.7152  -5.6893
     4.3760   4.9194   5.7425   6.9026

     occupation numbers 
     1.0000   1.0000   1.0000   1.0000   1.0000   1.0000   1.0000   1.0000
     0.0000   0.0000   0.0000   0.0000

          k = 0.0838 0.3387 0.0000 (  8491 PWs)   bands (ev):

   -18.0342 -17.8792  -9.1126  -9.0479  -6.6163  -6.5818  -6.3755  -5.3958
     5.0990   5.5034   5.6882   6.2749

     occupation numbers 
     1.0000   1.0000   1.0000   1.0000   1.0000   1.0000   1.0000   1.0000
     0.0000   0.0000   0.0000   0.0000

          k = 0.0838 0.4354 0.0000 (  8467 PWs)   bands (ev):

   -16.7606 -16.6194 -11.2499 -11.1640  -7.2603  -7.2221  -4.9235  -4.0525
     2.8167   3.3387   7.3919   7.7605

     occupation numbers 
     1.0000   1.0000   1.0000   1.0000   1.0000   1.0000   1.0000   1.0000
     0.0000   0.0000   0.0000   0.0000

          k = 0.0838 0.5322 0.0000 (  8469 PWs)   bands (ev):

   -15.2430 -15.1237 -13.2238 -13.1259  -7.5934  -7.5536  -3.4585  -2.8833
     1.0700   1.5270   7.6134   7.8583

     occupation numbers 
     1.0000   1.0000   1.0000   1.0000   1.0000   1.0000   1.0000   1.0000
     0.0000   0.0000   0.0000   0.0000

          k = 0.1676 0.2903 0.0000 (  8483 PWs)   bands (ev):

   -18.1958 -18.0391  -8.3340  -8.3025  -7.0991  -7.0760  -6.5626  -5.5711
     5.4707   5.6273   6.0216   6.8809

     occupation numbers 
     1.0000   1.0000   1.0000   1.0000   1.0000   1.0000   1.0000   1.0000
     0.0000   0.0000   0.0000   0.0000

          k = 0.1676 0.3870 0.0000 (  8505 PWs)   bands (ev):

   -17.0777 -16.9331 -10.0768 -10.0146  -8.1696  -8.1263  -5.2546  -4.3395
     3.6226   3.9781   6.9900   7.5407

     occupation numbers 
     1.0000   1.0000   1.0000   1.0000   1.0000   1.0000   1.0000   1.0000
     0.0000   0.0000   0.0000   0.0000

          k = 0.1676 0.4838 0.0000 (  8491 PWs)   bands (ev):

   -15.6823 -15.5538 -12.0177 -11.9297  -8.7460  -8.6922  -3.7308  -2.9763
     1.6567   2.0872   8.8856   9.2915

     occupation numbers 
     1.0000   1.0000   1.0000   1.0000   1.0000   1.0000   1.0000   1.0000
     0.0000   0.0000   0.0000   0.0000

          k = 0.1676 0.5806 0.0000 (  8478 PWs)   bands (ev):

   -14.3532 -14.2896 -13.4954 -13.4503  -8.9305  -8.8744  -2.6637  -2.2727
     0.7120   0.9098   9.3301   9.6540

     occupation numbers 
     1.0000   1.0000   1.0000   1.0000   1.0000   1.0000   1.0000   1.0000
     0.0000   0.0000   0.0000   0.0000

          k = 0.2514 0.4354 0.0000 (  8483 PWs)   bands (ev):

   -15.8350 -15.7044 -11.0688 -11.0245  -9.6856  -9.6522  -3.8415  -3.0322
     2.0081   2.3454   8.6830   9.0852

     occupation numbers 
     1.0000   1.0000   1.0000   1.0000   1.0000   1.0000   1.0000   1.0000
     0.0000   0.0000   0.0000   0.0000

          k = 0.2514 0.5322 0.0000 (  8484 PWs)   bands (ev):

   -14.3779 -14.2695 -12.5332 -12.4570 -10.4011 -10.3413  -2.3325  -1.7540
     0.4997   0.8076   9.9436  10.0882

     occupation numbers 
     1.0000   1.0000   1.0000   1.0000   1.0000   1.0000   1.0000   1.0000
     0.0000   0.0000   0.0000   0.0000

          k = 0.3352 0.5806 0.0000 (  8478 PWs)   bands (ev):

   -13.1386 -13.0804 -13.0797 -13.0273 -11.3465 -11.3458  -1.0338  -0.6692
    -0.6685  -0.2799   9.7062   9.7070

     occupation numbers 
     1.0000   1.0000   1.0000   1.0000   1.0000   1.0000   1.0000   0.5042
     0.4958   0.0000   0.0000   0.0000

     the Fermi energy is    -0.6594 ev

!    total energy              =     -48.24896809 Ry
     estimated scf accuracy    <       0.00000088 Ry
     smearing contrib. (-TS)   =      -0.00004558 Ry
     internal energy E=F+TS    =     -48.24892251 Ry

     The total energy is F=E-TS. E is the sum of the following terms:
     one-electron contribution =    -535.09761580 Ry
     hartree contribution      =     271.20484605 Ry
     xc contribution           =     -17.12210609 Ry
     ewald contribution        =     232.76595333 Ry

     convergence has been achieved in  10 iterations

     Forces acting on atoms (cartesian axes, Ry/au):

     atom    1 type  1   force =     0.00000000    0.00000000    0.00062514
     atom    2 type  1   force =     0.00000000    0.00000000   -0.00018265
     atom    3 type  1   force =     0.00000000    0.00000000   -0.00061952
     atom    4 type  1   force =     0.00000000    0.00000000    0.00017703
     The non-local contrib.  to forces
     atom    1 type  1   force =     0.00000000    0.00000000    0.00043652
     atom    2 type  1   force =     0.00000000   -0.00000000    0.00035841
     atom    3 type  1   force =     0.00000000    0.00000000   -0.00114508
     atom    4 type  1   force =     0.00000000   -0.00000000    0.00033619
     The ionic contribution  to forces
     atom    1 type  1   force =     0.00000860   -0.00000497  -14.35139009
     atom    2 type  1   force =    -0.00000860    0.00000497   14.34351372
     atom    3 type  1   force =    -0.00000862    0.00000498  -14.34586246
     atom    4 type  1   force =     0.00000862   -0.00000498   14.35373883
     The local contribution  to forces
     atom    1 type  1   force =     0.00000000    0.00000000   14.34966342
     atom    2 type  1   force =     0.00000000   -0.00000000  -14.34258328
     atom    3 type  1   force =    -0.00000672    0.00000388   14.34439791
     atom    4 type  1   force =     0.00000672   -0.00000388  -14.35233598
     The core correction contribution to forces
     atom    1 type  1   force =    -0.00000000    0.00000000   -0.00007138
     atom    2 type  1   force =     0.00000000   -0.00000000    0.00007878
     atom    3 type  1   force =     0.00000029   -0.00000017   -0.00000468
     atom    4 type  1   force =    -0.00000029    0.00000017    0.00000062
     The Hubbard contrib.    to forces
     atom    1 type  1   force =     0.00000000    0.00000000    0.00000000
     atom    2 type  1   force =     0.00000000    0.00000000    0.00000000
     atom    3 type  1   force =     0.00000000    0.00000000    0.00000000
     atom    4 type  1   force =     0.00000000    0.00000000    0.00000000
     The SCF correction term to forces
     atom    1 type  1   force =     0.00000000   -0.00000000    0.00000000
     atom    2 type  1   force =    -0.00000000    0.00000000   -0.00153882
     atom    3 type  1   force =    -0.00000000    0.00000000    0.00000000
     atom    4 type  1   force =     0.00000000   -0.00000000   -0.00155118

     Total force =     0.000254     Total SCF correction =     0.002185
     SCF correction compared to forces is large: reduce conv_thr to get better values


     Computing stress (Cartesian axis) and pressure

          total   stress  (Ry/bohr**3)                   (kbar)     P=       -6.61
  -0.00006191   0.00000000   0.00000000           -9.11        0.00        0.00
  -0.00000000  -0.00006191   0.00000000           -0.00       -9.11        0.00
   0.00000000   0.00000000  -0.00001100            0.00        0.00       -1.62

     kinetic stress (kbar)   4637.74     -0.00      0.00
                               -0.00   4637.74     -0.00
                                0.00     -0.00   5084.30

     local   stress (kbar)-117728.85      0.00     -0.00
                                0.00-117728.84      0.00
                               -0.00      0.00 119175.40

     nonloc. stress (kbar)   -557.41      0.00      0.00
                                0.00   -557.41     -0.00
                                0.00     -0.00   -466.76

     hartree stress (kbar)  57041.98     -0.00      0.00
                               -0.00  57041.98     -0.00
                                0.00     -0.00 -56699.07

     exc-cor stress (kbar)   -357.90      0.00      0.00
                                0.00   -357.90      0.00
                                0.00      0.00   -357.90

     corecor stress (kbar)   -698.82      0.00     -0.00
                                0.00   -698.82      0.00
                               -0.00      0.00   -680.78

     ewald   stress (kbar)  57654.16     -0.01      0.00
                               -0.01  57654.15     -0.00
                                0.00     -0.00 -66056.80

     hubbard stress (kbar)      0.00      0.00      0.00
                                0.00      0.00      0.00
                                0.00      0.00      0.00

     DFT-D   stress (kbar)      0.00      0.00      0.00
                                0.00      0.00      0.00
                                0.00      0.00      0.00

     XDM     stress (kbar)      0.00      0.00      0.00
                                0.00      0.00      0.00
                                0.00      0.00      0.00

     dft-nl  stress (kbar)      0.00      0.00      0.00
                                0.00      0.00      0.00
                                0.00      0.00      0.00

     TS-vdW  stress (kbar)      0.00      0.00      0.00
                                0.00      0.00      0.00
                                0.00      0.00      0.00

     MDB     stress (kbar)      0.00      0.00      0.00
                                0.00      0.00      0.00
                                0.00      0.00      0.00

     3D-RISM stress (kbar)      0.00      0.00      0.00
                                0.00      0.00      0.00
                                0.00      0.00      0.00

     Energy error            =      1.1E-03 Ry
     Gradient error          =      1.8E-04 Ry/Bohr
     Cell gradient error     =      9.1E+00 kbar

     number of scf cycles    =   2
     number of bfgs steps    =   1

     enthalpy           old  =     -48.2478707678 Ry
     enthalpy           new  =     -48.2489680903 Ry

     CASE: enthalpy          _new < enthalpy          _old

     new trust radius        =       0.0113659411 bohr
     new conv_thr            =       0.0000000100 Ry

     new unit-cell volume =    691.97337 a.u.^3 (   102.53987 Ang^3 )
     density =      0.77803 g/cm^3

CELL_PARAMETERS (alat=  4.66447000)
   0.992332709  -0.000000000   0.000000000
  -0.496166355   0.859385335   0.000000000
   0.000000000   0.000000000   7.995345224

ATOMIC_POSITIONS (crystal)
C             0.0000000000        0.0000000000        0.0000000000    0   0   0
C             0.0000000000        0.0000000000        0.1674913493    0   0   1
C             0.6666670000        0.3333330000       -0.0000000000    0   0   0
C             0.3333330000        0.6666670000        0.1675384515    0   0   1



     Writing config-only to output data dir ./tmp/C2L_AB_LDA.save/
     NEW-OLD atomic charge density approx. for the potential

     negative rho (up, down):  4.835E-07 0.000E+00
     extrapolated charge   15.92474, renormalised to   16.00000

     total cpu time spent up to now is       20.4 secs

     Self-consistent Calculation

     iteration #  1     ecut=    80.00 Ry     beta= 0.70
     Davidson diagonalization with overlap

---- Real-time Memory Report at c_bands before calling an iterative solver
             0 MiB given to the printing process from OS
             0 MiB allocation reported by mallinfo(arena+hblkhd)
             0 MiB available memory on the node where the printing process lives
------------------
     c_bands:  1 eigenvalues not converged
     c_bands:  2 eigenvalues not converged
     c_bands:  2 eigenvalues not converged
     c_bands:  1 eigenvalues not converged
     c_bands:  2 eigenvalues not converged
     c_bands:  1 eigenvalues not converged
     c_bands:  1 eigenvalues not converged
     ethr =  1.00E-06,  avg # of iterations = 14.8

     negative rho (up, down):  1.030E-07 0.000E+00

     total cpu time spent up to now is       22.2 secs

     total energy              =     -48.24151622 Ry
     estimated scf accuracy    <       0.00575089 Ry

     iteration #  2     ecut=    80.00 Ry     beta= 0.70
     Davidson diagonalization with overlap

---- Real-time Memory Report at c_bands before calling an iterative solver
             0 MiB given to the printing process from OS
             0 MiB allocation reported by mallinfo(arena+hblkhd)
             0 MiB available memory on the node where the printing process lives
------------------
     ethr =  3.59E-05,  avg # of iterations =  8.5

     negative rho (up, down):  4.801E-08 0.000E+00

     total cpu time spent up to now is       23.4 secs

     total energy              =     -48.24719271 Ry
     estimated scf accuracy    <       0.02614330 Ry

     iteration #  3     ecut=    80.00 Ry     beta= 0.70
     Davidson diagonalization with overlap

---- Real-time Memory Report at c_bands before calling an iterative solver
             0 MiB given to the printing process from OS
             0 MiB allocation reported by mallinfo(arena+hblkhd)
             0 MiB available memory on the node where the printing process lives
------------------
     ethr =  3.59E-05,  avg # of iterations =  3.8

     negative rho (up, down):  3.992E-08 0.000E+00

     total cpu time spent up to now is       24.3 secs

     total energy              =     -48.24944098 Ry
     estimated scf accuracy    <       0.00357487 Ry

     iteration #  4     ecut=    80.00 Ry     beta= 0.70
     Davidson diagonalization with overlap

---- Real-time Memory Report at c_bands before calling an iterative solver
             0 MiB given to the printing process from OS
             0 MiB allocation reported by mallinfo(arena+hblkhd)
             0 MiB available memory on the node where the printing process lives
------------------
     ethr =  2.23E-05,  avg # of iterations =  1.2

     negative rho (up, down):  2.201E-08 0.000E+00

     total cpu time spent up to now is       24.8 secs

     total energy              =     -48.24917136 Ry
     estimated scf accuracy    <       0.00208297 Ry

     iteration #  5     ecut=    80.00 Ry     beta= 0.70
     Davidson diagonalization with overlap

---- Real-time Memory Report at c_bands before calling an iterative solver
             0 MiB given to the printing process from OS
             0 MiB allocation reported by mallinfo(arena+hblkhd)
             0 MiB available memory on the node where the printing process lives
------------------
     ethr =  1.30E-05,  avg # of iterations =  3.0

     negative rho (up, down):  1.166E-08 0.000E+00

     total cpu time spent up to now is       25.5 secs

     total energy              =     -48.24913923 Ry
     estimated scf accuracy    <       0.00069348 Ry

     iteration #  6     ecut=    80.00 Ry     beta= 0.70
     Davidson diagonalization with overlap

---- Real-time Memory Report at c_bands before calling an iterative solver
             0 MiB given to the printing process from OS
             0 MiB allocation reported by mallinfo(arena+hblkhd)
             0 MiB available memory on the node where the printing process lives
------------------
     ethr =  4.33E-06,  avg # of iterations =  4.1

     total cpu time spent up to now is       26.2 secs

     total energy              =     -48.24912889 Ry
     estimated scf accuracy    <       0.00034683 Ry

     iteration #  7     ecut=    80.00 Ry     beta= 0.70
     Davidson diagonalization with overlap

---- Real-time Memory Report at c_bands before calling an iterative solver
             0 MiB given to the printing process from OS
             0 MiB allocation reported by mallinfo(arena+hblkhd)
             0 MiB available memory on the node where the printing process lives
------------------
     ethr =  2.17E-06,  avg # of iterations =  2.2

     total cpu time spent up to now is       26.7 secs

     total energy              =     -48.24910646 Ry
     estimated scf accuracy    <       0.00025937 Ry

     iteration #  8     ecut=    80.00 Ry     beta= 0.70
     Davidson diagonalization with overlap

---- Real-time Memory Report at c_bands before calling an iterative solver
             0 MiB given to the printing process from OS
             0 MiB allocation reported by mallinfo(arena+hblkhd)
             0 MiB available memory on the node where the printing process lives
------------------
     ethr =  1.62E-06,  avg # of iterations =  1.2

     total cpu time spent up to now is       27.3 secs

     total energy              =     -48.24902883 Ry
     estimated scf accuracy    <       0.00017777 Ry

     iteration #  9     ecut=    80.00 Ry     beta= 0.70
     Davidson diagonalization with overlap

---- Real-time Memory Report at c_bands before calling an iterative solver
             0 MiB given to the printing process from OS
             0 MiB allocation reported by mallinfo(arena+hblkhd)
             0 MiB available memory on the node where the printing process lives
------------------
     ethr =  1.11E-06,  avg # of iterations =  4.5

     total cpu time spent up to now is       28.1 secs

     total energy              =     -48.24905747 Ry
     estimated scf accuracy    <       0.00000217 Ry

     iteration # 10     ecut=    80.00 Ry     beta= 0.70
     Davidson diagonalization with overlap

---- Real-time Memory Report at c_bands before calling an iterative solver
             0 MiB given to the printing process from OS
             0 MiB allocation reported by mallinfo(arena+hblkhd)
             0 MiB available memory on the node where the printing process lives
------------------
     ethr =  1.36E-08,  avg # of iterations =  3.5

     total cpu time spent up to now is       28.9 secs

     total energy              =     -48.24905850 Ry
     estimated scf accuracy    <       0.00000013 Ry

     iteration # 11     ecut=    80.00 Ry     beta= 0.70
     Davidson diagonalization with overlap

---- Real-time Memory Report at c_bands before calling an iterative solver
             0 MiB given to the printing process from OS
             0 MiB allocation reported by mallinfo(arena+hblkhd)
             0 MiB available memory on the node where the printing process lives
------------------
     ethr =  8.21E-10,  avg # of iterations =  3.1

     total cpu time spent up to now is       29.6 secs

     End of self-consistent calculation

          k = 0.0000 0.0000 0.0000 (  8603 PWs)   bands (ev):

   -20.1845 -20.0063  -8.9507  -7.8635  -3.6323  -3.6322  -3.6217  -3.6217
     2.8460   3.3718   4.1594   5.3435

     occupation numbers 
     1.0000   1.0000   1.0000   1.0000   1.0000   1.0000   1.0000   1.0000
     0.0000   0.0000   0.0000   0.0000

          k = 0.0000 0.0970-0.0000 (  8567 PWs)   bands (ev):

   -20.0188 -19.8424  -8.7477  -7.6672  -4.2796  -4.2604  -3.9828  -3.9665
     3.0669   3.5966   4.3882   5.5702

     occupation numbers 
     1.0000   1.0000   1.0000   1.0000   1.0000   1.0000   1.0000   1.0000
     0.0000   0.0000   0.0000   0.0000

          k = 0.0000 0.1939-0.0000 (  8545 PWs)   bands (ev):

   -19.5232 -19.3523  -8.1433  -7.0844  -5.9156  -5.8786  -4.7992  -4.7760
     3.7296   4.2695   5.0750   6.2490

     occupation numbers 
     1.0000   1.0000   1.0000   1.0000   1.0000   1.0000   1.0000   1.0000
     0.0000   0.0000   0.0000   0.0000

          k = 0.0000 0.2909-0.0000 (  8492 PWs)   bands (ev):

   -18.7033 -18.5414  -8.0220  -7.9644  -7.1543  -6.1364  -5.7026  -5.6751
     4.8300   5.3690   6.2150   6.5234

     occupation numbers 
     1.0000   1.0000   1.0000   1.0000   1.0000   1.0000   1.0000   1.0000
     0.0000   0.0000   0.0000   0.0000

          k = 0.0000 0.3879-0.0000 (  8472 PWs)   bands (ev):

   -17.5702 -17.4205 -10.2416 -10.1634  -6.4544  -6.4244  -5.8242  -4.8820
     4.0677   4.5836   6.3507   6.9508

     occupation numbers 
     1.0000   1.0000   1.0000   1.0000   1.0000   1.0000   1.0000   1.0000
     0.0000   0.0000   0.0000   0.0000

          k = 0.0000 0.4848-0.0000 (  8484 PWs)   bands (ev):

   -16.1487 -16.0148 -12.3686 -12.2722  -6.9388  -6.9076  -4.2889  -3.5211
     1.8685   2.4397   7.0642   7.2837

     occupation numbers 
     1.0000   1.0000   1.0000   1.0000   1.0000   1.0000   1.0000   1.0000
     0.0000   0.0000   0.0000   0.0000

          k =-0.0000-0.5818 0.0000 (  8450 PWs)   bands (ev):

   -14.7671 -14.7007 -13.9360 -13.8860  -7.1051  -7.0734  -3.2572  -2.8598
     0.8510   1.2497   6.9868   7.2221

     occupation numbers 
     1.0000   1.0000   1.0000   1.0000   1.0000   1.0000   1.0000   1.0000
     0.0000   0.0000   0.0000   0.0000

          k = 0.0840 0.1455-0.0000 (  8561 PWs)   bands (ev):

   -19.6881 -19.5154  -8.3439  -7.2776  -5.3012  -5.2827  -4.6761  -4.6625
     3.5091   4.0458   4.8463   6.0236

     occupation numbers 
     1.0000   1.0000   1.0000   1.0000   1.0000   1.0000   1.0000   1.0000
     0.0000   0.0000   0.0000   0.0000

          k = 0.0840 0.2424-0.0000 (  8508 PWs)   bands (ev):

   -19.0304 -18.8649  -7.5464  -7.0133  -6.9737  -6.5106  -5.7014  -5.6756
     4.3923   4.9396   5.7618   6.9240

     occupation numbers 
     1.0000   1.0000   1.0000   1.0000   1.0000   1.0000   1.0000   1.0000
     0.0000   0.0000   0.0000   0.0000

          k = 0.0840 0.3394-0.0000 (  8491 PWs)   bands (ev):

   -18.0540 -17.8991  -9.1028  -9.0382  -6.6070  -6.5726  -6.3815  -5.4015
     5.1566   5.5625   5.7100   6.3020

     occupation numbers 
     1.0000   1.0000   1.0000   1.0000   1.0000   1.0000   1.0000   1.0000
     0.0000   0.0000   0.0000   0.0000

          k = 0.0840 0.4364-0.0000 (  8467 PWs)   bands (ev):

   -16.7752 -16.6341 -11.2483 -11.1626  -7.2542  -7.2161  -4.9215  -4.0500
     2.8592   3.3827   7.4233   7.8391

     occupation numbers 
     1.0000   1.0000   1.0000   1.0000   1.0000   1.0000   1.0000   1.0000
     0.0000   0.0000   0.0000   0.0000

          k = 0.0840 0.5333-0.0000 (  8469 PWs)   bands (ev):

   -15.2494 -15.1299 -13.2324 -13.1342  -7.5889  -7.5493  -3.4480  -2.8723
     1.0996   1.5585   7.7047   7.9504

     occupation numbers 
     1.0000   1.0000   1.0000   1.0000   1.0000   1.0000   1.0000   1.0000
     0.0000   0.0000   0.0000   0.0000

          k = 0.1680 0.2909-0.0000 (  8483 PWs)   bands (ev):

   -18.2163 -18.0596  -8.3188  -8.2874  -7.0935  -7.0706  -6.5697  -5.5778
     5.4918   5.6901   5.9516   6.0561

     occupation numbers 
     1.0000   1.0000   1.0000   1.0000   1.0000   1.0000   1.0000   1.0000
     0.0000   0.0000   0.0000   0.0000

          k = 0.1680 0.3879-0.0000 (  8505 PWs)   bands (ev):

   -17.0938 -16.9492 -10.0683 -10.0062  -8.1682  -8.1250  -5.2546  -4.3391
     3.6725   4.0286   7.0174   7.5729

     occupation numbers 
     1.0000   1.0000   1.0000   1.0000   1.0000   1.0000   1.0000   1.0000
     0.0000   0.0000   0.0000   0.0000

          k = 0.1680 0.4848-0.0000 (  8491 PWs)   bands (ev):

   -15.6922 -15.5637 -12.0183 -11.9304  -8.7458  -8.6922  -3.7222  -2.9671
     1.6932   2.1249   8.9217   9.3495

     occupation numbers 
     1.0000   1.0000   1.0000   1.0000   1.0000   1.0000   1.0000   1.0000
     0.0000   0.0000   0.0000   0.0000

          k = 0.1680 0.5818-0.0000 (  8478 PWs)   bands (ev):

   -14.3504 -14.2869 -13.5096 -13.4645  -8.9309  -8.8749  -2.6486  -2.2577
     0.7404   0.9400   9.4243   9.7510

     occupation numbers 
     1.0000   1.0000   1.0000   1.0000   1.0000   1.0000   1.0000   1.0000
     0.0000   0.0000   0.0000   0.0000

          k = 0.2519 0.4364-0.0000 (  8483 PWs)   bands (ev):

   -15.8458 -15.7152 -11.0596 -11.0154  -9.6944  -9.6611  -3.8336  -3.0238
     2.0488   2.3863   8.7173   9.1249

     occupation numbers 
     1.0000   1.0000   1.0000   1.0000   1.0000   1.0000   1.0000   1.0000
     0.0000   0.0000   0.0000   0.0000

          k = 0.2519 0.5333-0.0000 (  8484 PWs)   bands (ev):

   -14.3809 -14.2724 -12.5333 -12.4567 -10.4114 -10.3513  -2.3159  -1.7369
     0.5309   0.8391   9.9855  10.1278

     occupation numbers 
     1.0000   1.0000   1.0000   1.0000   1.0000   1.0000   1.0000   1.0000
     0.0000   0.0000   0.0000   0.0000

          k = 0.3359 0.5818-0.0000 (  8478 PWs)   bands (ev):

   -13.1334 -13.0751 -13.0750 -13.0223 -11.3702 -11.3700  -1.0090  -0.6443
    -0.6442  -0.2551   9.7428   9.7433

     occupation numbers 
     1.0000   1.0000   1.0000   1.0000   1.0000   1.0000   1.0000   0.5003
     0.4997   0.0000   0.0000   0.0000

     the Fermi energy is    -0.6348 ev

!    total energy              =     -48.24905854 Ry
     estimated scf accuracy    <          7.2E-09 Ry
     smearing contrib. (-TS)   =      -0.00004558 Ry
     internal energy E=F+TS    =     -48.24901296 Ry

     The total energy is F=E-TS. E is the sum of the following terms:
     one-electron contribution =    -537.21866224 Ry
     hartree contribution      =     272.28599885 Ry
     xc contribution           =     -17.14255201 Ry
     ewald contribution        =     233.82620244 Ry

     convergence has been achieved in  11 iterations

     Forces acting on atoms (cartesian axes, Ry/au):

     atom    1 type  1   force =    -0.00000000   -0.00000000    0.00067165
     atom    2 type  1   force =     0.00000000    0.00000000   -0.00004003
     atom    3 type  1   force =     0.00000000    0.00000000   -0.00055627
     atom    4 type  1   force =    -0.00000000   -0.00000000   -0.00007536
     The non-local contrib.  to forces
     atom    1 type  1   force =     0.00000000    0.00000000    0.00054135
     atom    2 type  1   force =     0.00000000    0.00000000    0.00057953
     atom    3 type  1   force =    -0.00000000   -0.00000000   -0.00102796
     atom    4 type  1   force =     0.00000000    0.00000000   -0.00010291
     The ionic contribution  to forces
     atom    1 type  1   force =     0.00000864   -0.00000499  -14.41342896
     atom    2 type  1   force =    -0.00000864    0.00000499   14.40234323
     atom    3 type  1   force =    -0.00000865    0.00000500  -14.40797108
     atom    4 type  1   force =     0.00000865   -0.00000500   14.41905681
     The local contribution  to forces
     atom    1 type  1   force =     0.00000000    0.00000000   14.41356044
     atom    2 type  1   force =    -0.00000000   -0.00000000  -14.40293639
     atom    3 type  1   force =    -0.00000669    0.00000386   14.40837463
     atom    4 type  1   force =     0.00000669   -0.00000386  -14.41891863
     The core correction contribution to forces
     atom    1 type  1   force =    -0.00000000    0.00000000   -0.00006596
     atom    2 type  1   force =     0.00000000   -0.00000000    0.00007502
     atom    3 type  1   force =     0.00000029   -0.00000017    0.00000080
     atom    4 type  1   force =    -0.00000029    0.00000017   -0.00001024
     The Hubbard contrib.    to forces
     atom    1 type  1   force =     0.00000000    0.00000000    0.00000000
     atom    2 type  1   force =     0.00000000    0.00000000    0.00000000
     atom    3 type  1   force =     0.00000000    0.00000000    0.00000000
     atom    4 type  1   force =     0.00000000    0.00000000    0.00000000
     The SCF correction term to forces
     atom    1 type  1   force =     0.00000000   -0.00000000    0.00000000
     atom    2 type  1   force =    -0.00000000    0.00000000   -0.00010455
     atom    3 type  1   force =    -0.00000000    0.00000000    0.00000000
     atom    4 type  1   force =    -0.00000000    0.00000000   -0.00010351

     Total force =     0.000085     Total SCF correction =     0.000147
     SCF correction compared to forces is large: reduce conv_thr to get better values


     Computing stress (Cartesian axis) and pressure

          total   stress  (Ry/bohr**3)                   (kbar)     P=       -0.22
   0.00000176   0.00000000   0.00000000            0.26        0.00        0.00
   0.00000000   0.00000176   0.00000000            0.00        0.26        0.00
   0.00000000   0.00000000  -0.00000802            0.00        0.00       -1.18

     kinetic stress (kbar)   4672.11      0.00      0.00
                                0.00   4672.11      0.00
                                0.00      0.00   5115.78

     local   stress (kbar)-118755.44      0.00     -0.00
                                0.00-118755.43      0.00
                               -0.00      0.00 120226.68

     nonloc. stress (kbar)   -563.66     -0.00     -0.00
                               -0.00   -563.66     -0.00
                                0.00      0.00   -471.02

     hartree stress (kbar)  57541.51      0.00     -0.00
                                0.00  57541.51     -0.00
                               -0.00     -0.00 -57198.34

     exc-cor stress (kbar)   -360.69      0.00      0.00
                                0.00   -360.69      0.00
                                0.00      0.00   -360.69

     corecor stress (kbar)   -702.55      0.00     -0.00
                                0.00   -702.55      0.00
                               -0.00      0.00   -684.24

     ewald   stress (kbar)  58168.98     -0.01      0.00
                               -0.01  58168.97     -0.00
                                0.00     -0.00 -66629.35

     hubbard stress (kbar)      0.00      0.00      0.00
                                0.00      0.00      0.00
                                0.00      0.00      0.00

     DFT-D   stress (kbar)      0.00      0.00      0.00
                                0.00      0.00      0.00
                                0.00      0.00      0.00

     XDM     stress (kbar)      0.00      0.00      0.00
                                0.00      0.00      0.00
                                0.00      0.00      0.00

     dft-nl  stress (kbar)      0.00      0.00      0.00
                                0.00      0.00      0.00
                                0.00      0.00      0.00

     TS-vdW  stress (kbar)      0.00      0.00      0.00
                                0.00      0.00      0.00
                                0.00      0.00      0.00

     MDB     stress (kbar)      0.00      0.00      0.00
                                0.00      0.00      0.00
                                0.00      0.00      0.00

     3D-RISM stress (kbar)      0.00      0.00      0.00
                                0.00      0.00      0.00
                                0.00      0.00      0.00

     Energy error            =      9.0E-05 Ry
     Gradient error          =      7.5E-05 Ry/Bohr
     Cell gradient error     =      1.2E+00 kbar

     number of scf cycles    =   3
     number of bfgs steps    =   2

     enthalpy           old  =     -48.2489680903 Ry
     enthalpy           new  =     -48.2490585369 Ry

     CASE: enthalpy          _new < enthalpy          _old

     new trust radius        =       0.0010212823 bohr
     new conv_thr            =       0.0000000100 Ry

     new unit-cell volume =    691.89482 a.u.^3 (   102.52823 Ang^3 )
     density =      0.77812 g/cm^3

CELL_PARAMETERS (alat=  4.66447000)
   0.992372709  -0.000000000   0.000000000
  -0.496186355   0.859419976   0.000000000
   0.000000000   0.000000000   7.993793164

ATOMIC_POSITIONS (crystal)
C             0.0000000000        0.0000000000        0.0000000000    0   0   0
C            -0.0000000000       -0.0000000000        0.1674902846    0   0   1
C             0.6666670000        0.3333330000       -0.0000000000    0   0   0
C             0.3333330000        0.6666670000        0.1675364734    0   0   1



     Writing config-only to output data dir ./tmp/C2L_AB_LDA.save/
     NEW-OLD atomic charge density approx. for the potential
     extrapolated charge   15.99818, renormalised to   16.00000

     total cpu time spent up to now is       31.3 secs

     Self-consistent Calculation

     iteration #  1     ecut=    80.00 Ry     beta= 0.70
     Davidson diagonalization with overlap

---- Real-time Memory Report at c_bands before calling an iterative solver
             0 MiB given to the printing process from OS
             0 MiB allocation reported by mallinfo(arena+hblkhd)
             0 MiB available memory on the node where the printing process lives
------------------
     ethr =  1.00E-06,  avg # of iterations =  2.5

     Threshold (ethr) on eigenvalues was too large:
     Diagonalizing with lowered threshold

     Davidson diagonalization with overlap

---- Real-time Memory Report at c_bands before calling an iterative solver
             0 MiB given to the printing process from OS
             0 MiB allocation reported by mallinfo(arena+hblkhd)
             0 MiB available memory on the node where the printing process lives
------------------
     ethr =  2.21E-08,  avg # of iterations =  1.0

     total cpu time spent up to now is       32.4 secs

     total energy              =     -48.24905490 Ry
     estimated scf accuracy    <       0.00000375 Ry

     iteration #  2     ecut=    80.00 Ry     beta= 0.70
     Davidson diagonalization with overlap

---- Real-time Memory Report at c_bands before calling an iterative solver
             0 MiB given to the printing process from OS
             0 MiB allocation reported by mallinfo(arena+hblkhd)
             0 MiB available memory on the node where the printing process lives
------------------
     ethr =  2.34E-08,  avg # of iterations =  2.8

     total cpu time spent up to now is       33.2 secs

     total energy              =     -48.24905644 Ry
     estimated scf accuracy    <       0.00003036 Ry

     iteration #  3     ecut=    80.00 Ry     beta= 0.70
     Davidson diagonalization with overlap

---- Real-time Memory Report at c_bands before calling an iterative solver
             0 MiB given to the printing process from OS
             0 MiB allocation reported by mallinfo(arena+hblkhd)
             0 MiB available memory on the node where the printing process lives
------------------
     ethr =  2.34E-08,  avg # of iterations =  2.0

     total cpu time spent up to now is       33.8 secs

     total energy              =     -48.24905819 Ry
     estimated scf accuracy    <       0.00003034 Ry

     iteration #  4     ecut=    80.00 Ry     beta= 0.70
     Davidson diagonalization with overlap

---- Real-time Memory Report at c_bands before calling an iterative solver
             0 MiB given to the printing process from OS
             0 MiB allocation reported by mallinfo(arena+hblkhd)
             0 MiB available memory on the node where the printing process lives
------------------
     ethr =  2.34E-08,  avg # of iterations =  2.0

     total cpu time spent up to now is       34.4 secs

     total energy              =     -48.24905985 Ry
     estimated scf accuracy    <       0.00000133 Ry

     iteration #  5     ecut=    80.00 Ry     beta= 0.70
     Davidson diagonalization with overlap

---- Real-time Memory Report at c_bands before calling an iterative solver
             0 MiB given to the printing process from OS
             0 MiB allocation reported by mallinfo(arena+hblkhd)
             0 MiB available memory on the node where the printing process lives
------------------
     ethr =  8.33E-09,  avg # of iterations =  1.0

     total cpu time spent up to now is       35.0 secs

     total energy              =     -48.24905967 Ry
     estimated scf accuracy    <       0.00000065 Ry

     iteration #  6     ecut=    80.00 Ry     beta= 0.70
     Davidson diagonalization with overlap

---- Real-time Memory Report at c_bands before calling an iterative solver
             0 MiB given to the printing process from OS
             0 MiB allocation reported by mallinfo(arena+hblkhd)
             0 MiB available memory on the node where the printing process lives
------------------
     ethr =  4.04E-09,  avg # of iterations =  1.7

     total cpu time spent up to now is       35.6 secs

     total energy              =     -48.24905968 Ry
     estimated scf accuracy    <       0.00000010 Ry

     iteration #  7     ecut=    80.00 Ry     beta= 0.70
     Davidson diagonalization with overlap

---- Real-time Memory Report at c_bands before calling an iterative solver
             0 MiB given to the printing process from OS
             0 MiB allocation reported by mallinfo(arena+hblkhd)
             0 MiB available memory on the node where the printing process lives
------------------
     ethr =  6.28E-10,  avg # of iterations =  2.5

     total cpu time spent up to now is       36.3 secs

     End of self-consistent calculation

          k = 0.0000 0.0000 0.0000 (  8603 PWs)   bands (ev):

   -20.1830 -20.0045  -8.9497  -7.8615  -3.6316  -3.6315  -3.6210  -3.6209
     2.8466   3.3720   4.1595   5.3441

     occupation numbers 
     1.0000   1.0000   1.0000   1.0000   1.0000   1.0000   1.0000   1.0000
     0.0000   0.0000   0.0000   0.0000

          k = 0.0000 0.0970-0.0000 (  8567 PWs)   bands (ev):

   -20.0172 -19.8406  -8.7467  -7.6652  -4.2789  -4.2596  -3.9820  -3.9657
     3.0676   3.5969   4.3884   5.5708

     occupation numbers 
     1.0000   1.0000   1.0000   1.0000   1.0000   1.0000   1.0000   1.0000
     0.0000   0.0000   0.0000   0.0000

          k = 0.0000 0.1939-0.0000 (  8545 PWs)   bands (ev):

   -19.5217 -19.3505  -8.1424  -7.0824  -5.9148  -5.8777  -4.7983  -4.7751
     3.7302   4.2697   5.0751   6.2494

     occupation numbers 
     1.0000   1.0000   1.0000   1.0000   1.0000   1.0000   1.0000   1.0000
     0.0000   0.0000   0.0000   0.0000

          k = 0.0000 0.2909-0.0000 (  8492 PWs)   bands (ev):

   -18.7019 -18.5396  -8.0211  -7.9633  -7.1534  -6.1346  -5.7016  -5.6740
     4.8306   5.3691   6.2150   6.5227

     occupation numbers 
     1.0000   1.0000   1.0000   1.0000   1.0000   1.0000   1.0000   1.0000
     0.0000   0.0000   0.0000   0.0000

          k = 0.0000 0.3879-0.0000 (  8472 PWs)   bands (ev):

   -17.5688 -17.4188 -10.2405 -10.1622  -6.4534  -6.4233  -5.8235  -4.8803
     4.0676   4.5841   6.3512   6.9507

     occupation numbers 
     1.0000   1.0000   1.0000   1.0000   1.0000   1.0000   1.0000   1.0000
     0.0000   0.0000   0.0000   0.0000

          k = 0.0000 0.4848-0.0000 (  8484 PWs)   bands (ev):

   -16.1474 -16.0133 -12.3674 -12.2708  -6.9377  -6.9064  -4.2883  -3.5197
     1.8687   2.4404   7.0635   7.2834

     occupation numbers 
     1.0000   1.0000   1.0000   1.0000   1.0000   1.0000   1.0000   1.0000
     0.0000   0.0000   0.0000   0.0000

          k =-0.0000-0.5818 0.0000 (  8450 PWs)   bands (ev):

   -14.7660 -14.6995 -13.9345 -13.8844  -7.1040  -7.0723  -3.2566  -2.8587
     0.8516   1.2505   6.9861   7.2218

     occupation numbers 
     1.0000   1.0000   1.0000   1.0000   1.0000   1.0000   1.0000   1.0000
     0.0000   0.0000   0.0000   0.0000

          k = 0.0840 0.1454-0.0000 (  8561 PWs)   bands (ev):

   -19.6866 -19.5136  -8.3430  -7.2756  -5.3004  -5.2819  -4.6753  -4.6616
[...]
             0 MiB allocation reported by mallinfo(arena+hblkhd)
             0 MiB available memory on the node where the printing process lives
------------------
     c_bands:  2 eigenvalues not converged
     ethr =  3.61E-05,  avg # of iterations =  8.9

     negative rho (up, down):  8.215E-07 0.000E+00

     total cpu time spent up to now is      111.7 secs

     total energy              =     -48.24852412 Ry
     estimated scf accuracy    <       0.00126832 Ry

     iteration #  4     ecut=    80.00 Ry     beta= 0.70
     Davidson diagonalization with overlap

---- Real-time Memory Report at c_bands before calling an iterative solver
             0 MiB given to the printing process from OS
             0 MiB allocation reported by mallinfo(arena+hblkhd)
             0 MiB available memory on the node where the printing process lives
------------------
     ethr =  7.93E-06,  avg # of iterations =  5.9

     negative rho (up, down):  3.221E-08 0.000E+00

     total cpu time spent up to now is      112.7 secs

     total energy              =     -48.24876524 Ry
     estimated scf accuracy    <       0.00086094 Ry

     iteration #  5     ecut=    80.00 Ry     beta= 0.70
     Davidson diagonalization with overlap

---- Real-time Memory Report at c_bands before calling an iterative solver
             0 MiB given to the printing process from OS
             0 MiB allocation reported by mallinfo(arena+hblkhd)
             0 MiB available memory on the node where the printing process lives
------------------
     ethr =  5.38E-06,  avg # of iterations =  6.5

     total cpu time spent up to now is      113.6 secs

     WARNING: integrated charge=    16.00022388, expected=    16.00000000

     total energy              =     -48.24896642 Ry
     estimated scf accuracy    <       0.00152667 Ry

     iteration #  6     ecut=    80.00 Ry     beta= 0.70
     Davidson diagonalization with overlap

---- Real-time Memory Report at c_bands before calling an iterative solver
             0 MiB given to the printing process from OS
             0 MiB allocation reported by mallinfo(arena+hblkhd)
             0 MiB available memory on the node where the printing process lives
------------------
     ethr =  5.38E-06,  avg # of iterations =  2.7

     total cpu time spent up to now is      114.2 secs

     WARNING: integrated charge=    15.99997460, expected=    16.00000000

     total energy              =     -48.24897506 Ry
     estimated scf accuracy    <       0.00002001 Ry

     iteration #  7     ecut=    80.00 Ry     beta= 0.70
     Davidson diagonalization with overlap

---- Real-time Memory Report at c_bands before calling an iterative solver
             0 MiB given to the printing process from OS
             0 MiB allocation reported by mallinfo(arena+hblkhd)
             0 MiB available memory on the node where the printing process lives
------------------
     ethr =  1.25E-07,  avg # of iterations =  2.5

     total cpu time spent up to now is      114.8 secs

     total energy              =     -48.24897842 Ry
     estimated scf accuracy    <       0.00000601 Ry

     iteration #  8     ecut=    80.00 Ry     beta= 0.70
     Davidson diagonalization with overlap

---- Real-time Memory Report at c_bands before calling an iterative solver
             0 MiB given to the printing process from OS
             0 MiB allocation reported by mallinfo(arena+hblkhd)
             0 MiB available memory on the node where the printing process lives
------------------
     ethr =  3.76E-08,  avg # of iterations =  1.1

     total cpu time spent up to now is      115.5 secs

     WARNING: integrated charge=    16.00001241, expected=    16.00000000

     total energy              =     -48.24897865 Ry
     estimated scf accuracy    <       0.00000066 Ry

     iteration #  9     ecut=    80.00 Ry     beta= 0.70
     Davidson diagonalization with overlap

---- Real-time Memory Report at c_bands before calling an iterative solver
             0 MiB given to the printing process from OS
             0 MiB allocation reported by mallinfo(arena+hblkhd)
             0 MiB available memory on the node where the printing process lives
------------------
     ethr =  4.10E-09,  avg # of iterations =  1.7

     total cpu time spent up to now is      116.0 secs

     total energy              =     -48.24897875 Ry
     estimated scf accuracy    <       0.00000003 Ry

     iteration # 10     ecut=    80.00 Ry     beta= 0.70
     Davidson diagonalization with overlap

---- Real-time Memory Report at c_bands before calling an iterative solver
             0 MiB given to the printing process from OS
             0 MiB allocation reported by mallinfo(arena+hblkhd)
             0 MiB available memory on the node where the printing process lives
------------------
     ethr =  2.15E-10,  avg # of iterations =  3.2

     total cpu time spent up to now is      116.7 secs

     End of self-consistent calculation

          k = 0.0000 0.0000 0.0000 (  8361 PWs)   bands (ev):

   -20.1512 -19.9574  -8.9377  -7.7912  -3.5942  -3.5941  -3.5824  -3.5823
     2.9012   3.4191   4.2157   5.4287

     occupation numbers 
     1.0000   1.0000   1.0000   1.0000   1.0000   1.0000   1.0000   1.0000
     0.0000   0.0000   0.0000   0.0000

          k = 0.0000 0.0970 0.0000 (  8371 PWs)   bands (ev):

   -19.9854 -19.7936  -8.7347  -7.5952  -4.2420  -4.2206  -3.9449  -3.9268
     3.1222   3.6438   4.4445   5.6551

     occupation numbers 
     1.0000   1.0000   1.0000   1.0000   1.0000   1.0000   1.0000   1.0000
     0.0000   0.0000   0.0000   0.0000

          k = 0.0000 0.1939 0.0000 (  8313 PWs)   bands (ev):

   -19.4897 -19.3038  -8.1303  -7.0131  -5.8787  -5.8377  -4.7614  -4.7355
     3.7853   4.3164   5.1309   6.3336

     occupation numbers 
     1.0000   1.0000   1.0000   1.0000   1.0000   1.0000   1.0000   1.0000
     0.0000   0.0000   0.0000   0.0000

          k = 0.0000 0.2909 0.0000 (  8301 PWs)   bands (ev):

   -18.6697 -18.4933  -7.9857  -7.9222  -7.1410  -6.0667  -5.6647  -5.6341
     4.8861   5.4146   6.2708   6.5470

     occupation numbers 
     1.0000   1.0000   1.0000   1.0000   1.0000   1.0000   1.0000   1.0000
     0.0000   0.0000   0.0000   0.0000

          k = 0.0000 0.3878 0.0000 (  8250 PWs)   bands (ev):

   -17.5363 -17.3731 -10.2058 -10.1200  -6.4164  -6.3831  -5.8102  -4.8149
     4.0873   4.6356   6.4076   6.9965

     occupation numbers 
     1.0000   1.0000   1.0000   1.0000   1.0000   1.0000   1.0000   1.0000
     0.0000   0.0000   0.0000   0.0000

          k = 0.0000 0.4848 0.0000 (  8226 PWs)   bands (ev):

   -16.1145 -15.9684 -12.3331 -12.2275  -6.9007  -6.8660  -4.2725  -3.4605
     1.8905   2.4940   7.0886   7.3270

     occupation numbers 
     1.0000   1.0000   1.0000   1.0000   1.0000   1.0000   1.0000   1.0000
     0.0000   0.0000   0.0000   0.0000

          k =-0.0000-0.5817-0.0000 (  8234 PWs)   bands (ev):

   -14.7313 -14.6587 -13.8968 -13.8423  -7.0669  -7.0318  -3.2347  -2.8126
     0.8847   1.3002   7.0107   7.2653

     occupation numbers 
     1.0000   1.0000   1.0000   1.0000   1.0000   1.0000   1.0000   1.0000
     0.0000   0.0000   0.0000   0.0000

          k = 0.0840 0.1454 0.0000 (  8331 PWs)   bands (ev):

   -19.6547 -19.4668  -8.3309  -7.2060  -5.2634  -5.2429  -4.6378  -4.6227
     3.5647   4.0928   4.9023   6.1081

     occupation numbers 
     1.0000   1.0000   1.0000   1.0000   1.0000   1.0000   1.0000   1.0000
     0.0000   0.0000   0.0000   0.0000

          k = 0.0840 0.2424 0.0000 (  8301 PWs)   bands (ev):

   -18.9969 -18.8167  -7.5332  -6.9765  -6.9326  -6.4401  -5.6634  -5.6348
     4.4483   4.9861   5.8175   7.0062

     occupation numbers 
     1.0000   1.0000   1.0000   1.0000   1.0000   1.0000   1.0000   1.0000
     0.0000   0.0000   0.0000   0.0000

          k = 0.0840 0.3393 0.0000 (  8271 PWs)   bands (ev):

   -18.0202 -17.8514  -9.0666  -8.9956  -6.5692  -6.5311  -6.3679  -5.3331
     5.1779   5.6102   5.7670   6.3476

     occupation numbers 
     1.0000   1.0000   1.0000   1.0000   1.0000   1.0000   1.0000   1.0000
     0.0000   0.0000   0.0000   0.0000

          k = 0.0840 0.4363 0.0000 (  8245 PWs)   bands (ev):

   -16.7412 -16.5872 -11.2127 -11.1186  -7.2164  -7.1742  -4.9066  -3.9855
     2.8798   3.4349   7.4795   7.8675

     occupation numbers 
     1.0000   1.0000   1.0000   1.0000   1.0000   1.0000   1.0000   1.0000
     0.0000   0.0000   0.0000   0.0000

          k = 0.0840 0.5333 0.0000 (  8239 PWs)   bands (ev):

   -15.2149 -15.0844 -13.1966 -13.0892  -7.5511  -7.5072  -3.4285  -2.8189
     1.1280   1.6101   7.7284   7.9933

     occupation numbers 
     1.0000   1.0000   1.0000   1.0000   1.0000   1.0000   1.0000   1.0000
     0.0000   0.0000   0.0000   0.0000

          k = 0.1679 0.2909 0.0000 (  8303 PWs)   bands (ev):

   -18.1825 -18.0118  -8.2815  -8.2468  -7.0549  -7.0295  -6.5562  -5.5090
     5.5477   5.7143   5.9936   6.1027

     occupation numbers 
     1.0000   1.0000   1.0000   1.0000   1.0000   1.0000   1.0000   1.0000
     0.0000   0.0000   0.0000   0.0000

          k = 0.1679 0.3878 0.0000 (  8272 PWs)   bands (ev):

   -17.0598 -16.9021 -10.0320  -9.9637  -8.1304  -8.0827  -5.2404  -4.2729
     3.6952   4.0749   7.0745   7.6172

     occupation numbers 
     1.0000   1.0000   1.0000   1.0000   1.0000   1.0000   1.0000   1.0000
     0.0000   0.0000   0.0000   0.0000

          k = 0.1679 0.4848 0.0000 (  8267 PWs)   bands (ev):

   -15.6579 -15.5175 -11.9827 -11.8863  -8.7085  -8.6493  -3.7057  -2.9068
     1.7170   2.1745   8.9807   9.3815

     occupation numbers 
     1.0000   1.0000   1.0000   1.0000   1.0000   1.0000   1.0000   1.0000
     0.0000   0.0000   0.0000   0.0000

          k = 0.1679 0.5817 0.0000 (  8236 PWs)   bands (ev):

   -14.3145 -14.2449 -13.4704 -13.4212  -8.8936  -8.8319  -2.6264  -2.2112
     0.7784   0.9838   9.4457   9.7928

     occupation numbers 
     1.0000   1.0000   1.0000   1.0000   1.0000   1.0000   1.0000   1.0000
     0.0000   0.0000   0.0000   0.0000

          k = 0.2519 0.4363 0.0000 (  8281 PWs)   bands (ev):

   -15.8116 -15.6689 -11.0227 -10.9741  -9.6553  -9.6187  -3.8181  -2.9614
     2.0725   2.4327   8.7762   9.1643

     occupation numbers 
     1.0000   1.0000   1.0000   1.0000   1.0000   1.0000   1.0000   1.0000
     0.0000   0.0000   0.0000   0.0000

          k = 0.2519 0.5333 0.0000 (  8250 PWs)   bands (ev):

   -14.3461 -14.2274 -12.4971 -12.4132 -10.3737 -10.3077  -2.2971  -1.6836
     0.5587   0.8867  10.0178  10.1920

     occupation numbers 
     1.0000   1.0000   1.0000   1.0000   1.0000   1.0000   1.0000   1.0000
     0.0000   0.0000   0.0000   0.0000

          k = 0.3359 0.5817 0.0000 (  8262 PWs)   bands (ev):

   -13.0996 -13.0357 -13.0355 -12.9777 -11.3285 -11.3283  -0.9963  -0.6085
    -0.6084  -0.1932   9.7881   9.7885

     occupation numbers 
     1.0000   1.0000   1.0000   1.0000   1.0000   1.0000   1.0000   0.5006
     0.4994   0.0000   0.0000   0.0000

     the Fermi energy is    -0.5990 ev

!    total energy              =     -48.24897876 Ry
     estimated scf accuracy    <          3.3E-09 Ry
     smearing contrib. (-TS)   =      -0.00004558 Ry
     internal energy E=F+TS    =     -48.24893318 Ry

     The total energy is F=E-TS. E is the sum of the following terms:
     one-electron contribution =    -530.54901989 Ry
     hartree contribution      =     268.97477849 Ry
     xc contribution           =     -17.14255110 Ry
     ewald contribution        =     230.46785932 Ry

     convergence has been achieved in  10 iterations

     Forces acting on atoms (cartesian axes, Ry/au):

     atom    1 type  1   force =     0.00000000    0.00000000    0.00051681
     atom    2 type  1   force =     0.00000000    0.00000000    0.00011239
     atom    3 type  1   force =    -0.00000000   -0.00000000   -0.00081994
     atom    4 type  1   force =    -0.00000000   -0.00000000    0.00019075
     The non-local contrib.  to forces
     atom    1 type  1   force =     0.00000000    0.00000000    0.00044645
     atom    2 type  1   force =    -0.00000000   -0.00000000    0.00067151
     atom    3 type  1   force =    -0.00000000   -0.00000000   -0.00128479
     atom    4 type  1   force =    -0.00000000   -0.00000000    0.00015304
     The ionic contribution  to forces
     atom    1 type  1   force =     0.00000864   -0.00000499  -14.41266959
     atom    2 type  1   force =    -0.00000864    0.00000499   14.40167443
     atom    3 type  1   force =    -0.00000865    0.00000500  -14.40657734
     atom    4 type  1   force =     0.00000865   -0.00000500   14.41757250
     The local contribution  to forces
     atom    1 type  1   force =     0.00000000    0.00000000   14.41287390
     atom    2 type  1   force =    -0.00000000   -0.00000000  -14.40223090
     atom    3 type  1   force =    -0.00000669    0.00000386   14.40710242
     atom    4 type  1   force =     0.00000669   -0.00000386  -14.41744099
     The core correction contribution to forces
     atom    1 type  1   force =    -0.00000000    0.00000000   -0.00005429
     atom    2 type  1   force =     0.00000000   -0.00000000    0.00006376
     atom    3 type  1   force =     0.00000029   -0.00000017    0.00001917
     atom    4 type  1   force =    -0.00000029    0.00000017   -0.00002718
     The Hubbard contrib.    to forces
     atom    1 type  1   force =     0.00000000    0.00000000    0.00000000
     atom    2 type  1   force =     0.00000000    0.00000000    0.00000000
     atom    3 type  1   force =     0.00000000    0.00000000    0.00000000
     atom    4 type  1   force =     0.00000000    0.00000000    0.00000000
     The SCF correction term to forces
     atom    1 type  1   force =    -0.00000000    0.00000000   -0.00000000
     atom    2 type  1   force =     0.00000000   -0.00000000   -0.00006782
     atom    3 type  1   force =    -0.00000000    0.00000000   -0.00000000
     atom    4 type  1   force =    -0.00000000    0.00000000   -0.00006804

     Total force =     0.000221     Total SCF correction =     0.000096
     SCF correction compared to forces is large: reduce conv_thr to get better values


     Computing stress (Cartesian axis) and pressure

          total   stress  (Ry/bohr**3)                   (kbar)     P=       -0.63
  -0.00000419   0.00000000   0.00000000           -0.62        0.00        0.00
   0.00000000  -0.00000419  -0.00000000            0.00       -0.62       -0.00
   0.00000000  -0.00000000  -0.00000439            0.00       -0.00       -0.65

     kinetic stress (kbar)   4720.61      0.00     -0.00
                                0.00   4720.61     -0.00
                               -0.00     -0.00   5169.96

     local   stress (kbar)-118574.62      0.00     -0.00
                                0.00-118574.61      0.00
                               -0.00      0.00 120060.38

     nonloc. stress (kbar)   -569.46     -0.00      0.00
                               -0.00   -569.46      0.00
                                0.00      0.00   -475.95

     hartree stress (kbar)  57437.17      0.00     -0.00
                                0.00  57437.17     -0.00
                               -0.00     -0.00 -57090.36

     exc-cor stress (kbar)   -364.51      0.00      0.00
                                0.00   -364.51      0.00
                                0.00      0.00   -364.51

     corecor stress (kbar)   -709.94      0.00     -0.00
                                0.00   -709.94      0.00
                               -0.00      0.00   -691.45

     ewald   stress (kbar)  58060.13     -0.01      0.00
                               -0.01  58060.12     -0.00
                                0.00     -0.00 -66608.72

     hubbard stress (kbar)      0.00      0.00      0.00
                                0.00      0.00      0.00
                                0.00      0.00      0.00

     DFT-D   stress (kbar)      0.00      0.00      0.00
                                0.00      0.00      0.00
                                0.00      0.00      0.00

     XDM     stress (kbar)      0.00      0.00      0.00
                                0.00      0.00      0.00
                                0.00      0.00      0.00

     dft-nl  stress (kbar)      0.00      0.00      0.00
                                0.00      0.00      0.00
                                0.00      0.00      0.00

     TS-vdW  stress (kbar)      0.00      0.00      0.00
                                0.00      0.00      0.00
                                0.00      0.00      0.00

     MDB     stress (kbar)      0.00      0.00      0.00
                                0.00      0.00      0.00
                                0.00      0.00      0.00

     3D-RISM stress (kbar)      0.00      0.00      0.00
                                0.00      0.00      0.00
                                0.00      0.00      0.00


     Writing all to output data dir ./tmp/C2L_AB_LDA.save/

     init_run     :      1.51s CPU      1.52s WALL (       2 calls)
     electrons    :     94.59s CPU     94.68s WALL (      13 calls)
     update_pot   :      4.93s CPU      4.94s WALL (      11 calls)
     forces       :      3.83s CPU      3.86s WALL (      13 calls)
     stress       :     12.07s CPU     12.76s WALL (      13 calls)

     Called by init_run:
     wfcinit      :      0.55s CPU      0.55s WALL (       2 calls)
     wfcinit:atom :      0.01s CPU      0.01s WALL (      38 calls)
     wfcinit:wfcr :      0.50s CPU      0.50s WALL (      38 calls)
     potinit      :      0.19s CPU      0.19s WALL (       2 calls)
     hinit0       :      0.63s CPU      0.63s WALL (       2 calls)

     Called by electrons:
     c_bands      :     83.06s CPU     82.68s WALL (     118 calls)
     sum_band     :     10.79s CPU     11.03s WALL (     118 calls)
     v_of_rho     :      0.29s CPU      0.32s WALL (     129 calls)
     v_h          :      0.11s CPU      0.12s WALL (     129 calls)
     v_xc         :      0.22s CPU      0.24s WALL (     155 calls)
     mix_rho      :      0.35s CPU      0.50s WALL (     118 calls)

     Called by c_bands:
     init_us_2    :      1.27s CPU      1.29s WALL (    5016 calls)
     init_us_2:cp :      1.26s CPU      1.27s WALL (    5016 calls)
     cegterg      :     80.60s CPU     80.12s WALL (    2242 calls)

     Called by sum_band:
     sum_band:wei :      0.02s CPU      0.02s WALL (     118 calls)
     sum_band:loo :     10.53s CPU     10.76s WALL (     118 calls)
     sum_band:buf :      0.19s CPU      0.19s WALL (    2242 calls)
     sum_band:ini :      0.54s CPU      0.55s WALL (    2242 calls)

     Called by *egterg:
     cdiaghg      :      2.08s CPU      2.11s WALL (   10814 calls)
     cegterg:over :      3.92s CPU      4.04s WALL (    8819 calls)
     cegterg:upda :      3.17s CPU      3.13s WALL (    8819 calls)
     cegterg:last :      3.90s CPU      2.97s WALL (    5017 calls)
     h_psi        :     65.44s CPU     65.41s WALL (   11099 calls)
     g_psi        :      0.36s CPU      0.47s WALL (    8819 calls)

     Called by h_psi:
     h_psi:calbec :      4.58s CPU      4.49s WALL (   11099 calls)
     vloc_psi     :     55.71s CPU     56.90s WALL (   11099 calls)
     add_vuspsi   :      4.70s CPU      3.50s WALL (   11099 calls)

     General routines
     calbec       :      5.71s CPU      5.61s WALL (   12334 calls)
     fft          :      0.76s CPU      0.79s WALL (     491 calls)
     ffts         :      0.06s CPU      0.06s WALL (     118 calls)
     fftw         :     59.93s CPU     60.95s WALL (  177620 calls)

     Parallel routines

     PWSCF        :   1m57.10s CPU   1m57.97s WALL


   This run was terminated on:  10: 6:51   4Apr2024            

=------------------------------------------------------------------------------=
   JOB DONE.
=------------------------------------------------------------------------------=
