
     Program PWSCF v.7.2 starts on  4Apr2024 at 10:10:31 

     This program is part of the open-source Quantum ESPRESSO suite
     for quantum simulation of materials; please cite
         "P. Giannozzi et al., J. Phys.:Condens. Matter 21 395502 (2009);
         "P. Giannozzi et al., J. Phys.:Condens. Matter 29 465901 (2017);
         "P. Giannozzi et al., J. Chem. Phys. 152 154105 (2020);
          URL http://www.quantum-espresso.org", 
     in publications or presentations arising from this work. More details at
     http://www.quantum-espresso.org/quote

     Parallel version (MPI & OpenMP), running on       8 processor cores
     Number of MPI processes:                 8
     Threads/MPI process:                     1

     MPI processes distributed on     1 nodes
     0 MiB available memory on the printing compute node when the environment starts

     Waiting for input...
     Reading input from standard input
Warning: card &CELL ignored
Warning: card / ignored

     Current dimensions of program PWSCF are:
     Max number of different atomic species (ntypx) = 10
     Max number of k-points (npk) =  40000
     Max angular momentum in pseudopotentials (lmaxx) =  4

     R & G space division:  proc/nbgrp/npool/nimage =       8
     Subspace diagonalization in iterative solution of the eigenvalue problem:
     a serial algorithm will be used


     Parallelization info
     --------------------
     sticks:   dense  smooth     PW     G-vecs:    dense   smooth      PW
     Min          59      59     18                 8295     8295    1388
     Max          60      60     19                 8316     8316    1399
     Sum         475     475    151                66433    66433   11139

     Using Slab Decomposition



     bravais-lattice index     =            4
     lattice parameter (alat)  =       4.6293  a.u.
     unit-cell volume          =     687.3321 (a.u.)^3
     number of atoms/cell      =            4
     number of atomic types    =            1
     number of electrons       =        16.00
     number of Kohn-Sham states=           12
     kinetic-energy cutoff     =      80.0000  Ry
     charge density cutoff     =     320.0000  Ry
     scf convergence threshold =      1.0E-06
     mixing beta               =       0.7000
     number of iterations used =            8  plain     mixing
     energy convergence thresh.=      1.0E-04
     force convergence thresh. =      1.0E-03
     Exchange-correlation= PZ
                           (   1   1   0   0   0   0   0)
     nstep                     =           50


     celldm(1)=   4.629300  celldm(2)=   0.000000  celldm(3)=   8.000000
     celldm(4)=   0.000000  celldm(5)=   0.000000  celldm(6)=   0.000000

     crystal axes: (cart. coord. in units of alat)
               a(1) = (   1.000000   0.000000   0.000000 )  
               a(2) = (  -0.500000   0.866025   0.000000 )  
               a(3) = (   0.000000   0.000000   8.000000 )  

     reciprocal axes: (cart. coord. in units 2 pi/alat)
               b(1) = (  1.000000  0.577350 -0.000000 )  
               b(2) = (  0.000000  1.154701  0.000000 )  
               b(3) = (  0.000000 -0.000000  0.125000 )  


     PseudoPot. # 1 for C  read from file:
     ../../../../Pseudo/LDA/C.upf
     MD5 check sum: 9ef9f0a1c6c947210c7947280cfb54e2
     Pseudo is Norm-conserving + core correction, Zval =  4.0
     Generated using ONCVPSP code by D. R. Hamann
     Using radial grid of 1230 points,  4 beta functions with: 
                l(1) =   0
                l(2) =   0
                l(3) =   1
                l(4) =   1

     atomic species   valence    mass     pseudopotential
        C              4.00    12.01100     C ( 1.00)

      6 Sym. Ops. (no inversion) found


                                    s                        frac. trans.

      isym =  1     identity                                     

 cryst.   s( 1) = (     1          0          0      )
                  (     0          1          0      )
                  (     0          0          1      )

 cart.    s( 1) = (  1.0000000  0.0000000  0.0000000 )
                  (  0.0000000  1.0000000  0.0000000 )
                  (  0.0000000  0.0000000  1.0000000 )


      isym =  2     120 deg rotation - cryst. axis [0,0,1]       

 cryst.   s( 2) = (     0          1          0      )
                  (    -1         -1          0      )
                  (     0          0          1      )

 cart.    s( 2) = ( -0.5000000 -0.8660254  0.0000000 )
                  (  0.8660254 -0.5000000  0.0000000 )
                  (  0.0000000  0.0000000  1.0000000 )


      isym =  3     120 deg rotation - cryst. axis [0,0,-1]      

 cryst.   s( 3) = (    -1         -1          0      )
                  (     1          0          0      )
                  (     0          0          1      )

 cart.    s( 3) = ( -0.5000000  0.8660254  0.0000000 )
                  ( -0.8660254 -0.5000000  0.0000000 )
                  (  0.0000000  0.0000000  1.0000000 )


      isym =  4     inv. 180 deg rotation - cart. axis [1,0,0]   

 cryst.   s( 4) = (    -1          0          0      )
                  (     1          1          0      )
                  (     0          0          1      )

 cart.    s( 4) = ( -1.0000000  0.0000000  0.0000000 )
                  (  0.0000000  1.0000000  0.0000000 )
                  (  0.0000000  0.0000000  1.0000000 )


      isym =  5     inv. 180 deg rotation - cryst. axis [0,1,0]  

 cryst.   s( 5) = (     1          1          0      )
                  (     0         -1          0      )
                  (     0          0          1      )

 cart.    s( 5) = (  0.5000000  0.8660254  0.0000000 )
                  (  0.8660254 -0.5000000  0.0000000 )
                  (  0.0000000  0.0000000  1.0000000 )


      isym =  6     inv. 180 deg rotation - cryst. axis [1,1,0]  

 cryst.   s( 6) = (     0         -1          0      )
                  (    -1          0          0      )
                  (     0          0          1      )

 cart.    s( 6) = (  0.5000000 -0.8660254  0.0000000 )
                  ( -0.8660254 -0.5000000  0.0000000 )
                  (  0.0000000  0.0000000  1.0000000 )


     point group C_3v (3m)  
     there are  3 classes
     the character table:

       E     2C3   3s_v 
A_1    1.00  1.00  1.00
A_2    1.00  1.00 -1.00
E      2.00 -1.00  0.00

     the symmetry operations in each class and the name of the first element:

     E        1
          identity                                               
     2C3      2    3
          120 deg rotation - cryst. axis [0,0,1]                 
     3s_v     4    5    6
          inv. 180 deg rotation - cart. axis [1,0,0]             

   Cartesian axes

     site n.     atom                  positions (alat units)
         1           C   tau(   1) = (   0.0000000   0.0000000   0.0000000  )
         2           C   tau(   2) = (   0.0000000   0.0000000   1.3246240  )
         3           C   tau(   3) = (   0.5000005   0.2886748   0.0000000  )
         4           C   tau(   4) = (  -0.0000005   0.5773506   1.3246240  )

   Crystallographic axes

     site n.     atom                  positions (cryst. coord.)
         1           C   tau(   1) = (  0.0000000  0.0000000  0.0000000  )
         2           C   tau(   2) = (  0.0000000  0.0000000  0.1655780  )
         3           C   tau(   3) = (  0.6666670  0.3333330  0.0000000  )
         4           C   tau(   4) = (  0.3333330  0.6666670  0.1655780  )

     number of k points=    19  Marzari-Vanderbilt smearing, width (Ry)=  0.0050
                       cart. coord. in units 2pi/alat
        k(    1) = (   0.0000000   0.0000000   0.0000000), wk =   0.0138889
        k(    2) = (   0.0000000   0.0962250   0.0000000), wk =   0.0833333
        k(    3) = (   0.0000000   0.1924501   0.0000000), wk =   0.0833333
        k(    4) = (   0.0000000   0.2886751   0.0000000), wk =   0.0833333
        k(    5) = (   0.0000000   0.3849002   0.0000000), wk =   0.0833333
        k(    6) = (   0.0000000   0.4811252   0.0000000), wk =   0.0833333
        k(    7) = (   0.0000000  -0.5773503   0.0000000), wk =   0.0416667
        k(    8) = (   0.0833333   0.1443376   0.0000000), wk =   0.0833333
        k(    9) = (   0.0833333   0.2405626   0.0000000), wk =   0.1666667
        k(   10) = (   0.0833333   0.3367877   0.0000000), wk =   0.1666667
        k(   11) = (   0.0833333   0.4330127   0.0000000), wk =   0.1666667
        k(   12) = (   0.0833333   0.5292377   0.0000000), wk =   0.1666667
        k(   13) = (   0.1666667   0.2886751   0.0000000), wk =   0.0833333
        k(   14) = (   0.1666667   0.3849002   0.0000000), wk =   0.1666667
        k(   15) = (   0.1666667   0.4811252   0.0000000), wk =   0.1666667
        k(   16) = (   0.1666667   0.5773503   0.0000000), wk =   0.0833333
        k(   17) = (   0.2500000   0.4330127   0.0000000), wk =   0.0833333
        k(   18) = (   0.2500000   0.5292377   0.0000000), wk =   0.1666667
        k(   19) = (   0.3333333   0.5773503   0.0000000), wk =   0.0277778

                       cryst. coord.
        k(    1) = (   0.0000000   0.0000000   0.0000000), wk =   0.0138889
        k(    2) = (   0.0000000   0.0833333   0.0000000), wk =   0.0833333
        k(    3) = (   0.0000000   0.1666667   0.0000000), wk =   0.0833333
        k(    4) = (   0.0000000   0.2500000   0.0000000), wk =   0.0833333
        k(    5) = (   0.0000000   0.3333333   0.0000000), wk =   0.0833333
        k(    6) = (   0.0000000   0.4166667   0.0000000), wk =   0.0833333
        k(    7) = (   0.0000000  -0.5000000   0.0000000), wk =   0.0416667
        k(    8) = (   0.0833333   0.0833333   0.0000000), wk =   0.0833333
        k(    9) = (   0.0833333   0.1666667   0.0000000), wk =   0.1666667
        k(   10) = (   0.0833333   0.2500000   0.0000000), wk =   0.1666667
        k(   11) = (   0.0833333   0.3333333   0.0000000), wk =   0.1666667
        k(   12) = (   0.0833333   0.4166667   0.0000000), wk =   0.1666667
        k(   13) = (   0.1666667   0.1666667   0.0000000), wk =   0.0833333
        k(   14) = (   0.1666667   0.2500000   0.0000000), wk =   0.1666667
        k(   15) = (   0.1666667   0.3333333   0.0000000), wk =   0.1666667
        k(   16) = (   0.1666667   0.4166667   0.0000000), wk =   0.0833333
        k(   17) = (   0.2500000   0.2500000   0.0000000), wk =   0.0833333
        k(   18) = (   0.2500000   0.3333333   0.0000000), wk =   0.1666667
        k(   19) = (   0.3333333   0.3333333   0.0000000), wk =   0.0277778

     Dense  grid:    66433 G-vectors     FFT dimensions: (  27,  27, 216)

     Dynamical RAM for                 wfc:       0.19 MB

     Dynamical RAM for     wfc (w. buffer):       3.80 MB

     Dynamical RAM for           str. fact:       0.13 MB

     Dynamical RAM for           local pot:       0.00 MB

     Dynamical RAM for          nlocal pot:       0.51 MB

     Dynamical RAM for                qrad:       0.41 MB

     Dynamical RAM for          rho,v,vnew:       0.83 MB

     Dynamical RAM for               rhoin:       0.28 MB

     Dynamical RAM for            rho*nmix:       2.03 MB

     Dynamical RAM for           G-vectors:       0.54 MB

     Dynamical RAM for          h,s,v(r/c):       0.03 MB

     Dynamical RAM for          <psi|beta>:       0.01 MB

     Dynamical RAM for                 psi:       0.38 MB

     Dynamical RAM for                hpsi:       0.38 MB

     Dynamical RAM for      wfcinit/wfcrot:       0.51 MB

     Estimated static dynamical RAM per process >       7.49 MB

     Estimated max dynamical RAM per process >      10.31 MB

     Estimated total dynamical RAM >      82.50 MB

     Initial potential from superposition of free atoms

     starting charge      15.9998, renormalised to      16.0000

     negative rho (up, down):  2.826E-05 0.000E+00
     Starting wfcs are   16 randomized atomic wfcs

     total cpu time spent up to now is        0.7 secs

     Self-consistent Calculation

     iteration #  1     ecut=    80.00 Ry     beta= 0.70
     Davidson diagonalization with overlap

---- Real-time Memory Report at c_bands before calling an iterative solver
             0 MiB given to the printing process from OS
             0 MiB allocation reported by mallinfo(arena+hblkhd)
             0 MiB available memory on the node where the printing process lives
------------------
     ethr =  1.00E-02,  avg # of iterations =  3.5

     negative rho (up, down):  1.470E-08 0.000E+00

     total cpu time spent up to now is        1.6 secs

     total energy              =     -48.19705070 Ry
     estimated scf accuracy    <       0.38770012 Ry

     iteration #  2     ecut=    80.00 Ry     beta= 0.70
     Davidson diagonalization with overlap

---- Real-time Memory Report at c_bands before calling an iterative solver
             0 MiB given to the printing process from OS
             0 MiB allocation reported by mallinfo(arena+hblkhd)
             0 MiB available memory on the node where the printing process lives
------------------
     ethr =  2.42E-03,  avg # of iterations =  3.9

     total cpu time spent up to now is        2.4 secs

     total energy              =     -48.24734475 Ry
     estimated scf accuracy    <       0.00458835 Ry

     iteration #  3     ecut=    80.00 Ry     beta= 0.70
     Davidson diagonalization with overlap

---- Real-time Memory Report at c_bands before calling an iterative solver
             0 MiB given to the printing process from OS
             0 MiB allocation reported by mallinfo(arena+hblkhd)
             0 MiB available memory on the node where the printing process lives
------------------
     c_bands:  1 eigenvalues not converged
     ethr =  2.87E-05,  avg # of iterations = 10.9

     total cpu time spent up to now is        3.6 secs

     total energy              =     -48.24851879 Ry
     estimated scf accuracy    <       0.00125049 Ry

     iteration #  4     ecut=    80.00 Ry     beta= 0.70
     Davidson diagonalization with overlap

---- Real-time Memory Report at c_bands before calling an iterative solver
             0 MiB given to the printing process from OS
             0 MiB allocation reported by mallinfo(arena+hblkhd)
             0 MiB available memory on the node where the printing process lives
------------------
     c_bands:  1 eigenvalues not converged
     ethr =  7.82E-06,  avg # of iterations =  6.4

     total cpu time spent up to now is        4.5 secs

     total energy              =     -48.24884775 Ry
     estimated scf accuracy    <       0.00054334 Ry

     iteration #  5     ecut=    80.00 Ry     beta= 0.70
     Davidson diagonalization with overlap

---- Real-time Memory Report at c_bands before calling an iterative solver
             0 MiB given to the printing process from OS
             0 MiB allocation reported by mallinfo(arena+hblkhd)
             0 MiB available memory on the node where the printing process lives
------------------
     ethr =  3.40E-06,  avg # of iterations =  4.4

     total cpu time spent up to now is        5.3 secs

     total energy              =     -48.24894531 Ry
     estimated scf accuracy    <       0.00007925 Ry

     iteration #  6     ecut=    80.00 Ry     beta= 0.70
     Davidson diagonalization with overlap

---- Real-time Memory Report at c_bands before calling an iterative solver
             0 MiB given to the printing process from OS
             0 MiB allocation reported by mallinfo(arena+hblkhd)
             0 MiB available memory on the node where the printing process lives
------------------
     ethr =  4.95E-07,  avg # of iterations =  1.3

     total cpu time spent up to now is        5.8 secs

     total energy              =     -48.24895100 Ry
     estimated scf accuracy    <       0.00003089 Ry

     iteration #  7     ecut=    80.00 Ry     beta= 0.70
     Davidson diagonalization with overlap

---- Real-time Memory Report at c_bands before calling an iterative solver
             0 MiB given to the printing process from OS
             0 MiB allocation reported by mallinfo(arena+hblkhd)
             0 MiB available memory on the node where the printing process lives
------------------
     ethr =  1.93E-07,  avg # of iterations =  1.0

     total cpu time spent up to now is        6.3 secs

     End of self-consistent calculation

          k = 0.0000 0.0000 0.0000 (  8385 PWs)   bands (ev):

   -20.1712 -19.9663  -8.9718  -7.7844  -3.6075  -3.6075  -3.5948  -3.5948
     2.8949   3.4046   4.1830   5.3815

     occupation numbers 
     1.0000   1.0000   1.0000   1.0000   1.0000   1.0000   1.0000   1.0000
     0.0000   0.0000   0.0000   0.0000

          k = 0.0000 0.0962 0.0000 (  8411 PWs)   bands (ev):

   -20.0053 -19.8025  -8.7687  -7.5886  -4.2558  -4.2327  -3.9585  -3.9390
     3.1160   3.6295   4.4119   5.6085

     occupation numbers 
     1.0000   1.0000   1.0000   1.0000   1.0000   1.0000   1.0000   1.0000
     0.0000   0.0000   0.0000   0.0000

          k = 0.0000 0.1925 0.0000 (  8345 PWs)   bands (ev):

   -19.5095 -19.3128  -8.1641  -7.0069  -5.8932  -5.8494  -4.7753  -4.7476
     3.7794   4.3022   5.0988   6.2863

     occupation numbers 
     1.0000   1.0000   1.0000   1.0000   1.0000   1.0000   1.0000   1.0000
     0.0000   0.0000   0.0000   0.0000

          k = 0.0000 0.2887 0.0000 (  8327 PWs)   bands (ev):

   -18.6891 -18.5025  -8.0012  -7.9334  -7.1743  -6.0612  -5.6789  -5.6460
     4.8809   5.4001   6.2404   6.5229

     occupation numbers 
     1.0000   1.0000   1.0000   1.0000   1.0000   1.0000   1.0000   1.0000
     0.0000   0.0000   0.0000   0.0000

          k = 0.0000 0.3849 0.0000 (  8284 PWs)   bands (ev):

   -17.5553 -17.3825 -10.2221 -10.1308  -6.4307  -6.3950  -5.8427  -4.8109
     4.0610   4.6321   6.4032   6.9805

     occupation numbers 
     1.0000   1.0000   1.0000   1.0000   1.0000   1.0000   1.0000   1.0000
     0.0000   0.0000   0.0000   0.0000

          k = 0.0000 0.4811 0.0000 (  8264 PWs)   bands (ev):

   -16.1329 -15.9781 -12.3501 -12.2380  -6.9151  -6.8778  -4.3029  -3.4605
     1.8651   2.4915   7.0681   7.3196

     occupation numbers 
     1.0000   1.0000   1.0000   1.0000   1.0000   1.0000   1.0000   1.0000
     0.0000   0.0000   0.0000   0.0000

          k = 0.0000-0.5774 0.0000 (  8278 PWs)   bands (ev):

   -14.7478 -14.6708 -13.9119 -13.8542  -7.0813  -7.0436  -3.2605  -2.8218
     0.8668   1.2948   6.9897   7.2580

     occupation numbers 
     1.0000   1.0000   1.0000   1.0000   1.0000   1.0000   1.0000   1.0000
     0.0000   0.0000   0.0000   0.0000

          k = 0.0833 0.1443 0.0000 (  8375 PWs)   bands (ev):

   -19.6745 -19.4758  -8.3648  -7.1997  -5.2772  -5.2553  -4.6513  -4.6351
     3.5587   4.0785   4.8701   6.0612

     occupation numbers 
     1.0000   1.0000   1.0000   1.0000   1.0000   1.0000   1.0000   1.0000
     0.0000   0.0000   0.0000   0.0000

          k = 0.0833 0.2406 0.0000 (  8329 PWs)   bands (ev):

   -19.0164 -18.8258  -7.5668  -6.9912  -6.9444  -6.4344  -5.6775  -5.6468
     4.4428   4.9718   5.7860   6.9607

     occupation numbers 
     1.0000   1.0000   1.0000   1.0000   1.0000   1.0000   1.0000   1.0000
     0.0000   0.0000   0.0000   0.0000

          k = 0.0833 0.3368 0.0000 (  8299 PWs)   bands (ev):

   -18.0394 -17.8607  -9.0824  -9.0068  -6.5837  -6.5429  -6.4008  -5.3284
     5.1533   5.6041   5.7625   6.3335

     occupation numbers 
     1.0000   1.0000   1.0000   1.0000   1.0000   1.0000   1.0000   1.0000
     0.0000   0.0000   0.0000   0.0000

          k = 0.0833 0.4330 0.0000 (  8285 PWs)   bands (ev):

   -16.7599 -16.5968 -11.2293 -11.1293  -7.2311  -7.1859  -4.9383  -3.9830
     2.8538   3.4312   7.4754   7.8485

     occupation numbers 
     1.0000   1.0000   1.0000   1.0000   1.0000   1.0000   1.0000   1.0000
     0.0000   0.0000   0.0000   0.0000

          k = 0.0833 0.5292 0.0000 (  8275 PWs)   bands (ev):

   -15.2329 -15.0945 -13.2138 -13.0998  -7.5659  -7.5189  -3.4565  -2.8238
     1.1067   1.6056   7.7075   7.9860

     occupation numbers 
     1.0000   1.0000   1.0000   1.0000   1.0000   1.0000   1.0000   1.0000
     0.0000   0.0000   0.0000   0.0000

          k = 0.1667 0.2887 0.0000 (  8317 PWs)   bands (ev):

   -18.2018 -18.0211  -8.2961  -8.2590  -7.0690  -7.0419  -6.5892  -5.5040
     5.5431   5.6917   5.9822   6.0908

     occupation numbers 
     1.0000   1.0000   1.0000   1.0000   1.0000   1.0000   1.0000   1.0000
     0.0000   0.0000   0.0000   0.0000

          k = 0.1667 0.3849 0.0000 (  8302 PWs)   bands (ev):

   -17.0786 -16.9116 -10.0478  -9.9750  -8.1454  -8.0944  -5.2726  -4.2694
     3.6715   4.0673   7.0704   7.6031

     occupation numbers 
     1.0000   1.0000   1.0000   1.0000   1.0000   1.0000   1.0000   1.0000
     0.0000   0.0000   0.0000   0.0000

          k = 0.1667 0.4811 0.0000 (  8293 PWs)   bands (ev):

   -15.6761 -15.5273 -11.9994 -11.8970  -8.7239  -8.6608  -3.7359  -2.9069
     1.6931   2.1686   8.9776   9.3627

     occupation numbers 
     1.0000   1.0000   1.0000   1.0000   1.0000   1.0000   1.0000   1.0000
     0.0000   0.0000   0.0000   0.0000

          k = 0.1667 0.5774 0.0000 (  8280 PWs)   bands (ev):

   -14.3309 -14.2571 -13.4854 -13.4333  -8.9091  -8.8433  -2.6522  -2.2207
     0.7637   0.9740   9.4235   9.7848

     occupation numbers 
     1.0000   1.0000   1.0000   1.0000   1.0000   1.0000   1.0000   1.0000
     0.0000   0.0000   0.0000   0.0000

          k = 0.2500 0.4330 0.0000 (  8299 PWs)   bands (ev):

   -15.8299 -15.6787 -11.0379 -10.9862  -9.6700  -9.6310  -3.8489  -2.9601
     2.0490   2.4246   8.7736   9.1482

     occupation numbers 
     1.0000   1.0000   1.0000   1.0000   1.0000   1.0000   1.0000   1.0000
     0.0000   0.0000   0.0000   0.0000

          k = 0.2500 0.5292 0.0000 (  8278 PWs)   bands (ev):

   -14.3637 -14.2378 -12.5135 -12.4244 -10.3894 -10.3192  -2.3252  -1.6882
     0.5375   0.8790   9.9987  10.1954

     occupation numbers 
     1.0000   1.0000   1.0000   1.0000   1.0000   1.0000   1.0000   1.0000
     0.0000   0.0000   0.0000   0.0000

          k = 0.3333 0.5774 0.0000 (  8298 PWs)   bands (ev):

   -13.1172 -13.0496 -13.0493 -12.9877 -11.3423 -11.3419  -1.0276  -0.6249
    -0.6249  -0.1914   9.7783   9.7787

     occupation numbers 
     1.0000   1.0000   1.0000   1.0000   1.0000   1.0000   1.0000   0.5001
     0.4999   0.0000   0.0000   0.0000

     the Fermi energy is    -0.6154 ev

!    total energy              =     -48.24895400 Ry
     estimated scf accuracy    <       0.00000021 Ry
     smearing contrib. (-TS)   =      -0.00004558 Ry
     internal energy E=F+TS    =     -48.24890842 Ry

     The total energy is F=E-TS. E is the sum of the following terms:
     one-electron contribution =    -536.88704569 Ry
     hartree contribution      =     272.13418857 Ry
     xc contribution           =     -17.14341687 Ry
     ewald contribution        =     233.64736558 Ry

     convergence has been achieved in   7 iterations

     Forces acting on atoms (cartesian axes, Ry/au):

     atom    1 type  1   force =     0.00000000    0.00000000    0.00047039
     atom    2 type  1   force =     0.00000000   -0.00000000   -0.00046543
     atom    3 type  1   force =     0.00000000    0.00000000   -0.00096252
     atom    4 type  1   force =     0.00000000    0.00000000    0.00095756
     The non-local contrib.  to forces
     atom    1 type  1   force =     0.00000000    0.00000000    0.00056761
     atom    2 type  1   force =     0.00000000    0.00000000   -0.00056398
     atom    3 type  1   force =     0.00000000    0.00000000   -0.00131099
     atom    4 type  1   force =     0.00000000    0.00000000    0.00129132
     The ionic contribution  to forces
     atom    1 type  1   force =     0.00000864   -0.00000499  -14.49402169
     atom    2 type  1   force =    -0.00000864    0.00000499   14.49402169
     atom    3 type  1   force =    -0.00000865    0.00000500  -14.48748598
     atom    4 type  1   force =     0.00000865   -0.00000500   14.48748598
     The local contribution  to forces
     atom    1 type  1   force =    -0.00000000    0.00000000   14.49389367
     atom    2 type  1   force =     0.00000000   -0.00000000  -14.49429889
     atom    3 type  1   force =    -0.00000669    0.00000386   14.48772242
     atom    4 type  1   force =     0.00000669   -0.00000387  -14.48811630
     The core correction contribution to forces
     atom    1 type  1   force =    -0.00000000    0.00000000   -0.00005405
     atom    2 type  1   force =     0.00000000   -0.00000000    0.00004976
     atom    3 type  1   force =     0.00000029   -0.00000017    0.00002509
     atom    4 type  1   force =    -0.00000029    0.00000017   -0.00002765
     The Hubbard contrib.    to forces
     atom    1 type  1   force =     0.00000000    0.00000000    0.00000000
     atom    2 type  1   force =     0.00000000    0.00000000    0.00000000
     atom    3 type  1   force =     0.00000000    0.00000000    0.00000000
     atom    4 type  1   force =     0.00000000    0.00000000    0.00000000
     The SCF correction term to forces
     atom    1 type  1   force =    -0.00000000    0.00000000    0.00000000
     atom    2 type  1   force =     0.00000000   -0.00000000    0.00030145
     atom    3 type  1   force =     0.00000000   -0.00000000    0.00000000
     atom    4 type  1   force =    -0.00000000    0.00000000    0.00029968

     Total force =     0.001065     Total SCF correction =     0.000425
     SCF correction compared to forces is large: reduce conv_thr to get better values


     Computing stress (Cartesian axis) and pressure

          total   stress  (Ry/bohr**3)                   (kbar)     P=       -0.51
  -0.00000335   0.00000000   0.00000000           -0.49        0.00        0.00
   0.00000000  -0.00000335   0.00000000            0.00       -0.49        0.00
   0.00000000   0.00000000  -0.00000366            0.00        0.00       -0.54

     kinetic stress (kbar)   4703.03      0.00      0.00
                                0.00   4703.03      0.00
                                0.00      0.00   5150.91

     local   stress (kbar)-119485.98      0.00     -0.00
                                0.00-119485.97      0.00
                               -0.00      0.00 120966.35

     nonloc. stress (kbar)   -567.34      0.00      0.00
                                0.00   -567.34      0.00
                                0.00      0.00   -474.27

     hartree stress (kbar)  57897.61      0.00     -0.00
                                0.00  57897.61     -0.00
                               -0.00     -0.00 -57552.16

     exc-cor stress (kbar)   -363.20      0.00      0.00
                                0.00   -363.20      0.00
                                0.00      0.00   -363.20

     corecor stress (kbar)   -707.27      0.00      0.00
                                0.00   -707.27     -0.00
                                0.00     -0.00   -688.85

     ewald   stress (kbar)  58522.65     -0.01      0.00
                               -0.01  58522.64     -0.00
                                0.00     -0.00 -67039.31

     hubbard stress (kbar)      0.00      0.00      0.00
                                0.00      0.00      0.00
                                0.00      0.00      0.00

     DFT-D   stress (kbar)      0.00      0.00      0.00
                                0.00      0.00      0.00
                                0.00      0.00      0.00

     XDM     stress (kbar)      0.00      0.00      0.00
                                0.00      0.00      0.00
                                0.00      0.00      0.00

     dft-nl  stress (kbar)      0.00      0.00      0.00
                                0.00      0.00      0.00
                                0.00      0.00      0.00

     TS-vdW  stress (kbar)      0.00      0.00      0.00
                                0.00      0.00      0.00
                                0.00      0.00      0.00

     MDB     stress (kbar)      0.00      0.00      0.00
                                0.00      0.00      0.00
                                0.00      0.00      0.00

     3D-RISM stress (kbar)      0.00      0.00      0.00
                                0.00      0.00      0.00
                                0.00      0.00      0.00


     BFGS Geometry Optimization
     Energy error            =      0.0E+00 Ry
     Gradient error          =      9.6E-04 Ry/Bohr

     bfgs converged in   1 scf cycles and   0 bfgs steps
     (criteria: energy <  1.0E-04 Ry, force <  1.0E-03 Ry/Bohr)

     End of BFGS Geometry Optimization

     Final energy             =     -48.2489539975 Ry
Begin final coordinates

ATOMIC_POSITIONS (crystal)
C             0.0000000000        0.0000000000        0.0000000000    0   0   0
C             0.0000000000        0.0000000000        0.1655780000    0   0   1
C             0.6666670000        0.3333330000        0.0000000000    0   0   0
C             0.3333330000        0.6666670000        0.1655780000    0   0   1
End final coordinates



     Writing all to output data dir ./tmp/C2L_AB_LDA.save/

     init_run     :      0.64s CPU      0.65s WALL (       1 calls)
     electrons    :      5.62s CPU      5.63s WALL (       1 calls)
     forces       :      0.08s CPU      0.08s WALL (       1 calls)
     stress       :      0.51s CPU      0.52s WALL (       1 calls)

     Called by init_run:
     wfcinit      :      0.29s CPU      0.30s WALL (       1 calls)
     wfcinit:atom :      0.00s CPU      0.00s WALL (      19 calls)
     wfcinit:wfcr :      0.27s CPU      0.27s WALL (      19 calls)
     potinit      :      0.02s CPU      0.03s WALL (       1 calls)
     hinit0       :      0.26s CPU      0.26s WALL (       1 calls)

     Called by electrons:
     c_bands      :      5.05s CPU      5.03s WALL (       7 calls)
     sum_band     :      0.54s CPU      0.55s WALL (       7 calls)
     v_of_rho     :      0.02s CPU      0.02s WALL (       8 calls)
     v_h          :      0.01s CPU      0.01s WALL (       8 calls)
     v_xc         :      0.01s CPU      0.01s WALL (      10 calls)
     mix_rho      :      0.02s CPU      0.03s WALL (       7 calls)

     Called by c_bands:
     init_us_2    :      0.08s CPU      0.08s WALL (     323 calls)
     init_us_2:cp :      0.08s CPU      0.08s WALL (     323 calls)
     cegterg      :      4.90s CPU      4.88s WALL (     133 calls)

     Called by sum_band:
     sum_band:wei :      0.00s CPU      0.00s WALL (       7 calls)
     sum_band:loo :      0.52s CPU      0.53s WALL (       7 calls)
     sum_band:buf :      0.01s CPU      0.01s WALL (     133 calls)
     sum_band:ini :      0.03s CPU      0.03s WALL (     133 calls)

     Called by *egterg:
     cdiaghg      :      0.14s CPU      0.14s WALL (     730 calls)
     cegterg:over :      0.25s CPU      0.26s WALL (     597 calls)
     cegterg:upda :      0.21s CPU      0.21s WALL (     597 calls)
     cegterg:last :      0.24s CPU      0.18s WALL (     306 calls)
     h_psi        :      4.17s CPU      4.17s WALL (     749 calls)
     g_psi        :      0.02s CPU      0.03s WALL (     597 calls)

     Called by h_psi:
     h_psi:calbec :      0.29s CPU      0.28s WALL (     749 calls)
     vloc_psi     :      3.55s CPU      3.63s WALL (     749 calls)
     add_vuspsi   :      0.30s CPU      0.23s WALL (     749 calls)

     General routines
     calbec       :      0.38s CPU      0.37s WALL (     844 calls)
     fft          :      0.21s CPU      0.22s WALL (      31 calls)
     ffts         :      0.00s CPU      0.00s WALL (       7 calls)
     fftw         :      3.68s CPU      3.75s WALL (   11490 calls)

     Parallel routines

     PWSCF        :      6.92s CPU      6.99s WALL


   This run was terminated on:  10:10:38   4Apr2024            

=------------------------------------------------------------------------------=
   JOB DONE.
=------------------------------------------------------------------------------=
