
     Program PWSCF v.6.7MaX starts on 14Feb2024 at 11:49:36 

     This program is part of the open-source Quantum ESPRESSO suite
     for quantum simulation of materials; please cite
         "P. Giannozzi et al., J. Phys.:Condens. Matter 21 395502 (2009);
         "P. Giannozzi et al., J. Phys.:Condens. Matter 29 465901 (2017);
          URL http://www.quantum-espresso.org", 
     in publications or presentations arising from this work. More details at
     http://www.quantum-espresso.org/quote

     Parallel version (MPI), running on     1 processors

     MPI processes distributed on     1 nodes
     Waiting for input...
     Reading input from standard input

     Current dimensions of program PWSCF are:
     Max number of different atomic species (ntypx) = 10
     Max number of k-points (npk) =  40000
     Max angular momentum in pseudopotentials (lmaxx) =  3
     Message from routine read_pp_mesh:
     mesh size missing, using the one in header

     Subspace diagonalization in iterative solution of the eigenvalue problem:
     a serial algorithm will be used


     G-vector sticks info
     --------------------
     sticks:   dense  smooth     PW     G-vecs:    dense   smooth      PW
     Sum         121     121     37                 6307     6307    1307



     bravais-lattice index     =            4
     lattice parameter (alat)  =       4.6350  a.u.
     unit-cell volume          =     517.4056 (a.u.)^3
     number of atoms/cell      =            2
     number of atomic types    =            1
     number of electrons       =         8.00
     number of Kohn-Sham states=            8
     kinetic-energy cutoff     =      20.0000  Ry
     charge density cutoff     =      80.0000  Ry
     scf convergence threshold =      1.0E-06
     mixing beta               =       0.7000
     number of iterations used =            8  plain     mixing
     Exchange-correlation= PZ
                           (   1   1   0   0   0   0   0)

     celldm(1)=   4.635000  celldm(2)=   0.000000  celldm(3)=   6.000000
     celldm(4)=   0.000000  celldm(5)=   0.000000  celldm(6)=   0.000000

     crystal axes: (cart. coord. in units of alat)
               a(1) = (   1.000000   0.000000   0.000000 )  
               a(2) = (  -0.500000   0.866025   0.000000 )  
               a(3) = (   0.000000   0.000000   6.000000 )  

     reciprocal axes: (cart. coord. in units 2 pi/alat)
               b(1) = (  1.000000  0.577350 -0.000000 )  
               b(2) = (  0.000000  1.154701  0.000000 )  
               b(3) = (  0.000000 -0.000000  0.166667 )  


     PseudoPot. # 1 for C  read from file:
     ../../../../Pseudo/LDA/C.upf
     MD5 check sum: 9ef9f0a1c6c947210c7947280cfb54e2
     Pseudo is Norm-conserving + core correction, Zval =  4.0
     Generated using ONCVPSP code by D. R. Hamann
     Using radial grid of 1230 points,  4 beta functions with: 
                l(1) =   0
                l(2) =   0
                l(3) =   1
                l(4) =   1

     atomic species   valence    mass     pseudopotential
        C              4.00    12.01100     C ( 1.00)

     24 Sym. Ops., with inversion, found (12 have fractional translation)


                                    s                        frac. trans.

      isym =  1     identity                                     

 cryst.   s( 1) = (     1          0          0      )
                  (     0          1          0      )
                  (     0          0          1      )

 cart.    s( 1) = (  1.0000000  0.0000000  0.0000000 )
                  (  0.0000000  1.0000000  0.0000000 )
                  (  0.0000000  0.0000000  1.0000000 )


      isym =  2     180 deg rotation - cart. axis [0,0,1]        

 cryst.   s( 2) = (    -1          0          0      )    f =( -0.3333333 )
                  (     0         -1          0      )       (  0.3333333 )
                  (     0          0          1      )       (  0.0000000 )

 cart.    s( 2) = ( -1.0000000  0.0000000  0.0000000 )    f =( -0.5000000 )
                  (  0.0000000 -1.0000000  0.0000000 )       (  0.2886751 )
                  (  0.0000000  0.0000000  1.0000000 )       (  0.0000000 )


      isym =  3     180 deg rotation - cart. axis [0,1,0]        

 cryst.   s( 3) = (    -1          0          0      )
                  (     1          1          0      )
                  (     0          0         -1      )

 cart.    s( 3) = ( -1.0000000  0.0000000  0.0000000 )
                  (  0.0000000  1.0000000  0.0000000 )
                  (  0.0000000  0.0000000 -1.0000000 )


      isym =  4     180 deg rotation - cart. axis [1,0,0]        

 cryst.   s( 4) = (     1          0          0      )    f =( -0.3333333 )
                  (    -1         -1          0      )       (  0.3333333 )
                  (     0          0         -1      )       (  0.0000000 )

 cart.    s( 4) = (  1.0000000  0.0000000  0.0000000 )    f =( -0.5000000 )
                  (  0.0000000 -1.0000000  0.0000000 )       (  0.2886751 )
                  (  0.0000000  0.0000000 -1.0000000 )       (  0.0000000 )


      isym =  5      60 deg rotation - cryst. axis [0,0,1]       

 cryst.   s( 5) = (     1          1          0      )    f =( -0.3333333 )
                  (    -1          0          0      )       (  0.3333333 )
                  (     0          0          1      )       (  0.0000000 )

 cart.    s( 5) = (  0.5000000 -0.8660254  0.0000000 )    f =( -0.5000000 )
                  (  0.8660254  0.5000000  0.0000000 )       (  0.2886751 )
                  (  0.0000000  0.0000000  1.0000000 )       (  0.0000000 )


      isym =  6      60 deg rotation - cryst. axis [0,0,-1]      

 cryst.   s( 6) = (     0         -1          0      )    f =( -0.3333333 )
                  (     1          1          0      )       (  0.3333333 )
                  (     0          0          1      )       (  0.0000000 )

 cart.    s( 6) = (  0.5000000  0.8660254  0.0000000 )    f =( -0.5000000 )
                  ( -0.8660254  0.5000000  0.0000000 )       (  0.2886751 )
                  (  0.0000000  0.0000000  1.0000000 )       (  0.0000000 )


      isym =  7     120 deg rotation - cryst. axis [0,0,1]       

 cryst.   s( 7) = (     0          1          0      )
                  (    -1         -1          0      )
                  (     0          0          1      )

 cart.    s( 7) = ( -0.5000000 -0.8660254  0.0000000 )
                  (  0.8660254 -0.5000000  0.0000000 )
                  (  0.0000000  0.0000000  1.0000000 )


      isym =  8     120 deg rotation - cryst. axis [0,0,-1]      

 cryst.   s( 8) = (    -1         -1          0      )
                  (     1          0          0      )
                  (     0          0          1      )

 cart.    s( 8) = ( -0.5000000  0.8660254  0.0000000 )
                  ( -0.8660254 -0.5000000  0.0000000 )
                  (  0.0000000  0.0000000  1.0000000 )


      isym =  9     180 deg rotation - cryst. axis [1,-1,0]      

 cryst.   s( 9) = (     0         -1          0      )
                  (    -1          0          0      )
                  (     0          0         -1      )

 cart.    s( 9) = (  0.5000000 -0.8660254  0.0000000 )
                  ( -0.8660254 -0.5000000  0.0000000 )
                  (  0.0000000  0.0000000 -1.0000000 )


      isym = 10     180 deg rotation - cryst. axis [2,1,0]       

 cryst.   s(10) = (     1          1          0      )
                  (     0         -1          0      )
                  (     0          0         -1      )

 cart.    s(10) = (  0.5000000  0.8660254  0.0000000 )
                  (  0.8660254 -0.5000000  0.0000000 )
                  (  0.0000000  0.0000000 -1.0000000 )


      isym = 11     180 deg rotation - cryst. axis [0,1,0]       

 cryst.   s(11) = (    -1         -1          0      )    f =( -0.3333333 )
                  (     0          1          0      )       (  0.3333333 )
                  (     0          0         -1      )       (  0.0000000 )

 cart.    s(11) = ( -0.5000000 -0.8660254  0.0000000 )    f =( -0.5000000 )
                  ( -0.8660254  0.5000000  0.0000000 )       (  0.2886751 )
                  (  0.0000000  0.0000000 -1.0000000 )       (  0.0000000 )


      isym = 12     180 deg rotation - cryst. axis [1,1,0]       

 cryst.   s(12) = (     0          1          0      )    f =( -0.3333333 )
                  (     1          0          0      )       (  0.3333333 )
                  (     0          0         -1      )       (  0.0000000 )

 cart.    s(12) = ( -0.5000000  0.8660254  0.0000000 )    f =( -0.5000000 )
                  (  0.8660254  0.5000000  0.0000000 )       (  0.2886751 )
                  (  0.0000000  0.0000000 -1.0000000 )       (  0.0000000 )


      isym = 13     inversion                                    

 cryst.   s(13) = (    -1          0          0      )    f =( -0.3333333 )
                  (     0         -1          0      )       (  0.3333333 )
                  (     0          0         -1      )       (  0.0000000 )

 cart.    s(13) = ( -1.0000000  0.0000000  0.0000000 )    f =( -0.5000000 )
                  (  0.0000000 -1.0000000  0.0000000 )       (  0.2886751 )
                  (  0.0000000  0.0000000 -1.0000000 )       (  0.0000000 )


      isym = 14     inv. 180 deg rotation - cart. axis [0,0,1]   

 cryst.   s(14) = (     1          0          0      )
                  (     0          1          0      )
                  (     0          0         -1      )

 cart.    s(14) = (  1.0000000  0.0000000  0.0000000 )
                  (  0.0000000  1.0000000  0.0000000 )
                  (  0.0000000  0.0000000 -1.0000000 )


      isym = 15     inv. 180 deg rotation - cart. axis [0,1,0]   

 cryst.   s(15) = (     1          0          0      )    f =( -0.3333333 )
                  (    -1         -1          0      )       (  0.3333333 )
                  (     0          0          1      )       (  0.0000000 )

 cart.    s(15) = (  1.0000000  0.0000000  0.0000000 )    f =( -0.5000000 )
                  (  0.0000000 -1.0000000  0.0000000 )       (  0.2886751 )
                  (  0.0000000  0.0000000  1.0000000 )       (  0.0000000 )


      isym = 16     inv. 180 deg rotation - cart. axis [1,0,0]   

 cryst.   s(16) = (    -1          0          0      )
                  (     1          1          0      )
                  (     0          0          1      )

 cart.    s(16) = ( -1.0000000  0.0000000  0.0000000 )
                  (  0.0000000  1.0000000  0.0000000 )
                  (  0.0000000  0.0000000  1.0000000 )


      isym = 17     inv.  60 deg rotation - cryst. axis [0,0,1]  

 cryst.   s(17) = (    -1         -1          0      )
                  (     1          0          0      )
                  (     0          0         -1      )

 cart.    s(17) = ( -0.5000000  0.8660254  0.0000000 )
                  ( -0.8660254 -0.5000000  0.0000000 )
                  (  0.0000000  0.0000000 -1.0000000 )


      isym = 18     inv.  60 deg rotation - cryst. axis [0,0,-1] 

 cryst.   s(18) = (     0          1          0      )
                  (    -1         -1          0      )
                  (     0          0         -1      )

 cart.    s(18) = ( -0.5000000 -0.8660254  0.0000000 )
                  (  0.8660254 -0.5000000  0.0000000 )
                  (  0.0000000  0.0000000 -1.0000000 )


      isym = 19     inv. 120 deg rotation - cryst. axis [0,0,1]  

 cryst.   s(19) = (     0         -1          0      )    f =( -0.3333333 )
                  (     1          1          0      )       (  0.3333333 )
                  (     0          0         -1      )       (  0.0000000 )

 cart.    s(19) = (  0.5000000  0.8660254  0.0000000 )    f =( -0.5000000 )
                  ( -0.8660254  0.5000000  0.0000000 )       (  0.2886751 )
                  (  0.0000000  0.0000000 -1.0000000 )       (  0.0000000 )


      isym = 20     inv. 120 deg rotation - cryst. axis [0,0,-1] 

 cryst.   s(20) = (     1          1          0      )    f =( -0.3333333 )
                  (    -1          0          0      )       (  0.3333333 )
                  (     0          0         -1      )       (  0.0000000 )

 cart.    s(20) = (  0.5000000 -0.8660254  0.0000000 )    f =( -0.5000000 )
                  (  0.8660254  0.5000000  0.0000000 )       (  0.2886751 )
                  (  0.0000000  0.0000000 -1.0000000 )       (  0.0000000 )


      isym = 21     inv. 180 deg rotation - cryst. axis [1,-1,0] 

 cryst.   s(21) = (     0          1          0      )    f =( -0.3333333 )
                  (     1          0          0      )       (  0.3333333 )
                  (     0          0          1      )       (  0.0000000 )

 cart.    s(21) = ( -0.5000000  0.8660254  0.0000000 )    f =( -0.5000000 )
                  (  0.8660254  0.5000000  0.0000000 )       (  0.2886751 )
                  (  0.0000000  0.0000000  1.0000000 )       (  0.0000000 )


      isym = 22     inv. 180 deg rotation - cryst. axis [2,1,0]  

 cryst.   s(22) = (    -1         -1          0      )    f =( -0.3333333 )
                  (     0          1          0      )       (  0.3333333 )
                  (     0          0          1      )       (  0.0000000 )

 cart.    s(22) = ( -0.5000000 -0.8660254  0.0000000 )    f =( -0.5000000 )
                  ( -0.8660254  0.5000000  0.0000000 )       (  0.2886751 )
                  (  0.0000000  0.0000000  1.0000000 )       (  0.0000000 )


      isym = 23     inv. 180 deg rotation - cryst. axis [0,1,0]  

 cryst.   s(23) = (     1          1          0      )
                  (     0         -1          0      )
                  (     0          0          1      )

 cart.    s(23) = (  0.5000000  0.8660254  0.0000000 )
                  (  0.8660254 -0.5000000  0.0000000 )
                  (  0.0000000  0.0000000  1.0000000 )


      isym = 24     inv. 180 deg rotation - cryst. axis [1,1,0]  

 cryst.   s(24) = (     0         -1          0      )
                  (    -1          0          0      )
                  (     0          0          1      )

 cart.    s(24) = (  0.5000000 -0.8660254  0.0000000 )
                  ( -0.8660254 -0.5000000  0.0000000 )
                  (  0.0000000  0.0000000  1.0000000 )


     point group D_6h(6/mmm)
     there are 12 classes
     the character table:

       E     2C6   2C3   C2    3C2'  3C2'' i     2S3   2S6   s_h   3s_d  3s_v 
A_1g   1.00  1.00  1.00  1.00  1.00  1.00  1.00  1.00  1.00  1.00  1.00  1.00
A_2g   1.00  1.00  1.00  1.00 -1.00 -1.00  1.00  1.00  1.00  1.00 -1.00 -1.00
B_1g   1.00 -1.00  1.00 -1.00  1.00 -1.00  1.00 -1.00  1.00 -1.00  1.00 -1.00
B_2g   1.00 -1.00  1.00 -1.00 -1.00  1.00  1.00 -1.00  1.00 -1.00 -1.00  1.00
E_1g   2.00  1.00 -1.00 -2.00  0.00  0.00  2.00  1.00 -1.00 -2.00  0.00  0.00
E_2g   2.00 -1.00 -1.00  2.00  0.00  0.00  2.00 -1.00 -1.00  2.00  0.00  0.00
A_1u   1.00  1.00  1.00  1.00  1.00  1.00 -1.00 -1.00 -1.00 -1.00 -1.00 -1.00
A_2u   1.00  1.00  1.00  1.00 -1.00 -1.00 -1.00 -1.00 -1.00 -1.00  1.00  1.00
B_1u   1.00 -1.00  1.00 -1.00  1.00 -1.00 -1.00  1.00 -1.00  1.00 -1.00  1.00
B_2u   1.00 -1.00  1.00 -1.00 -1.00  1.00 -1.00  1.00 -1.00  1.00  1.00 -1.00
E_1u   2.00  1.00 -1.00 -2.00  0.00  0.00 -2.00 -1.00  1.00  2.00  0.00  0.00
E_2u   2.00 -1.00 -1.00  2.00  0.00  0.00 -2.00  1.00  1.00 -2.00  0.00  0.00

     the symmetry operations in each class and the name of the first element:

     E        1
          identity                                               
     2C6      5    6
           60 deg rotation - cryst. axis [0,0,1]                 
     2C3      7    8
          120 deg rotation - cryst. axis [0,0,1]                 
     C2       2
          180 deg rotation - cart. axis [0,0,1]                  
     3C2'     4   12   11
          180 deg rotation - cart. axis [1,0,0]                  
     3C2''    3    9   10
          180 deg rotation - cart. axis [0,1,0]                  
     i       13
          inversion                                              
     2S3     17   18
          inv.  60 deg rotation - cryst. axis [0,0,1]            
     2S6     19   20
          inv. 120 deg rotation - cryst. axis [0,0,1]            
     s_h     14
          inv. 180 deg rotation - cart. axis [0,0,1]             
     3s_d    16   24   23
          inv. 180 deg rotation - cart. axis [1,0,0]             
     3s_v    15   21   22
          inv. 180 deg rotation - cart. axis [0,1,0]             

   Cartesian axes

     site n.     atom                  positions (alat units)
         1           C   tau(   1) = (   0.0000000   0.0000000   0.0000000  )
         2           C   tau(   2) = (  -0.0000000   0.5773503   0.0000000  )

   Crystallographic axes

     site n.     atom                  positions (cryst. coord.)
         1           C   tau(   1) = (  0.0000000  0.0000000  0.0000000  )
         2           C   tau(   2) = (  0.3333333  0.6666667  0.0000000  )

     number of k points=   102  Marzari-Vanderbilt smearing, width (Ry)=  0.0100
                       cart. coord. in units 2pi/alat
        k(    1) = (   0.0000000   0.0000000   0.0000000), wk =   0.0019531
        k(    2) = (   0.0000000   0.0360844   0.0000000), wk =   0.0117188
        k(    3) = (   0.0000000   0.0721688   0.0000000), wk =   0.0117188
        k(    4) = (   0.0000000   0.1082532   0.0000000), wk =   0.0117188
        k(    5) = (   0.0000000   0.1443376   0.0000000), wk =   0.0117188
        k(    6) = (   0.0000000   0.1804220   0.0000000), wk =   0.0117188
        k(    7) = (   0.0000000   0.2165064   0.0000000), wk =   0.0117188
        k(    8) = (   0.0000000   0.2525907   0.0000000), wk =   0.0117188
        k(    9) = (   0.0000000   0.2886751   0.0000000), wk =   0.0117188
        k(   10) = (   0.0000000   0.3247595   0.0000000), wk =   0.0117188
        k(   11) = (   0.0000000   0.3608439   0.0000000), wk =   0.0117188
        k(   12) = (   0.0000000   0.3969283   0.0000000), wk =   0.0117188
        k(   13) = (   0.0000000   0.4330127   0.0000000), wk =   0.0117188
        k(   14) = (   0.0000000   0.4690971   0.0000000), wk =   0.0117188
        k(   15) = (   0.0000000   0.5051815   0.0000000), wk =   0.0117188
        k(   16) = (   0.0000000   0.5412659   0.0000000), wk =   0.0117188
        k(   17) = (   0.0000000  -0.5773503   0.0000000), wk =   0.0058594
        k(   18) = (   0.0312500   0.0541266   0.0000000), wk =   0.0117188
        k(   19) = (   0.0312500   0.0902110   0.0000000), wk =   0.0234375
        k(   20) = (   0.0312500   0.1262954   0.0000000), wk =   0.0234375
        k(   21) = (   0.0312500   0.1623798   0.0000000), wk =   0.0234375
        k(   22) = (   0.0312500   0.1984642   0.0000000), wk =   0.0234375
        k(   23) = (   0.0312500   0.2345485   0.0000000), wk =   0.0234375
        k(   24) = (   0.0312500   0.2706329   0.0000000), wk =   0.0234375
        k(   25) = (   0.0312500   0.3067173   0.0000000), wk =   0.0234375
        k(   26) = (   0.0312500   0.3428017   0.0000000), wk =   0.0234375
        k(   27) = (   0.0312500   0.3788861   0.0000000), wk =   0.0234375
        k(   28) = (   0.0312500   0.4149705   0.0000000), wk =   0.0234375
        k(   29) = (   0.0312500   0.4510549   0.0000000), wk =   0.0234375
        k(   30) = (   0.0312500   0.4871393   0.0000000), wk =   0.0234375
        k(   31) = (   0.0312500   0.5232237   0.0000000), wk =   0.0234375
        k(   32) = (   0.0312500   0.5593081   0.0000000), wk =   0.0234375
        k(   33) = (   0.0625000   0.1082532   0.0000000), wk =   0.0117188
        k(   34) = (   0.0625000   0.1443376   0.0000000), wk =   0.0234375
        k(   35) = (   0.0625000   0.1804220   0.0000000), wk =   0.0234375
        k(   36) = (   0.0625000   0.2165064   0.0000000), wk =   0.0234375
        k(   37) = (   0.0625000   0.2525907   0.0000000), wk =   0.0234375
        k(   38) = (   0.0625000   0.2886751   0.0000000), wk =   0.0234375
        k(   39) = (   0.0625000   0.3247595   0.0000000), wk =   0.0234375
        k(   40) = (   0.0625000   0.3608439   0.0000000), wk =   0.0234375
        k(   41) = (   0.0625000   0.3969283   0.0000000), wk =   0.0234375
        k(   42) = (   0.0625000   0.4330127   0.0000000), wk =   0.0234375
        k(   43) = (   0.0625000   0.4690971   0.0000000), wk =   0.0234375
        k(   44) = (   0.0625000   0.5051815   0.0000000), wk =   0.0234375
        k(   45) = (   0.0625000   0.5412659   0.0000000), wk =   0.0234375
        k(   46) = (   0.0625000   0.5773503   0.0000000), wk =   0.0117188
        k(   47) = (   0.0937500   0.1623798   0.0000000), wk =   0.0117188
        k(   48) = (   0.0937500   0.1984642   0.0000000), wk =   0.0234375
        k(   49) = (   0.0937500   0.2345485   0.0000000), wk =   0.0234375
        k(   50) = (   0.0937500   0.2706329   0.0000000), wk =   0.0234375
        k(   51) = (   0.0937500   0.3067173   0.0000000), wk =   0.0234375
        k(   52) = (   0.0937500   0.3428017   0.0000000), wk =   0.0234375
        k(   53) = (   0.0937500   0.3788861   0.0000000), wk =   0.0234375
        k(   54) = (   0.0937500   0.4149705   0.0000000), wk =   0.0234375
        k(   55) = (   0.0937500   0.4510549   0.0000000), wk =   0.0234375
        k(   56) = (   0.0937500   0.4871393   0.0000000), wk =   0.0234375
        k(   57) = (   0.0937500   0.5232237   0.0000000), wk =   0.0234375
        k(   58) = (   0.0937500   0.5593081   0.0000000), wk =   0.0234375
        k(   59) = (   0.1250000   0.2165064   0.0000000), wk =   0.0117188
        k(   60) = (   0.1250000   0.2525907   0.0000000), wk =   0.0234375
        k(   61) = (   0.1250000   0.2886751   0.0000000), wk =   0.0234375
        k(   62) = (   0.1250000   0.3247595   0.0000000), wk =   0.0234375
        k(   63) = (   0.1250000   0.3608439   0.0000000), wk =   0.0234375
        k(   64) = (   0.1250000   0.3969283   0.0000000), wk =   0.0234375
        k(   65) = (   0.1250000   0.4330127   0.0000000), wk =   0.0234375
        k(   66) = (   0.1250000   0.4690971   0.0000000), wk =   0.0234375
        k(   67) = (   0.1250000   0.5051815   0.0000000), wk =   0.0234375
        k(   68) = (   0.1250000   0.5412659   0.0000000), wk =   0.0234375
        k(   69) = (   0.1250000   0.5773503   0.0000000), wk =   0.0117188
        k(   70) = (   0.1562500   0.2706329   0.0000000), wk =   0.0117188
        k(   71) = (   0.1562500   0.3067173   0.0000000), wk =   0.0234375
        k(   72) = (   0.1562500   0.3428017   0.0000000), wk =   0.0234375
        k(   73) = (   0.1562500   0.3788861   0.0000000), wk =   0.0234375
        k(   74) = (   0.1562500   0.4149705   0.0000000), wk =   0.0234375
        k(   75) = (   0.1562500   0.4510549   0.0000000), wk =   0.0234375
        k(   76) = (   0.1562500   0.4871393   0.0000000), wk =   0.0234375
        k(   77) = (   0.1562500   0.5232237   0.0000000), wk =   0.0234375
        k(   78) = (   0.1562500   0.5593081   0.0000000), wk =   0.0234375
        k(   79) = (   0.1875000   0.3247595   0.0000000), wk =   0.0117188
        k(   80) = (   0.1875000   0.3608439   0.0000000), wk =   0.0234375
        k(   81) = (   0.1875000   0.3969283   0.0000000), wk =   0.0234375
        k(   82) = (   0.1875000   0.4330127   0.0000000), wk =   0.0234375
        k(   83) = (   0.1875000   0.4690971   0.0000000), wk =   0.0234375
        k(   84) = (   0.1875000   0.5051815   0.0000000), wk =   0.0234375
        k(   85) = (   0.1875000   0.5412659   0.0000000), wk =   0.0234375
        k(   86) = (   0.1875000   0.5773503   0.0000000), wk =   0.0117188
        k(   87) = (   0.2187500   0.3788861   0.0000000), wk =   0.0117188
        k(   88) = (   0.2187500   0.4149705   0.0000000), wk =   0.0234375
        k(   89) = (   0.2187500   0.4510549   0.0000000), wk =   0.0234375
        k(   90) = (   0.2187500   0.4871393   0.0000000), wk =   0.0234375
        k(   91) = (   0.2187500   0.5232237   0.0000000), wk =   0.0234375
        k(   92) = (   0.2187500   0.5593081   0.0000000), wk =   0.0234375
        k(   93) = (   0.2500000   0.4330127   0.0000000), wk =   0.0117188
        k(   94) = (   0.2500000   0.4690971   0.0000000), wk =   0.0234375
        k(   95) = (   0.2500000   0.5051815   0.0000000), wk =   0.0234375
        k(   96) = (   0.2500000   0.5412659   0.0000000), wk =   0.0234375
        k(   97) = (   0.2500000   0.5773503   0.0000000), wk =   0.0117188
        k(   98) = (   0.2812500   0.4871393   0.0000000), wk =   0.0117188
        k(   99) = (   0.2812500   0.5232237   0.0000000), wk =   0.0234375
        k(  100) = (   0.2812500   0.5593081   0.0000000), wk =   0.0234375
        k(  101) = (   0.3125000   0.5412659   0.0000000), wk =   0.0117188
        k(  102) = (   0.3125000   0.5773503   0.0000000), wk =   0.0117188

                       cryst. coord.
        k(    1) = (   0.0000000   0.0000000   0.0000000), wk =   0.0019531
        k(    2) = (   0.0000000   0.0312500   0.0000000), wk =   0.0117188
        k(    3) = (   0.0000000   0.0625000   0.0000000), wk =   0.0117188
        k(    4) = (   0.0000000   0.0937500   0.0000000), wk =   0.0117188
        k(    5) = (   0.0000000   0.1250000   0.0000000), wk =   0.0117188
        k(    6) = (   0.0000000   0.1562500   0.0000000), wk =   0.0117188
        k(    7) = (   0.0000000   0.1875000   0.0000000), wk =   0.0117188
        k(    8) = (   0.0000000   0.2187500   0.0000000), wk =   0.0117188
        k(    9) = (   0.0000000   0.2500000   0.0000000), wk =   0.0117188
        k(   10) = (   0.0000000   0.2812500   0.0000000), wk =   0.0117188
        k(   11) = (   0.0000000   0.3125000   0.0000000), wk =   0.0117188
        k(   12) = (   0.0000000   0.3437500   0.0000000), wk =   0.0117188
        k(   13) = (   0.0000000   0.3750000   0.0000000), wk =   0.0117188
        k(   14) = (   0.0000000   0.4062500   0.0000000), wk =   0.0117188
        k(   15) = (   0.0000000   0.4375000   0.0000000), wk =   0.0117188
        k(   16) = (   0.0000000   0.4687500   0.0000000), wk =   0.0117188
        k(   17) = (   0.0000000  -0.5000000   0.0000000), wk =   0.0058594
        k(   18) = (   0.0312500   0.0312500   0.0000000), wk =   0.0117188
        k(   19) = (   0.0312500   0.0625000   0.0000000), wk =   0.0234375
        k(   20) = (   0.0312500   0.0937500   0.0000000), wk =   0.0234375
        k(   21) = (   0.0312500   0.1250000   0.0000000), wk =   0.0234375
        k(   22) = (   0.0312500   0.1562500   0.0000000), wk =   0.0234375
        k(   23) = (   0.0312500   0.1875000   0.0000000), wk =   0.0234375
        k(   24) = (   0.0312500   0.2187500   0.0000000), wk =   0.0234375
        k(   25) = (   0.0312500   0.2500000   0.0000000), wk =   0.0234375
        k(   26) = (   0.0312500   0.2812500   0.0000000), wk =   0.0234375
        k(   27) = (   0.0312500   0.3125000   0.0000000), wk =   0.0234375
        k(   28) = (   0.0312500   0.3437500   0.0000000), wk =   0.0234375
        k(   29) = (   0.0312500   0.3750000   0.0000000), wk =   0.0234375
        k(   30) = (   0.0312500   0.4062500   0.0000000), wk =   0.0234375
        k(   31) = (   0.0312500   0.4375000   0.0000000), wk =   0.0234375
        k(   32) = (   0.0312500   0.4687500   0.0000000), wk =   0.0234375
        k(   33) = (   0.0625000   0.0625000   0.0000000), wk =   0.0117188
        k(   34) = (   0.0625000   0.0937500   0.0000000), wk =   0.0234375
        k(   35) = (   0.0625000   0.1250000   0.0000000), wk =   0.0234375
        k(   36) = (   0.0625000   0.1562500   0.0000000), wk =   0.0234375
        k(   37) = (   0.0625000   0.1875000   0.0000000), wk =   0.0234375
        k(   38) = (   0.0625000   0.2187500   0.0000000), wk =   0.0234375
        k(   39) = (   0.0625000   0.2500000   0.0000000), wk =   0.0234375
        k(   40) = (   0.0625000   0.2812500   0.0000000), wk =   0.0234375
        k(   41) = (   0.0625000   0.3125000   0.0000000), wk =   0.0234375
        k(   42) = (   0.0625000   0.3437500   0.0000000), wk =   0.0234375
        k(   43) = (   0.0625000   0.3750000   0.0000000), wk =   0.0234375
        k(   44) = (   0.0625000   0.4062500   0.0000000), wk =   0.0234375
        k(   45) = (   0.0625000   0.4375000   0.0000000), wk =   0.0234375
        k(   46) = (   0.0625000   0.4687500   0.0000000), wk =   0.0117188
        k(   47) = (   0.0937500   0.0937500   0.0000000), wk =   0.0117188
        k(   48) = (   0.0937500   0.1250000   0.0000000), wk =   0.0234375
        k(   49) = (   0.0937500   0.1562500   0.0000000), wk =   0.0234375
        k(   50) = (   0.0937500   0.1875000   0.0000000), wk =   0.0234375
        k(   51) = (   0.0937500   0.2187500   0.0000000), wk =   0.0234375
        k(   52) = (   0.0937500   0.2500000   0.0000000), wk =   0.0234375
        k(   53) = (   0.0937500   0.2812500   0.0000000), wk =   0.0234375
        k(   54) = (   0.0937500   0.3125000   0.0000000), wk =   0.0234375
        k(   55) = (   0.0937500   0.3437500   0.0000000), wk =   0.0234375
        k(   56) = (   0.0937500   0.3750000   0.0000000), wk =   0.0234375
        k(   57) = (   0.0937500   0.4062500   0.0000000), wk =   0.0234375
        k(   58) = (   0.0937500   0.4375000   0.0000000), wk =   0.0234375
        k(   59) = (   0.1250000   0.1250000   0.0000000), wk =   0.0117188
        k(   60) = (   0.1250000   0.1562500   0.0000000), wk =   0.0234375
        k(   61) = (   0.1250000   0.1875000   0.0000000), wk =   0.0234375
        k(   62) = (   0.1250000   0.2187500   0.0000000), wk =   0.0234375
        k(   63) = (   0.1250000   0.2500000   0.0000000), wk =   0.0234375
        k(   64) = (   0.1250000   0.2812500   0.0000000), wk =   0.0234375
        k(   65) = (   0.1250000   0.3125000   0.0000000), wk =   0.0234375
        k(   66) = (   0.1250000   0.3437500   0.0000000), wk =   0.0234375
        k(   67) = (   0.1250000   0.3750000   0.0000000), wk =   0.0234375
        k(   68) = (   0.1250000   0.4062500   0.0000000), wk =   0.0234375
        k(   69) = (   0.1250000   0.4375000   0.0000000), wk =   0.0117188
        k(   70) = (   0.1562500   0.1562500   0.0000000), wk =   0.0117188
        k(   71) = (   0.1562500   0.1875000   0.0000000), wk =   0.0234375
        k(   72) = (   0.1562500   0.2187500   0.0000000), wk =   0.0234375
        k(   73) = (   0.1562500   0.2500000   0.0000000), wk =   0.0234375
        k(   74) = (   0.1562500   0.2812500   0.0000000), wk =   0.0234375
        k(   75) = (   0.1562500   0.3125000   0.0000000), wk =   0.0234375
        k(   76) = (   0.1562500   0.3437500   0.0000000), wk =   0.0234375
        k(   77) = (   0.1562500   0.3750000   0.0000000), wk =   0.0234375
        k(   78) = (   0.1562500   0.4062500   0.0000000), wk =   0.0234375
        k(   79) = (   0.1875000   0.1875000   0.0000000), wk =   0.0117188
        k(   80) = (   0.1875000   0.2187500   0.0000000), wk =   0.0234375
        k(   81) = (   0.1875000   0.2500000   0.0000000), wk =   0.0234375
        k(   82) = (   0.1875000   0.2812500   0.0000000), wk =   0.0234375
        k(   83) = (   0.1875000   0.3125000   0.0000000), wk =   0.0234375
        k(   84) = (   0.1875000   0.3437500   0.0000000), wk =   0.0234375
        k(   85) = (   0.1875000   0.3750000   0.0000000), wk =   0.0234375
        k(   86) = (   0.1875000   0.4062500   0.0000000), wk =   0.0117188
        k(   87) = (   0.2187500   0.2187500   0.0000000), wk =   0.0117188
        k(   88) = (   0.2187500   0.2500000   0.0000000), wk =   0.0234375
        k(   89) = (   0.2187500   0.2812500   0.0000000), wk =   0.0234375
        k(   90) = (   0.2187500   0.3125000   0.0000000), wk =   0.0234375
        k(   91) = (   0.2187500   0.3437500   0.0000000), wk =   0.0234375
        k(   92) = (   0.2187500   0.3750000   0.0000000), wk =   0.0234375
        k(   93) = (   0.2500000   0.2500000   0.0000000), wk =   0.0117188
        k(   94) = (   0.2500000   0.2812500   0.0000000), wk =   0.0234375
        k(   95) = (   0.2500000   0.3125000   0.0000000), wk =   0.0234375
        k(   96) = (   0.2500000   0.3437500   0.0000000), wk =   0.0234375
        k(   97) = (   0.2500000   0.3750000   0.0000000), wk =   0.0117188
        k(   98) = (   0.2812500   0.2812500   0.0000000), wk =   0.0117188
        k(   99) = (   0.2812500   0.3125000   0.0000000), wk =   0.0234375
        k(  100) = (   0.2812500   0.3437500   0.0000000), wk =   0.0234375
        k(  101) = (   0.3125000   0.3125000   0.0000000), wk =   0.0117188
        k(  102) = (   0.3125000   0.3437500   0.0000000), wk =   0.0117188

     Dense  grid:     6307 G-vectors     FFT dimensions: (  15,  15,  80)

     Dynamical RAM for                 wfc:       0.10 MB

     Dynamical RAM for     wfc (w. buffer):       9.82 MB

     Dynamical RAM for           str. fact:       0.10 MB

     Dynamical RAM for           local pot:       0.00 MB

     Dynamical RAM for          nlocal pot:       0.19 MB

     Dynamical RAM for                qrad:       0.21 MB

     Dynamical RAM for          rho,v,vnew:       0.70 MB

     Dynamical RAM for               rhoin:       0.23 MB

     Dynamical RAM for            rho*nmix:       1.54 MB

     Dynamical RAM for           G-vectors:       0.41 MB

     Dynamical RAM for          h,s,v(r/c):       0.01 MB

     Dynamical RAM for          <psi|beta>:       0.00 MB

     Dynamical RAM for                 psi:       0.19 MB

     Dynamical RAM for                hpsi:       0.19 MB

     Dynamical RAM for      wfcinit/wfcrot:       0.19 MB

     Estimated static dynamical RAM per process >      14.07 MB

     Estimated max dynamical RAM per process >      14.47 MB

     Check: negative core charge=   -0.000072

     Initial potential from superposition of free atoms

     starting charge    7.99992, renormalised to    8.00000

     negative rho (up, down):  9.135E-03 0.000E+00
     Starting wfcs are    8 randomized atomic wfcs

     total cpu time spent up to now is        0.2 secs

     Self-consistent Calculation

     iteration #  1     ecut=    20.00 Ry     beta= 0.70
     Davidson diagonalization with overlap
     ethr =  1.00E-02,  avg # of iterations =  7.0

     negative rho (up, down):  2.411E-03 0.000E+00

     total cpu time spent up to now is        1.1 secs

     total energy              =     -23.40080002 Ry
     estimated scf accuracy    <       0.12321567 Ry

     iteration #  2     ecut=    20.00 Ry     beta= 0.70
     Davidson diagonalization with overlap
     ethr =  1.54E-03,  avg # of iterations =  3.5

     negative rho (up, down):  3.529E-04 0.000E+00

     total cpu time spent up to now is        1.7 secs

     total energy              =     -23.41230232 Ry
     estimated scf accuracy    <       0.00394157 Ry

     iteration #  3     ecut=    20.00 Ry     beta= 0.70
     Davidson diagonalization with overlap
     ethr =  4.93E-05,  avg # of iterations =  8.0

     total cpu time spent up to now is        2.5 secs

     total energy              =     -23.41243782 Ry
     estimated scf accuracy    <       0.00017953 Ry

     iteration #  4     ecut=    20.00 Ry     beta= 0.70
     Davidson diagonalization with overlap
     c_bands:  1 eigenvalues not converged
     c_bands:  1 eigenvalues not converged
     c_bands:  1 eigenvalues not converged
     c_bands:  1 eigenvalues not converged
     c_bands:  1 eigenvalues not converged
     c_bands:  1 eigenvalues not converged
     c_bands:  1 eigenvalues not converged
     c_bands:  1 eigenvalues not converged
     c_bands:  1 eigenvalues not converged
     ethr =  2.24E-06,  avg # of iterations =  7.9

     total cpu time spent up to now is        3.3 secs

     End of self-consistent calculation

          k = 0.0000 0.0000 0.0000 (   801 PWs)   bands (ev):

   -21.8735  -9.6374  -4.6250  -4.6250   1.0367   1.8860   2.0416   4.2481

     occupation numbers 
     1.0000   1.0000   1.0000   1.0000   0.0000   0.0000   0.0000   0.0000

          k = 0.0000 0.0361 0.0000 (   795 PWs)   bands (ev):

   -21.8445  -9.6055  -4.6727  -4.6627   1.0690   1.9184   2.0739   4.2803

     occupation numbers 
     1.0000   1.0000   1.0000   1.0000   0.0000   0.0000   0.0000   0.0000

          k = 0.0000 0.0722 0.0000 (   799 PWs)   bands (ev):

   -21.7801  -9.5380  -4.9971  -4.8150   1.1650   2.0138   2.1700   4.3726

     occupation numbers 
     1.0000   1.0000   1.0000   1.0000   0.0000   0.0000   0.0000   0.0000

          k = 0.0000 0.1083 0.0000 (   795 PWs)   bands (ev):

   -21.6524  -9.3939  -5.4380  -5.0496   1.3257   2.1749   2.3308   4.5312

     occupation numbers 
     1.0000   1.0000   1.0000   1.0000   0.0000   0.0000   0.0000   0.0000

          k = 0.0000 0.1443 0.0000 (   795 PWs)   bands (ev):

   -21.4774  -9.1943  -6.0647  -5.3340   1.5504   2.4003   2.5558   4.7524

     occupation numbers 
     1.0000   1.0000   1.0000   1.0000   0.0000   0.0000   0.0000   0.0000

          k = 0.0000 0.1804 0.0000 (   786 PWs)   bands (ev):

   -21.2574  -8.9165  -6.6921  -5.6503   1.8386   2.6911   2.8448   5.0391

     occupation numbers 
     1.0000   1.0000   1.0000   1.0000   0.0000   0.0000   0.0000   0.0000

          k = 0.0000 0.2165 0.0000 (   786 PWs)   bands (ev):

   -21.0020  -8.6050  -7.4874  -6.0042   2.1902   3.0445   3.1969   5.3835

     occupation numbers 
     1.0000   1.0000   1.0000   1.0000   0.0000   0.0000   0.0000   0.0000

          k = 0.0000 0.2526 0.0000 (   784 PWs)   bands (ev):

   -20.6969  -8.2735  -8.2436  -6.4046   2.6059   3.4606   3.6137   5.7802

     occupation numbers 
     1.0000   1.0000   1.0000   1.0000   0.0000   0.0000   0.0000   0.0000

          k = 0.0000 0.2887 0.0000 (   780 PWs)   bands (ev):

   -20.3429  -9.1078  -7.8290  -6.7598   3.0854   3.9373   4.0942   6.0942

     occupation numbers 
     1.0000   1.0000   1.0000   1.0000   0.0000   0.0000   0.0000   0.0000

          k = 0.0000 0.3248 0.0000 (   770 PWs)   bands (ev):

   -19.9381  -9.9060  -7.3621  -7.0554   3.6284   4.4563   4.6389   5.3514

     occupation numbers 
     1.0000   1.0000   1.0000   1.0000   0.0000   0.0000   0.0000   0.0000

          k = 0.0000 0.3608 0.0000 (   776 PWs)   bands (ev):

   -19.4911 -10.8376  -7.3375  -6.8567   4.2342   4.2518   5.1590   5.2457

     occupation numbers 
     1.0000   1.0000   1.0000   1.0000   0.0000   0.0000   0.0000   0.0000

          k = 0.0000 0.3969 0.0000 (   776 PWs)   bands (ev):

   -19.0293 -11.7163  -7.5795  -6.3069   3.3391   4.9003   5.8020   5.8881

     occupation numbers 
     1.0000   1.0000   1.0000   1.0000   0.0000   0.0000   0.0000   0.0000

          k = 0.0000 0.4330 0.0000 (   784 PWs)   bands (ev):

   -18.5030 -12.6077  -7.8311  -5.7377   2.4030   5.6190   5.8670   6.5308

     occupation numbers 
     1.0000   1.0000   1.0000   1.0000   0.0000   0.0000   0.0000   0.0000

          k = 0.0000 0.4691 0.0000 (   792 PWs)   bands (ev):

   -17.9545 -13.4499  -8.0133  -5.1699   1.5291   5.7143   6.4324   7.3267

     occupation numbers 
     1.0000   1.0000   1.0000   1.0000   0.0000   0.0000   0.0000   0.0000

          k = 0.0000 0.5052 0.0000 (   792 PWs)   bands (ev):

   -17.3358 -14.2644  -8.1339  -4.6351   0.7871   5.6303   7.2841   8.1852

     occupation numbers 
     1.0000   1.0000   1.0000   1.0000   0.0000   0.0000   0.0000   0.0000

          k = 0.0000 0.5413 0.0000 (   790 PWs)   bands (ev):

   -16.7503 -14.9609  -8.2047  -4.2208   0.2650   5.5885   8.1941   9.0999

     occupation numbers 
     1.0000   1.0000   1.0000   1.0000   0.0000   0.0000   0.0000   0.0000

          k = 0.0000-0.5774 0.0000 (   782 PWs)   bands (ev):

   -16.3679 -15.3698  -8.2027  -4.0380   0.0781   5.5965   9.1351   9.1949

     occupation numbers 
     1.0000   1.0000   1.0000   1.0000   0.0000   0.0000   0.0000   0.0000

          k = 0.0312 0.0541 0.0000 (   799 PWs)   bands (ev):

   -21.8012  -9.5581  -4.8969  -4.7872   1.1330   1.9822   2.1379   4.3423

     occupation numbers 
     1.0000   1.0000   1.0000   1.0000   0.0000   0.0000   0.0000   0.0000

          k = 0.0312 0.0902 0.0000 (   797 PWs)   bands (ev):

   -21.7041  -9.4531  -5.2226  -4.9939   1.2614   2.1104   2.2664   4.4677

     occupation numbers 
     1.0000   1.0000   1.0000   1.0000   0.0000   0.0000   0.0000   0.0000

          k = 0.0312 0.1263 0.0000 (   795 PWs)   bands (ev):

   -21.5525  -9.2798  -5.7750  -5.2581   1.4541   2.3037   2.4594   4.6575

     occupation numbers 
     1.0000   1.0000   1.0000   1.0000   0.0000   0.0000   0.0000   0.0000

          k = 0.0312 0.1624 0.0000 (   791 PWs)   bands (ev):

   -21.3503  -9.0432  -6.3900  -5.5833   1.7109   2.5617   2.7166   4.9116

     occupation numbers 
     1.0000   1.0000   1.0000   1.0000   0.0000   0.0000   0.0000   0.0000

          k = 0.0312 0.1985 0.0000 (   790 PWs)   bands (ev):

   -21.1188  -8.7474  -7.1125  -5.9531   2.0304   2.8839   3.0367   5.2273

     occupation numbers 
     1.0000   1.0000   1.0000   1.0000   0.0000   0.0000   0.0000   0.0000

          k = 0.0312 0.2345 0.0000 (   788 PWs)   bands (ev):

   -20.8447  -8.4116  -7.8827  -6.2964   2.4137   3.2686   3.4210   5.5993

     occupation numbers 
     1.0000   1.0000   1.0000   1.0000   0.0000   0.0000   0.0000   0.0000

          k = 0.0312 0.2706 0.0000 (   772 PWs)   bands (ev):

   -20.4983  -8.6370  -8.0199  -6.6124   2.8623   3.7159   3.8706   6.0088

     occupation numbers 
     1.0000   1.0000   1.0000   1.0000   0.0000   0.0000   0.0000   0.0000

          k = 0.0312 0.3067 0.0000 (   772 PWs)   bands (ev):

   -20.1305  -9.5015  -7.5794  -6.9339   3.3729   4.2191   4.3827   5.7730

     occupation numbers 
     1.0000   1.0000   1.0000   1.0000   0.0000   0.0000   0.0000   0.0000

          k = 0.0312 0.3428 0.0000 (   771 PWs)   bands (ev):

   -19.7170 -10.3495  -7.2508  -7.0878   3.9465   4.6251   4.9584   5.0085

     occupation numbers 
     1.0000   1.0000   1.0000   1.0000   0.0000   0.0000   0.0000   0.0000

          k = 0.0312 0.3789 0.0000 (   775 PWs)   bands (ev):

   -19.2594 -11.2708  -7.5163  -6.5638   3.8012   4.5830   5.4861   5.5948

     occupation numbers 
     1.0000   1.0000   1.0000   1.0000   0.0000   0.0000   0.0000   0.0000

          k = 0.0312 0.4150 0.0000 (   777 PWs)   bands (ev):

   -18.7510 -12.1616  -7.7672  -6.0010   2.8736   5.2810   6.0420   6.1796

     occupation numbers 
     1.0000   1.0000   1.0000   1.0000   0.0000   0.0000   0.0000   0.0000

          k = 0.0312 0.4511 0.0000 (   782 PWs)   bands (ev):

   -18.2126 -13.0097  -7.9617  -5.4302   1.9624   5.8812   6.0701   6.9434

     occupation numbers 
     1.0000   1.0000   1.0000   1.0000   0.0000   0.0000   0.0000   0.0000

          k = 0.0312 0.4871 0.0000 (   788 PWs)   bands (ev):

   -17.6305 -13.8399  -8.1275  -4.8722   1.1415   5.7913   6.8737   7.7687

     occupation numbers 
     1.0000   1.0000   1.0000   1.0000   0.0000   0.0000   0.0000   0.0000

          k = 0.0312 0.5232 0.0000 (   786 PWs)   bands (ev):

   -17.0050 -14.6173  -8.2102  -4.3833   0.4947   5.7274   7.7565   8.6549

     occupation numbers 
     1.0000   1.0000   1.0000   1.0000   0.0000   0.0000   0.0000   0.0000

          k = 0.0312 0.5593 0.0000 (   784 PWs)   bands (ev):

   -16.4741 -15.2286  -8.2640  -4.0680   0.1229   5.7084   8.6946   9.6840

     occupation numbers 
     1.0000   1.0000   1.0000   1.0000   0.0000   0.0000   0.0000   0.0000

          k = 0.0625 0.1083 0.0000 (   803 PWs)   bands (ev):

   -21.5865  -9.3222  -5.6884  -5.2602   1.4217   2.2707   2.4270   4.6242

     occupation numbers 
     1.0000   1.0000   1.0000   1.0000   0.0000   0.0000   0.0000   0.0000

          k = 0.0625 0.1443 0.0000 (   787 PWs)   bands (ev):

   -21.3964  -9.0969  -6.1753  -5.5404   1.6469   2.4976   2.6525   4.8487

     occupation numbers 
     1.0000   1.0000   1.0000   1.0000   0.0000   0.0000   0.0000   0.0000

          k = 0.0625 0.1804 0.0000 (   784 PWs)   bands (ev):

   -21.1828  -8.8408  -6.7753  -5.8963   1.9351   2.7871   2.9411   5.1323

     occupation numbers 
     1.0000   1.0000   1.0000   1.0000   0.0000   0.0000   0.0000   0.0000

          k = 0.0625 0.2165 0.0000 (   782 PWs)   bands (ev):

   -20.9266  -8.5166  -7.5091  -6.3031   2.2866   3.1412   3.2935   5.4786

     occupation numbers 
     1.0000   1.0000   1.0000   1.0000   0.0000   0.0000   0.0000   0.0000

          k = 0.0625 0.2526 0.0000 (   784 PWs)   bands (ev):

   -20.6355  -8.2646  -8.1597  -6.6844   2.7014   3.5569   3.7095   5.8748

     occupation numbers 
     1.0000   1.0000   1.0000   1.0000   0.0000   0.0000   0.0000   0.0000

          k = 0.0625 0.2887 0.0000 (   778 PWs)   bands (ev):

   -20.2874  -9.0746  -7.7442  -7.0290   3.1805   4.0338   4.1903   6.0976

     occupation numbers 
     1.0000   1.0000   1.0000   1.0000   0.0000   0.0000   0.0000   0.0000

          k = 0.0625 0.3248 0.0000 (   776 PWs)   bands (ev):

   -19.8961  -9.9326  -7.3445  -7.2750   3.7225   4.5505   4.7342   5.2859

     occupation numbers 
     1.0000   1.0000   1.0000   1.0000   0.0000   0.0000   0.0000   0.0000

          k = 0.0625 0.3608 0.0000 (   775 PWs)   bands (ev):

   -19.4476 -10.7924  -7.6470  -6.7700   4.2371   4.3288   5.2367   5.3425

     occupation numbers 
     1.0000   1.0000   1.0000   1.0000   0.0000   0.0000   0.0000   0.0000

          k = 0.0625 0.3969 0.0000 (   781 PWs)   bands (ev):

   -18.9719 -11.6905  -7.9124  -6.2285   3.2888   4.9961   5.8883   6.0097

     occupation numbers 
     1.0000   1.0000   1.0000   1.0000   0.0000   0.0000   0.0000   0.0000

          k = 0.0625 0.4330 0.0000 (   775 PWs)   bands (ev):

   -18.4300 -12.5353  -8.1195  -5.6494   2.4061   5.7253   6.3299   6.6193

     occupation numbers 
     1.0000   1.0000   1.0000   1.0000   0.0000   0.0000   0.0000   0.0000

          k = 0.0625 0.4691 0.0000 (   775 PWs)   bands (ev):

   -17.8612 -13.3809  -8.2632  -5.0773   1.5521   6.1968   6.5321   7.4149

     occupation numbers 
     1.0000   1.0000   1.0000   1.0000   0.0000   0.0000   0.0000   0.0000

          k = 0.0625 0.5052 0.0000 (   781 PWs)   bands (ev):

   -17.2596 -14.1929  -8.4088  -4.5448   0.7986   6.1119   7.3780   8.2656

     occupation numbers 
     1.0000   1.0000   1.0000   1.0000   0.0000   0.0000   0.0000   0.0000

          k = 0.0625 0.5413 0.0000 (   786 PWs)   bands (ev):

   -16.6761 -14.9026  -8.5282  -4.1243   0.2566   6.0570   8.2870   9.1728

     occupation numbers 
     1.0000   1.0000   1.0000   1.0000   0.0000   0.0000   0.0000   0.0000

          k = 0.0625 0.5774 0.0000 (   782 PWs)   bands (ev):

   -16.2974 -15.3060  -8.5456  -3.9489   0.0540   6.0478   9.2235   9.2857

     occupation numbers 
     1.0000   1.0000   1.0000   1.0000   0.0000   0.0000   0.0000   0.0000

          k = 0.0938 0.1624 0.0000 (   797 PWs)   bands (ev):

   -21.2086  -8.8882  -6.7003  -6.0107   1.9033   2.7537   2.9093   5.0982

     occupation numbers 
     1.0000   1.0000   1.0000   1.0000   0.0000   0.0000   0.0000   0.0000

          k = 0.0938 0.1985 0.0000 (   795 PWs)   bands (ev):

   -20.9916  -8.6007  -7.2713  -6.4006   2.2221   3.0754   3.2289   5.4129

     occupation numbers 
     1.0000   1.0000   1.0000   1.0000   0.0000   0.0000   0.0000   0.0000

          k = 0.0938 0.2345 0.0000 (   788 PWs)   bands (ev):

   -20.7209  -8.2534  -7.9327  -6.8053   2.6049   3.4608   3.6129   5.7878

     occupation numbers 
     1.0000   1.0000   1.0000   1.0000   0.0000   0.0000   0.0000   0.0000

          k = 0.0938 0.2706 0.0000 (   781 PWs)   bands (ev):

   -20.3881  -8.6800  -7.8603  -7.1944   3.0527   3.9085   4.0620   6.1903

     occupation numbers 
     1.0000   1.0000   1.0000   1.0000   0.0000   0.0000   0.0000   0.0000

          k = 0.0938 0.3067 0.0000 (   782 PWs)   bands (ev):

   -20.0200  -9.5215  -7.5477  -7.4345   3.5634   4.4113   4.5747   5.6008

     occupation numbers 
     1.0000   1.0000   1.0000   1.0000   0.0000   0.0000   0.0000   0.0000

          k = 0.0938 0.3428 0.0000 (   782 PWs)   bands (ev):

   -19.6085 -10.3670  -7.8777  -6.9383   4.1369   4.6066   5.0600   5.1510

     occupation numbers 
     1.0000   1.0000   1.0000   1.0000   0.0000   0.0000   0.0000   0.0000

          k = 0.0938 0.3789 0.0000 (   778 PWs)   bands (ev):

   -19.1262 -11.2089  -8.1462  -6.4016   3.6930   4.7749   5.6581   5.7914

     occupation numbers 
     1.0000   1.0000   1.0000   1.0000   0.0000   0.0000   0.0000   0.0000

          k = 0.0938 0.4150 0.0000 (   785 PWs)   bands (ev):

   -18.6300 -12.0852  -8.4105  -5.8483   2.7590   5.4732   6.3533   6.4912

     occupation numbers 
     1.0000   1.0000   1.0000   1.0000   0.0000   0.0000   0.0000   0.0000

          k = 0.0938 0.4511 0.0000 (   783 PWs)   bands (ev):

   -18.0880 -12.9159  -8.5840  -5.2728   1.8997   6.2315   6.7979   7.1147

     occupation numbers 
     1.0000   1.0000   1.0000   1.0000   0.0000   0.0000   0.0000   0.0000

          k = 0.0938 0.4871 0.0000 (   777 PWs)   bands (ev):

   -17.4834 -13.7177  -8.7165  -4.6995   1.1231   6.6926   7.0648   7.9343

     occupation numbers 
     1.0000   1.0000   1.0000   1.0000   0.0000   0.0000   0.0000   0.0000

          k = 0.0938 0.5232 0.0000 (   775 PWs)   bands (ev):

   -16.8629 -14.4840  -8.8105  -4.1854   0.4589   6.6207   7.9425   8.8038

     occupation numbers 
     1.0000   1.0000   1.0000   1.0000   0.0000   0.0000   0.0000   0.0000

          k = 0.0938 0.5593 0.0000 (   775 PWs)   bands (ev):

   -16.3304 -15.0964  -8.8749  -3.8737   0.0777   6.5925   8.8764   9.6987

     occupation numbers 
     1.0000   1.0000   1.0000   1.0000   0.0000   0.0000   0.0000   0.0000

          k = 0.1250 0.2165 0.0000 (   785 PWs)   bands (ev):

   -20.7459  -8.2848  -7.7349  -6.8792   2.5730   3.4289   3.5810   5.7585

     occupation numbers 
     1.0000   1.0000   1.0000   1.0000   0.0000   0.0000   0.0000   0.0000

          k = 0.1250 0.2526 0.0000 (   783 PWs)   bands (ev):

   -20.4355  -8.4254  -7.9140  -7.3659   2.9888   3.8457   3.9980   6.1614

     occupation numbers 
     1.0000   1.0000   1.0000   1.0000   0.0000   0.0000   0.0000   0.0000

          k = 0.1250 0.2887 0.0000 (   791 PWs)   bands (ev):

   -20.1067  -9.1765  -7.8111  -7.5207   3.4668   4.3220   4.4780   5.8054

     occupation numbers 
     1.0000   1.0000   1.0000   1.0000   0.0000   0.0000   0.0000   0.0000

          k = 0.1250 0.3248 0.0000 (   786 PWs)   bands (ev):

   -19.7087  -9.9492  -8.1806  -7.0482   4.0092   4.7978   5.0019   5.0228

     occupation numbers 
     1.0000   1.0000   1.0000   1.0000   0.0000   0.0000   0.0000   0.0000

          k = 0.1250 0.3608 0.0000 (   780 PWs)   bands (ev):

   -19.2585 -10.7674  -8.4835  -6.5300   4.0347   4.6151   5.4873   5.6318

     occupation numbers 
     1.0000   1.0000   1.0000   1.0000   0.0000   0.0000   0.0000   0.0000

          k = 0.1250 0.3969 0.0000 (   782 PWs)   bands (ev):

   -18.7751 -11.6078  -8.7442  -5.9891   3.1296   5.2828   6.1513   6.3032

     occupation numbers 
     1.0000   1.0000   1.0000   1.0000   0.0000   0.0000   0.0000   0.0000

          k = 0.1250 0.4330 0.0000 (   777 PWs)   bands (ev):

   -18.2341 -12.3999  -8.9762  -5.4067   2.2523   6.0133   6.8779   7.0370

     occupation numbers 
     1.0000   1.0000   1.0000   1.0000   0.0000   0.0000   0.0000   0.0000

          k = 0.1250 0.4691 0.0000 (   779 PWs)   bands (ev):

   -17.6782 -13.2310  -9.1517  -4.8329   1.4366   6.8020   7.4489   7.6598

     occupation numbers 
     1.0000   1.0000   1.0000   1.0000   0.0000   0.0000   0.0000   0.0000

          k = 0.1250 0.5052 0.0000 (   776 PWs)   bands (ev):

   -17.0740 -14.0093  -9.2753  -4.2846   0.7296   7.3729   7.6588   8.4877

     occupation numbers 
     1.0000   1.0000   1.0000   1.0000   0.0000   0.0000   0.0000   0.0000

          k = 0.1250 0.5413 0.0000 (   774 PWs)   bands (ev):

   -16.4767 -14.7095  -9.3526  -3.8482   0.2055   7.3304   8.5620   9.3363

     occupation numbers 
     1.0000   1.0000   1.0000   1.0000   0.0000   0.0000   0.0000   0.0000

          k = 0.1250 0.5774 0.0000 (   776 PWs)   bands (ev):

   -16.1008 -15.1174  -9.3908  -3.6828  -0.0131   7.3073   9.4864   9.5555

     occupation numbers 
     1.0000   1.0000   1.0000   1.0000   0.0000   0.0000   0.0000   0.0000

          k = 0.1562 0.2706 0.0000 (   783 PWs)   bands (ev):

   -20.1114  -9.0037  -7.9004  -7.5341   3.4360   4.2929   4.4469   5.9067

     occupation numbers 
     1.0000   1.0000   1.0000   1.0000   0.0000   0.0000   0.0000   0.0000

          k = 0.1562 0.3067 0.0000 (   782 PWs)   bands (ev):

   -19.7520  -9.6618  -8.3825  -7.0900   3.9457   4.7988   4.9589   5.0963

     occupation numbers 
     1.0000   1.0000   1.0000   1.0000   0.0000   0.0000   0.0000   0.0000

          k = 0.1562 0.3428 0.0000 (   780 PWs)   bands (ev):

   -19.3330 -10.3905  -8.7942  -6.6053   4.2701   4.5193   5.3800   5.5355

     occupation numbers 
     1.0000   1.0000   1.0000   1.0000   0.0000   0.0000   0.0000   0.0000

          k = 0.1562 0.3789 0.0000 (   778 PWs)   bands (ev):

   -18.8564 -11.1738  -9.1168  -6.0821   3.4136   5.1566   6.0120   6.1765

     occupation numbers 
     1.0000   1.0000   1.0000   1.0000   0.0000   0.0000   0.0000   0.0000

          k = 0.1562 0.4150 0.0000 (   781 PWs)   bands (ev):

   -18.3664 -11.9580  -9.3838  -5.5306   2.5557   5.8537   6.7027   6.8790

     occupation numbers 
     1.0000   1.0000   1.0000   1.0000   0.0000   0.0000   0.0000   0.0000

          k = 0.1562 0.4511 0.0000 (   780 PWs)   bands (ev):

   -17.8234 -12.7149  -9.6244  -4.9434   1.7302   6.6126   7.4456   7.6445

     occupation numbers 
     1.0000   1.0000   1.0000   1.0000   0.0000   0.0000   0.0000   0.0000

          k = 0.1562 0.4871 0.0000 (   778 PWs)   bands (ev):

   -17.2260 -13.5154  -9.7830  -4.3613   0.9777   7.4325   8.2285   8.2342

     occupation numbers 
     1.0000   1.0000   1.0000   1.0000   0.0000   0.0000   0.0000   0.0000

          k = 0.1562 0.5232 0.0000 (   776 PWs)   bands (ev):

   -16.6148 -14.2579  -9.8870  -3.8600   0.3666   8.1821   8.3139   9.0075

     occupation numbers 
     1.0000   1.0000   1.0000   1.0000   0.0000   0.0000   0.0000   0.0000

          k = 0.1562 0.5593 0.0000 (   780 PWs)   bands (ev):

   -16.0993 -14.8615  -9.9293  -3.5543  -0.0216   8.1377   9.2353   9.6203

     occupation numbers 
     1.0000   1.0000   1.0000   1.0000   0.0000   0.0000   0.0000   0.0000

          k = 0.1875 0.3248 0.0000 (   771 PWs)   bands (ev):

   -19.3424 -10.1679  -8.9252  -6.6270   4.3664   4.4886   5.3419   5.5043

     occupation numbers 
     1.0000   1.0000   1.0000   1.0000   0.0000   0.0000   0.0000   0.0000

          k = 0.1875 0.3608 0.0000 (   779 PWs)   bands (ev):

   -18.9170 -10.8375  -9.4337  -6.1308   3.5764   5.0920   5.9400   6.1120

     occupation numbers 
     1.0000   1.0000   1.0000   1.0000   0.0000   0.0000   0.0000   0.0000

          k = 0.1875 0.3969 0.0000 (   783 PWs)   bands (ev):

   -18.4383 -11.5571  -9.7977  -5.5960   2.7658   5.7583   6.5943   6.7832

     occupation numbers 
     1.0000   1.0000   1.0000   1.0000   0.0000   0.0000   0.0000   0.0000

          k = 0.1875 0.4330 0.0000 (   783 PWs)   bands (ev):

   -17.9034 -12.2678 -10.1064  -5.0281   1.9716   6.4869   7.2971   7.5184

     occupation numbers 
     1.0000   1.0000   1.0000   1.0000   0.0000   0.0000   0.0000   0.0000

          k = 0.1875 0.4691 0.0000 (   782 PWs)   bands (ev):

   -17.3563 -13.0152 -10.3105  -4.4334   1.2063   7.2732   8.0298   8.3142

     occupation numbers 
     1.0000   1.0000   1.0000   1.0000   0.0000   0.0000   0.0000   0.0000

          k = 0.1875 0.5052 0.0000 (   782 PWs)   bands (ev):

   -16.7527 -13.7711 -10.4583  -3.8800   0.5283   8.1187   8.7285   9.1126

     occupation numbers 
     1.0000   1.0000   1.0000   1.0000   0.0000   0.0000   0.0000   0.0000

          k = 0.1875 0.5413 0.0000 (   780 PWs)   bands (ev):

   -16.1723 -14.4286 -10.5401  -3.4439   0.0282   9.0120   9.0765   9.2226

     occupation numbers 
     1.0000   1.0000   1.0000   1.0000   0.0000   0.0000   0.0000   0.0000

          k = 0.1875 0.5774 0.0000 (   780 PWs)   bands (ev):

   -15.8040 -14.8294 -10.5698  -3.2667  -0.1770   9.0696   9.3779   9.9167

     occupation numbers 
     1.0000   1.0000   1.0000   1.0000   0.0000   0.0000   0.0000   0.0000

          k = 0.2188 0.3789 0.0000 (   775 PWs)   bands (ev):

   -18.4397 -11.3573  -9.9919  -5.6088   2.8841   5.7281   6.5584   6.7524

     occupation numbers 
     1.0000   1.0000   1.0000   1.0000   0.0000   0.0000   0.0000   0.0000

          k = 0.2188 0.4150 0.0000 (   787 PWs)   bands (ev):

   -17.9650 -11.9624 -10.4529  -5.0687   2.1047   6.4222   7.2201   7.4535

     occupation numbers 
     1.0000   1.0000   1.0000   1.0000   0.0000   0.0000   0.0000   0.0000

          k = 0.2188 0.4511 0.0000 (   783 PWs)   bands (ev):

   -17.4110 -12.5886 -10.7625  -4.4838   1.3737   7.1793   7.9007   8.2192

     occupation numbers 
     1.0000   1.0000   1.0000   1.0000   0.0000   0.0000   0.0000   0.0000

          k = 0.2188 0.4871 0.0000 (   778 PWs)   bands (ev):

   -16.8360 -13.2685 -10.9591  -3.8972   0.6943   7.9923   8.5133   9.0455

     occupation numbers 
     1.0000   1.0000   1.0000   1.0000   0.0000   0.0000   0.0000   0.0000

          k = 0.2188 0.5232 0.0000 (   776 PWs)   bands (ev):

   -16.2294 -13.9694 -11.0949  -3.3698   0.1109   8.8596   8.8787   9.9358

     occupation numbers 
     1.0000   1.0000   1.0000   1.0000   0.0000   0.0000   0.0000   0.0000

          k = 0.2188 0.5593 0.0000 (   778 PWs)   bands (ev):

   -15.7075 -14.5411 -11.1787  -3.0131  -0.2816   8.9859   9.7658  10.0339

     occupation numbers 
     1.0000   1.0000   1.0000   1.0000   0.0000   0.0000   0.0000   0.0000

          k = 0.2500 0.4330 0.0000 (   781 PWs)   bands (ev):

   -17.4341 -12.3940 -10.9718  -4.4924   1.4555   7.1474   7.8564   8.1871

     occupation numbers 
     1.0000   1.0000   1.0000   1.0000   0.0000   0.0000   0.0000   0.0000

          k = 0.2500 0.4691 0.0000 (   779 PWs)   bands (ev):

   -16.8795 -12.9180 -11.3403  -3.9168   0.7979   7.9289   8.3916   8.9813

     occupation numbers 
     1.0000   1.0000   1.0000   1.0000   0.0000   0.0000   0.0000   0.0000

          k = 0.2500 0.5052 0.0000 (   776 PWs)   bands (ev):

   -16.2981 -13.5163 -11.5832  -3.3385   0.1757   8.6393   8.7631   9.8350

     occupation numbers 
     1.0000   1.0000   1.0000   1.0000   0.0000   0.0000   0.0000   0.0000

          k = 0.2500 0.5413 0.0000 (   780 PWs)   bands (ev):

   -15.7302 -14.1219 -11.7283  -2.8630  -0.3510   8.6649   9.6390  10.7434

     occupation numbers 
     1.0000   1.0000   1.0000   1.0000   0.0000   0.0000   0.0000   0.0000

          k = 0.2500 0.5774 0.0000 (   776 PWs)   bands (ev):

   -15.3625 -14.4907 -11.7813  -2.6131  -0.5689   8.6563  10.4908  10.5920

     occupation numbers 
     1.0000   1.0000   1.0000   1.0000   0.0000   0.0000   0.0000   0.0000

          k = 0.2812 0.4871 0.0000 (   777 PWs)   bands (ev):

   -16.3206 -13.3130 -11.8061  -3.3187   0.1917   8.5546   8.7313   9.8029

     occupation numbers 
     1.0000   1.0000   1.0000   1.0000   0.0000   0.0000   0.0000   0.0000

          k = 0.2812 0.5232 0.0000 (   778 PWs)   bands (ev):

   -15.7358 -13.7906 -12.1281  -2.7601  -0.3822   8.4907   9.5784  10.6814

     occupation numbers 
     1.0000   1.0000   1.0000   1.0000   0.0000   0.0000   0.0000   0.0000

          k = 0.2812 0.5593 0.0000 (   770 PWs)   bands (ev):

   -15.2066 -14.2563 -12.2494  -2.3085  -0.7961   8.4204  10.4459  11.2762

     occupation numbers 
     1.0000   1.0000   1.0000   1.0000   0.0000   0.0000   0.0000   0.0000

          k = 0.3125 0.5413 0.0000 (   765 PWs)   bands (ev):

   -15.1652 -14.0828 -12.4437  -2.1820  -0.8987   8.3377  10.4177  11.5728

     occupation numbers 
     1.0000   1.0000   1.0000   1.0002   0.0000   0.0000   0.0000   0.0000

          k = 0.3125 0.5774 0.0000 (   771 PWs)   bands (ev):

   -14.8066 -14.4077 -12.5830  -1.8458  -1.2556   8.2783  11.1543  11.2598

     occupation numbers 
     1.0000   1.0000   1.0000   0.9998   0.0000   0.0000   0.0000   0.0000

     the Fermi energy is    -1.7205 ev

!    total energy              =     -23.41245068 Ry
     estimated scf accuracy    <       0.00000047 Ry
     smearing contrib. (-TS)   =       0.00000963 Ry
     internal energy E=F+TS    =     -23.41246031 Ry

     The total energy is F=E-TS. E is the sum of the following terms:
     one-electron contribution =    -153.67063868 Ry
     hartree contribution      =      78.21083112 Ry
     xc contribution           =      -8.39538883 Ry
     ewald contribution        =      60.44273608 Ry

     convergence has been achieved in   4 iterations

     Forces acting on atoms (cartesian axes, Ry/au):

     atom    1 type  1   force =    -0.00000000   -0.00000000    0.00000000
     atom    2 type  1   force =     0.00000000    0.00000000    0.00000000
     The non-local contrib.  to forces
     atom    1 type  1   force =     0.00000000    0.00000000    0.00000000
     atom    2 type  1   force =    -0.00000000    0.00000000    0.00000000
     The ionic contribution  to forces
     atom    1 type  1   force =    -0.00000001    0.00000000   -0.00000000
     atom    2 type  1   force =     0.00000001   -0.00000000   -0.00000000
     The local contribution  to forces
     atom    1 type  1   force =     0.00000000    0.00000000   -0.00000000
     atom    2 type  1   force =     0.00000000   -0.00000000   -0.00000000
     The core correction contribution to forces
     atom    1 type  1   force =     0.00000000   -0.00000000    0.00000000
     atom    2 type  1   force =    -0.00000000    0.00000000    0.00000000
     The Hubbard contrib.    to forces
     atom    1 type  1   force =     0.00000000    0.00000000    0.00000000
     atom    2 type  1   force =     0.00000000    0.00000000    0.00000000
     The SCF correction term to forces
     atom    1 type  1   force =     0.00000000   -0.00000000   -0.00000000
     atom    2 type  1   force =    -0.00000000    0.00000000   -0.00000000

     Total force =     0.000000     Total SCF correction =     0.000000


     Computing stress (Cartesian axis) and pressure

          total   stress  (Ry/bohr**3)                   (kbar)     P=     -192.38
  -0.00106511   0.00000000   0.00000000         -156.68        0.00        0.00
   0.00000000  -0.00106511   0.00000000            0.00     -156.68        0.00
   0.00000000   0.00000000  -0.00179318            0.00        0.00     -263.79

     kinetic stress (kbar)   2772.10      0.00      0.00
                                0.00   2772.10      0.00
                                0.00      0.00   3033.86

     local   stress (kbar) -46952.76      0.00     -0.00
                                0.00 -46952.76      0.00
                               -0.00      0.00  47801.61

     nonloc. stress (kbar)   -150.10     -0.00     -0.00
                               -0.00   -150.10     -0.00
                               -0.00     -0.00    -97.87

     hartree stress (kbar)  22035.87     -0.00      0.00
                               -0.00  22035.87      0.00
                                0.00      0.00 -21835.38

     exc-cor stress (kbar)   -243.35      0.00      0.00
                                0.00   -243.35      0.00
                                0.00      0.00   -243.35

     corecor stress (kbar)   -451.94      0.00     -0.00
                                0.00   -451.94     -0.00
                               -0.00     -0.00   -440.29

     ewald   stress (kbar)  22833.51     -0.00     -0.00
                               -0.00  22833.51     -0.00
                               -0.00     -0.00 -28482.36

     hubbard stress (kbar)      0.00      0.00      0.00
                                0.00      0.00      0.00
                                0.00      0.00      0.00

     DFT-D   stress (kbar)      0.00      0.00      0.00
                                0.00      0.00      0.00
                                0.00      0.00      0.00

     XDM     stress (kbar)      0.00      0.00      0.00
                                0.00      0.00      0.00
                                0.00      0.00      0.00

     dft-nl  stress (kbar)      0.00      0.00      0.00
                                0.00      0.00      0.00
                                0.00      0.00      0.00

     TS-vdW  stress (kbar)      0.00      0.00      0.00
                                0.00      0.00      0.00
                                0.00      0.00      0.00



     Writing output data file ./tmp/graphene.save/

     init_run     :      0.57s CPU      0.23s WALL (       1 calls)
     electrons    :      7.93s CPU      3.03s WALL (       1 calls)
     forces       :      0.16s CPU      0.05s WALL (       1 calls)
     stress       :      0.67s CPU      0.28s WALL (       1 calls)

     Called by init_run:
     wfcinit      :      0.54s CPU      0.19s WALL (       1 calls)
     wfcinit:atom :      0.03s CPU      0.01s WALL (     102 calls)
     wfcinit:wfcr :      0.39s CPU      0.14s WALL (     102 calls)
     potinit      :      0.00s CPU      0.00s WALL (       1 calls)
     hinit0       :      0.02s CPU      0.02s WALL (       1 calls)

     Called by electrons:
     c_bands      :      7.05s CPU      2.67s WALL (       4 calls)
     sum_band     :      0.83s CPU      0.35s WALL (       4 calls)
     v_of_rho     :      0.01s CPU      0.01s WALL (       5 calls)
     v_h          :      0.00s CPU      0.00s WALL (       5 calls)
     v_xc         :      0.01s CPU      0.01s WALL (       7 calls)
     mix_rho      :      0.01s CPU      0.00s WALL (       4 calls)

     Called by c_bands:
     init_us_2    :      0.36s CPU      0.13s WALL (    1122 calls)
     cegterg      :      6.51s CPU      2.46s WALL (     408 calls)

     Called by sum_band:
     sum_band:wei :      0.01s CPU      0.00s WALL (       4 calls)
     sum_band:loo :      0.81s CPU      0.35s WALL (       4 calls)
     sum_band:buf :      0.02s CPU      0.01s WALL (     408 calls)
     sum_band:ini :      0.11s CPU      0.05s WALL (     408 calls)

     Called by *egterg:
     cdiaghg      :      0.59s CPU      0.22s WALL (    3101 calls)
     cegterg:over :      0.29s CPU      0.11s WALL (    2693 calls)
     cegterg:upda :      0.22s CPU      0.08s WALL (    2693 calls)
     cegterg:last :      0.15s CPU      0.05s WALL (    1275 calls)
     h_psi        :      5.37s CPU      2.04s WALL (    3203 calls)
     g_psi        :      0.11s CPU      0.04s WALL (    2693 calls)

     Called by h_psi:
     h_psi:calbec :      0.25s CPU      0.10s WALL (    3203 calls)
     vloc_psi     :      4.90s CPU      1.85s WALL (    3203 calls)
     add_vuspsi   :      0.15s CPU      0.06s WALL (    3203 calls)

     General routines
     calbec       :      0.29s CPU      0.12s WALL (    3713 calls)
     fft          :      0.01s CPU      0.00s WALL (      22 calls)
     ffts         :      0.00s CPU      0.00s WALL (       4 calls)
     fftw         :      3.76s CPU      1.44s WALL (   27960 calls)

     Parallel routines

     PWSCF        :      9.44s CPU      3.65s WALL


   This run was terminated on:  11:49:40  14Feb2024            

=------------------------------------------------------------------------------=
   JOB DONE.
=------------------------------------------------------------------------------=
