
     Program BANDS v.7.2 starts on 17Apr2024 at 19:54:28 

     This program is part of the open-source Quantum ESPRESSO suite
     for quantum simulation of materials; please cite
         "P. Giannozzi et al., J. Phys.:Condens. Matter 21 395502 (2009);
         "P. Giannozzi et al., J. Phys.:Condens. Matter 29 465901 (2017);
         "P. Giannozzi et al., J. Chem. Phys. 152 154105 (2020);
          URL http://www.quantum-espresso.org", 
     in publications or presentations arising from this work. More details at
     http://www.quantum-espresso.org/quote

     Parallel version (MPI & OpenMP), running on       8 processor cores
     Number of MPI processes:                 8
     Threads/MPI process:                     1

     MPI processes distributed on     1 nodes
     R & G space division:  proc/nbgrp/npool/nimage =       8
     0 MiB available memory on the printing compute node when the environment starts


     Reading xml data from directory:

     ./tmp/BN2L_A1B_PBE_vdW.save/

     IMPORTANT: XC functional enforced from input :
     Exchange-correlation= VDW-DF2-B86R
                           (   1   4  26   0   2   0   0)
     Any further DFT definition will be discarded
     Please, verify this is what you really want


     Parallelization info
     --------------------
     sticks:   dense  smooth     PW     G-vecs:    dense   smooth      PW
     Min          45      45     14                 5791     5791    1010
     Max          46      46     16                 5824     5824    1027
     Sum         367     367    121                46525    46525    8181

     Using Slab Decomposition



     %%%%%%%%%%%%%%%%%%%%%%%%%%%%%%%%%%%%%%%%%%%%%%%%%%%%%%%%%%%%%%%%%%%%%%%%
     %                                                                      %
     % You are using vdW-DF, which was implemented by the Thonhauser group. %
     % Please cite the following two papers that made this development      %
     % possible and the two reviews that describe the various versions:     %
     %                                                                      %
     %   T. Thonhauser et al., PRL 115, 136402 (2015).                      %
     %   T. Thonhauser et al., PRB 76, 125112 (2007).                       %
     %   K. Berland et al., Rep. Prog. Phys. 78, 066501 (2015).             %
     %   D.C. Langreth et al., J. Phys.: Condens. Matter 21, 084203 (2009). %
     %                                                                      %
     % If you are calculating stress with vdW-DF, please also cite:         %
     %                                                                      %
     %   R. Sabatini et al., J. Phys.: Condens. Matter 24, 424209 (2012).   %
     %                                                                      %
     %%%%%%%%%%%%%%%%%%%%%%%%%%%%%%%%%%%%%%%%%%%%%%%%%%%%%%%%%%%%%%%%%%%%%%%%

     %%%%%%%%%%%%%%%%%%%%%%%%%%%%%%%%%%%%%%%%%%%%%%%%%%%%%%%%%%%%%%%%%%%%%%%%
     %                                                                      %
     %  vdW-DF NEWS:                                                        %
     %                                                                      %
     %  * vdW-DF3 is now available. DOI: 10.1021/acs.jctc.0c00471           %
     %    use with input_dft = 'vdW-DF3-opt1' or 'vdW-DF3-opt2'             %
     %                                                                      %
     %  * Unscreened and range-separated hybrid vdW-DF-cx functionals       %
     %    DOI: 10.1063/1.4986522 and 10.1088/1361-648X/ac2ad2               %
     %    use with input_dft = 'vdW-DF-cx0'    and 'vdW-DF-ahcx'            %
     %  * Unscreened and range-separated hybrid vdW-DF2-b86r functionals    %
     %    DOI: 10.1063/1.4986522 and DOI: 10.1103/PhysRevX.12.041003        %
     %    use with input_dft = 'vdW-DF2-br0' and 'vdW-DF2-ahbr'             %
     %                                                                      %
     %%%%%%%%%%%%%%%%%%%%%%%%%%%%%%%%%%%%%%%%%%%%%%%%%%%%%%%%%%%%%%%%%%%%%%%%


     Reading collected, re-writing distributed wavefunctions
     high-symmetry point:  0.0000 0.0000 0.0000   x coordinate   0.0000
     high-symmetry point: -0.3333 0.5774 0.0000   x coordinate   0.6667
     high-symmetry point:  0.0000 0.5774 0.0000   x coordinate   1.0000
     high-symmetry point:  0.0000 0.0000 0.0000   x coordinate   1.5773

     Plottable bands (eV) written to file Bande_BN2L_A1B_PBE_vdW.dat.gnu
     Bands written to file Bande_BN2L_A1B_PBE_vdW.dat

 **************************************************************************

                    xk=(   0.00000,   0.00000,   0.00000  )

     point group C_3v (3m)  
     there are  3 classes
     the character table:

       E     2C3   3s_v 
A_1    1.00  1.00  1.00
A_2    1.00  1.00 -1.00
E      2.00 -1.00  0.00

     the symmetry operations in each class and the name of the first element:

     E        1
                                                                 
     2C3      2    3
                                                                 
     3s_v     4    5    6
                                                                 

     Band symmetry, C_3v (3m)   point group:

     e(  1 -  1) =    -20.12173  eV     1   --> A_1  L_1       
     e(  2 -  2) =    -20.02220  eV     1   --> A_1  L_1       
     e(  3 -  3) =     -8.11872  eV     1   --> A_1  L_1       
     e(  4 -  4) =     -7.28256  eV     1   --> A_1  L_1       
     e(  5 -  6) =     -3.87237  eV     2   --> E    L_3       
     e(  7 -  8) =     -3.86300  eV     2   --> E    L_3       
     e(  9 -  9) =      1.96106  eV     1   --> A_1  L_1       
     e( 10 - 10) =      2.52489  eV     1   --> A_1  L_1       
     e( 11 - 11) =      3.55165  eV     1   --> A_1  L_1       
     e( 12 - 12) =      4.55954  eV     1   --> A_1  L_1       
     e( 13 - 13) =      4.68489  eV     1   --> A_1  L_1       
     e( 14 - 14) =      6.44577  eV     1   --> A_1  L_1       
     e( 15 - 15) =      7.29905  eV     1   --> A_1  L_1       
     e( 16 - 17) =      9.12989  eV     2   --> E    L_3       
     e( 18 - 18) =      9.14268  eV     1   --> A_1  L_1       
     e( 19 - 20) =      9.18158  eV     2   --> E    L_3       

 **************************************************************************

 **************************************************************************

                    xk=(  -0.01587,   0.02749,   0.00000  )

     point group C_1 (1)    
     there are  1 classes
     the character table:

       E    
A      1.00

     the symmetry operations in each class and the name of the first element:

     E        1
                                                                 

     Band symmetry, C_1 (1)     point group:

     e(  1 -  1) =    -20.10736  eV     1   --> A              
     e(  2 -  2) =    -20.00776  eV     1   --> A              
     e(  3 -  3) =     -8.09841  eV     1   --> A              
     e(  4 -  4) =     -7.26364  eV     1   --> A              
     e(  5 -  5) =     -3.93677  eV     1   --> A              
     e(  6 -  6) =     -3.92539  eV     1   --> A              
     e(  7 -  7) =     -3.90240  eV     1   --> A              
     e(  8 -  8) =     -3.89229  eV     1   --> A              
     e(  9 -  9) =      1.98684  eV     1   --> A              
     e( 10 - 10) =      2.54833  eV     1   --> A              
     e( 11 - 11) =      3.57589  eV     1   --> A              
     e( 12 - 12) =      4.58146  eV     1   --> A              
     e( 13 - 13) =      4.70863  eV     1   --> A              
     e( 14 - 14) =      6.46302  eV     1   --> A              
     e( 15 - 15) =      7.32275  eV     1   --> A              
     e( 16 - 16) =      9.11701  eV     1   --> A              
     e( 17 - 17) =      9.12900  eV     1   --> A              
     e( 18 - 18) =      9.18961  eV     1   --> A              
     e( 19 - 19) =      9.19767  eV     1   --> A              
     e( 20 - 20) =      9.24552  eV     1   --> A              

 **************************************************************************

 **************************************************************************

                    xk=(  -0.03175,   0.05499,   0.00000  )

     Band symmetry, C_1 (1)     point group:

     e(  1 -  1) =    -20.06376  eV     1   --> A              
     e(  2 -  2) =    -19.96477  eV     1   --> A              
     e(  3 -  3) =     -8.03901  eV     1   --> A              
     e(  4 -  4) =     -7.20659  eV     1   --> A              
     e(  5 -  5) =     -4.12041  eV     1   --> A              
     e(  6 -  6) =     -4.10619  eV     1   --> A              
     e(  7 -  7) =     -3.98958  eV     1   --> A              
     e(  8 -  8) =     -3.97922  eV     1   --> A              
     e(  9 -  9) =      2.06354  eV     1   --> A              
     e( 10 - 10) =      2.61848  eV     1   --> A              
     e( 11 - 11) =      3.64838  eV     1   --> A              
     e( 12 - 12) =      4.64563  eV     1   --> A              
     e( 13 - 13) =      4.77964  eV     1   --> A              
     e( 14 - 14) =      6.51303  eV     1   --> A              
     e( 15 - 15) =      7.39233  eV     1   --> A              
     e( 16 - 16) =      9.08691  eV     1   --> A              
     e( 17 - 17) =      9.10214  eV     1   --> A              
     e( 18 - 18) =      9.20520  eV     1   --> A              
     e( 19 - 19) =      9.38856  eV     1   --> A              
     e( 20 - 20) =      9.42182  eV     1   --> A              

 **************************************************************************

 **************************************************************************

                    xk=(  -0.04762,   0.08248,   0.00000  )

     Band symmetry, C_1 (1)     point group:

     e(  1 -  1) =    -19.99138  eV     1   --> A              
     e(  2 -  2) =    -19.89331  eV     1   --> A              
     e(  3 -  3) =     -7.94009  eV     1   --> A              
     e(  4 -  4) =     -7.11201  eV     1   --> A              
     e(  5 -  5) =     -4.40937  eV     1   --> A              
     e(  6 -  6) =     -4.39017  eV     1   --> A              
     e(  7 -  7) =     -4.13191  eV     1   --> A              
     e(  8 -  8) =     -4.12059  eV     1   --> A              
     e(  9 -  9) =      2.18912  eV     1   --> A              
     e( 10 - 10) =      2.73453  eV     1   --> A              
     e( 11 - 11) =      3.76858  eV     1   --> A              
     e( 12 - 12) =      4.74967  eV     1   --> A              
     e( 13 - 13) =      4.89730  eV     1   --> A              
     e( 14 - 14) =      6.59334  eV     1   --> A              
     e( 15 - 15) =      7.50389  eV     1   --> A              
     e( 16 - 16) =      9.05894  eV     1   --> A              
     e( 17 - 17) =      9.07599  eV     1   --> A              
     e( 18 - 18) =      9.21754  eV     1   --> A              
     e( 19 - 19) =      9.64778  eV     1   --> A              
     e( 20 - 20) =      9.68554  eV     1   --> A              

 **************************************************************************

 **************************************************************************

                    xk=(  -0.06349,   0.10997,   0.00000  )

     Band symmetry, C_1 (1)     point group:

     e(  1 -  1) =    -19.89070  eV     1   --> A              
     e(  2 -  2) =    -19.79380  eV     1   --> A              
     e(  3 -  3) =     -7.80206  eV     1   --> A              
     e(  4 -  4) =     -6.98024  eV     1   --> A              
     e(  5 -  5) =     -4.78488  eV     1   --> A              
     e(  6 -  6) =     -4.75936  eV     1   --> A              
     e(  7 -  7) =     -4.32595  eV     1   --> A              
     e(  8 -  8) =     -4.31353  eV     1   --> A              
     e(  9 -  9) =      2.36149  eV     1   --> A              
     e( 10 - 10) =      2.89557  eV     1   --> A              
     e( 11 - 11) =      3.93580  eV     1   --> A              
     e( 12 - 12) =      4.88935  eV     1   --> A              
     e( 13 - 13) =      5.06080  eV     1   --> A              
     e( 14 - 14) =      6.69851  eV     1   --> A              
     e( 15 - 15) =      7.65200  eV     1   --> A              
     e( 16 - 16) =      9.04932  eV     1   --> A              
     e( 17 - 17) =      9.06069  eV     1   --> A              
     e( 18 - 18) =      9.22179  eV     1   --> A              
     e( 19 - 19) =      9.73680  eV     1   --> A              
     e( 20 - 20) =     10.05682  eV     1   --> A              

 **************************************************************************

 **************************************************************************

                    xk=(  -0.07936,   0.13746,   0.00000  )

     Band symmetry, C_1 (1)     point group:

     e(  1 -  1) =    -19.76239  eV     1   --> A              
     e(  2 -  2) =    -19.66696  eV     1   --> A              
     e(  3 -  3) =     -7.62555  eV     1   --> A              
     e(  4 -  4) =     -6.81226  eV     1   --> A              
     e(  5 -  5) =     -5.22388  eV     1   --> A              
     e(  6 -  6) =     -5.19224  eV     1   --> A              
     e(  7 -  7) =     -4.56632  eV     1   --> A              
     e(  8 -  8) =     -4.55271  eV     1   --> A              
     e(  9 -  9) =      2.57896  eV     1   --> A              
     e( 10 - 10) =      3.10036  eV     1   --> A              
     e( 11 - 11) =      4.14915  eV     1   --> A              
     e( 12 - 12) =      5.05801  eV     1   --> A              
     e( 13 - 13) =      5.26897  eV     1   --> A              
     e( 14 - 14) =      6.81892  eV     1   --> A              
     e( 15 - 15) =      7.82711  eV     1   --> A              
     e( 16 - 16) =      9.05547  eV     1   --> A              
     e( 17 - 17) =      9.06689  eV     1   --> A              
     e( 18 - 18) =      9.22124  eV     1   --> A              
     e( 19 - 19) =      9.51157  eV     1   --> A              
     e( 20 - 20) =     10.22850  eV     1   --> A              

 **************************************************************************

 **************************************************************************

                    xk=(  -0.09524,   0.16496,   0.00000  )

     Band symmetry, C_1 (1)     point group:

     e(  1 -  1) =    -19.60717  eV     1   --> A              
     e(  2 -  2) =    -19.51363  eV     1   --> A              
     e(  3 -  3) =     -7.41198  eV     1   --> A              
     e(  4 -  4) =     -6.60957  eV     1   --> A              
     e(  5 -  5) =     -5.70608  eV     1   --> A              
     e(  6 -  6) =     -5.66890  eV     1   --> A              
     e(  7 -  7) =     -4.84724  eV     1   --> A              
     e(  8 -  8) =     -4.83164  eV     1   --> A              
     e(  9 -  9) =      2.84069  eV     1   --> A              
     e( 10 - 10) =      3.34750  eV     1   --> A              
     e( 11 - 11) =      4.40734  eV     1   --> A              
     e( 12 - 12) =      5.24468  eV     1   --> A              
     e( 13 - 13) =      5.52012  eV     1   --> A              
     e( 14 - 14) =      6.93986  eV     1   --> A              
     e( 15 - 15) =      8.00296  eV     1   --> A              
     e( 16 - 16) =      9.04436  eV     1   --> A              
     e( 17 - 17) =      9.08873  eV     1   --> A              
     e( 18 - 18) =      9.22628  eV     1   --> A              
     e( 19 - 19) =      9.24717  eV     1   --> A              
     e( 20 - 20) =     10.43074  eV     1   --> A              

 **************************************************************************

 **************************************************************************

                    xk=(  -0.11111,   0.19245,   0.00000  )

     Band symmetry, C_1 (1)     point group:

     e(  1 -  1) =    -19.42629  eV     1   --> A              
     e(  2 -  2) =    -19.33487  eV     1   --> A              
     e(  3 -  3) =     -7.16324  eV     1   --> A              
     e(  4 -  4) =     -6.38261  eV     1   --> A              
     e(  5 -  5) =     -6.21377  eV     1   --> A              
     e(  6 -  6) =     -6.16261  eV     1   --> A              
     e(  7 -  7) =     -5.16151  eV     1   --> A              
     e(  8 -  8) =     -5.14381  eV     1   --> A              
     e(  9 -  9) =      3.14611  eV     1   --> A              
     e( 10 - 10) =      3.63474  eV     1   --> A              
     e( 11 - 11) =      4.70729  eV     1   --> A              
     e( 12 - 12) =      5.42882  eV     1   --> A              
     e( 13 - 13) =      5.81071  eV     1   --> A              
     e( 14 - 14) =      7.04428  eV     1   --> A              
     e( 15 - 15) =      8.07753  eV     1   --> A              
     e( 16 - 16) =      8.92781  eV     1   --> A              
     e( 17 - 17) =      9.03269  eV     1   --> A              
     e( 18 - 18) =      9.24569  eV     1   --> A              
     e( 19 - 19) =      9.33009  eV     1   --> A              
     e( 20 - 20) =     10.65045  eV     1   --> A              

 **************************************************************************

 **************************************************************************

                    xk=(  -0.12698,   0.21994,   0.00000  )

     Band symmetry, C_1 (1)     point group:

     e(  1 -  1) =    -19.22116  eV     1   --> A              
     e(  2 -  2) =    -19.13227  eV     1   --> A              
     e(  3 -  3) =     -6.89784  eV     1   --> A              
     e(  4 -  4) =     -6.71617  eV     1   --> A              
     e(  5 -  5) =     -6.69919  eV     1   --> A              
     e(  6 -  6) =     -6.09394  eV     1   --> A              
     e(  7 -  7) =     -5.50250  eV     1   --> A              
     e(  8 -  8) =     -5.48236  eV     1   --> A              
     e(  9 -  9) =      3.49500  eV     1   --> A              
     e( 10 - 10) =      3.95794  eV     1   --> A              
     e( 11 - 11) =      5.03731  eV     1   --> A              
     e( 12 - 12) =      5.57662  eV     1   --> A              
     e( 13 - 13) =      6.13095  eV     1   --> A              
     e( 14 - 14) =      7.13297  eV     1   --> A              
     e( 15 - 15) =      7.87343  eV     1   --> A              
     e( 16 - 16) =      8.98619  eV     1   --> A              
     e( 17 - 17) =      9.07573  eV     1   --> A              
     e( 18 - 18) =      9.37899  eV     1   --> A              
     e( 19 - 19) =      9.46890  eV     1   --> A              
     e( 20 - 20) =     10.88621  eV     1   --> A              

 **************************************************************************

 **************************************************************************

                    xk=(  -0.14286,   0.24744,   0.00000  )

     Band symmetry, C_1 (1)     point group:

     e(  1 -  1) =    -18.99388  eV     1   --> A              
     e(  2 -  2) =    -18.90787  eV     1   --> A              
     e(  3 -  3) =     -7.26834  eV     1   --> A              
     e(  4 -  4) =     -7.21526  eV     1   --> A              
     e(  5 -  5) =     -6.55060  eV     1   --> A              
     e(  6 -  6) =     -5.86602  eV     1   --> A              
     e(  7 -  7) =     -5.83997  eV     1   --> A              
     e(  8 -  8) =     -5.79377  eV     1   --> A              
     e(  9 -  9) =      3.88691  eV     1   --> A              
     e( 10 - 10) =      4.30805  eV     1   --> A              
     e( 11 - 11) =      5.31668  eV     1   --> A              
     e( 12 - 12) =      5.69910  eV     1   --> A              
     e( 13 - 13) =      6.44210  eV     1   --> A              
     e( 14 - 14) =      7.25352  eV     1   --> A              
     e( 15 - 15) =      7.53188  eV     1   --> A              
     e( 16 - 16) =      9.21904  eV     1   --> A              
     e( 17 - 17) =      9.25348  eV     1   --> A              
     e( 18 - 18) =      9.55475  eV     1   --> A              
     e( 19 - 19) =      9.65755  eV     1   --> A              
     e( 20 - 20) =     11.13973  eV     1   --> A              

 **************************************************************************

 **************************************************************************

                    xk=(  -0.15873,   0.27493,   0.00000  )

     Band symmetry, C_1 (1)     point group:

     e(  1 -  1) =    -18.74677  eV     1   --> A              
     e(  2 -  2) =    -18.66378  eV     1   --> A              
     e(  3 -  3) =     -7.77862  eV     1   --> A              
     e(  4 -  4) =     -7.72348  eV     1   --> A              
     e(  5 -  5) =     -6.23721  eV     1   --> A              
     e(  6 -  6) =     -6.22315  eV     1   --> A              
     e(  7 -  7) =     -6.19192  eV     1   --> A              
     e(  8 -  8) =     -5.46921  eV     1   --> A              
     e(  9 -  9) =      4.32137  eV     1   --> A              
     e( 10 - 10) =      4.66103  eV     1   --> A              
     e( 11 - 11) =      5.27808  eV     1   --> A              
     e( 12 - 12) =      6.01713  eV     1   --> A              
     e( 13 - 13) =      6.56123  eV     1   --> A              
     e( 14 - 14) =      7.39657  eV     1   --> A              
     e( 15 - 15) =      7.46891  eV     1   --> A              
     e( 16 - 16) =      9.46694  eV     1   --> A              
     e( 17 - 17) =      9.60507  eV     1   --> A              
     e( 18 - 18) =      9.76414  eV     1   --> A              
     e( 19 - 19) =      9.89200  eV     1   --> A              
     e( 20 - 20) =     11.41398  eV     1   --> A              

 **************************************************************************

 **************************************************************************

                    xk=(  -0.17460,   0.30242,   0.00000  )

     Band symmetry, C_1 (1)     point group:

     e(  1 -  1) =    -18.48305  eV     1   --> A              
     e(  2 -  2) =    -18.40359  eV     1   --> A              
     e(  3 -  3) =     -8.27204  eV     1   --> A              
     e(  4 -  4) =     -8.21372  eV     1   --> A              
     e(  5 -  5) =     -6.61781  eV     1   --> A              
     e(  6 -  6) =     -6.58863  eV     1   --> A              
     e(  7 -  7) =     -5.82931  eV     1   --> A              
     e(  8 -  8) =     -5.11890  eV     1   --> A              
     e(  9 -  9) =      4.79322  eV     1   --> A              
     e( 10 - 10) =      4.93868  eV     1   --> A              
     e( 11 - 11) =      4.99812  eV     1   --> A              
     e( 12 - 12) =      6.38975  eV     1   --> A              
     e( 13 - 13) =      6.48209  eV     1   --> A              
     e( 14 - 14) =      7.68940  eV     1   --> A              
     e( 15 - 15) =      7.78965  eV     1   --> A              
     e( 16 - 16) =      9.79818  eV     1   --> A              
     e( 17 - 17) =      9.98779  eV     1   --> A              
     e( 18 - 18) =     10.01190  eV     1   --> A              
     e( 19 - 19) =     10.16877  eV     1   --> A              
     e( 20 - 20) =     11.71293  eV     1   --> A              

 **************************************************************************

 **************************************************************************

                    xk=(  -0.19047,   0.32992,   0.00000  )

     Band symmetry, C_1 (1)     point group:

     e(  1 -  1) =    -18.20714  eV     1   --> A              
     e(  2 -  2) =    -18.13156  eV     1   --> A              
     e(  3 -  3) =     -8.73832  eV     1   --> A              
     e(  4 -  4) =     -8.67721  eV     1   --> A              
     e(  5 -  5) =     -7.00028  eV     1   --> A              
     e(  6 -  6) =     -6.96725  eV     1   --> A              
     e(  7 -  7) =     -5.43230  eV     1   --> A              
     e(  8 -  8) =     -4.75016  eV     1   --> A              
     e(  9 -  9) =      4.59706  eV     1   --> A              
     e( 10 - 10) =      4.94782  eV     1   --> A              
     e( 11 - 11) =      5.32114  eV     1   --> A              
     e( 12 - 12) =      6.38742  eV     1   --> A              
     e( 13 - 13) =      7.01110  eV     1   --> A              
     e( 14 - 14) =      8.16082  eV     1   --> A              
     e( 15 - 15) =      8.18954  eV     1   --> A              
     e( 16 - 16) =     10.18473  eV     1   --> A              
     e( 17 - 17) =     10.23768  eV     1   --> A              
     e( 18 - 18) =     10.43459  eV     1   --> A              
     e( 19 - 19) =     10.48611  eV     1   --> A              
     e( 20 - 20) =     12.03882  eV     1   --> A              

 **************************************************************************

 **************************************************************************

                    xk=(  -0.20635,   0.35741,   0.00000  )

     Band symmetry, C_1 (1)     point group:

     e(  1 -  1) =    -17.92425  eV     1   --> A              
     e(  2 -  2) =    -17.85275  eV     1   --> A              
     e(  3 -  3) =     -9.16895  eV     1   --> A              
     e(  4 -  4) =     -9.10527  eV     1   --> A              
     e(  5 -  5) =     -7.37911  eV     1   --> A              
     e(  6 -  6) =     -7.34238  eV     1   --> A              
     e(  7 -  7) =     -5.01861  eV     1   --> A              
     e(  8 -  8) =     -4.36923  eV     1   --> A              
     e(  9 -  9) =      4.16142  eV     1   --> A              
     e( 10 - 10) =      4.64459  eV     1   --> A              
     e( 11 - 11) =      5.87925  eV     1   --> A              
     e( 12 - 12) =      6.71445  eV     1   --> A              
     e( 13 - 13) =      7.58876  eV     1   --> A              
     e( 14 - 14) =      8.64089  eV     1   --> A              
     e( 15 - 15) =      8.70203  eV     1   --> A              
     e( 16 - 16) =     10.47545  eV     1   --> A              
     e( 17 - 17) =     10.59102  eV     1   --> A              
     e( 18 - 18) =     10.84967  eV     1   --> A              
     e( 19 - 19) =     10.88893  eV     1   --> A              
     e( 20 - 20) =     12.38015  eV     1   --> A              

 **************************************************************************

 **************************************************************************

                    xk=(  -0.22222,   0.38490,   0.00000  )

     Band symmetry, C_1 (1)     point group:

     e(  1 -  1) =    -17.64150  eV     1   --> A              
     e(  2 -  2) =    -17.57442  eV     1   --> A              
     e(  3 -  3) =     -9.55436  eV     1   --> A              
     e(  4 -  4) =     -9.48837  eV     1   --> A              
     e(  5 -  5) =     -7.75045  eV     1   --> A              
     e(  6 -  6) =     -7.71012  eV     1   --> A              
     e(  7 -  7) =     -4.59666  eV     1   --> A              
     e(  8 -  8) =     -3.98415  eV     1   --> A              
     e(  9 -  9) =      3.71728  eV     1   --> A              
     e( 10 - 10) =      4.22079  eV     1   --> A              
     e( 11 - 11) =      6.47611  eV     1   --> A              
     e( 12 - 12) =      7.20574  eV     1   --> A              
     e( 13 - 13) =      8.20738  eV     1   --> A              
     e( 14 - 14) =      9.11817  eV     1   --> A              
     e( 15 - 15) =      9.28309  eV     1   --> A              
     e( 16 - 16) =     10.69563  eV     1   --> A              
     e( 17 - 17) =     10.97346  eV     1   --> A              
     e( 18 - 18) =     11.26668  eV     1   --> A              
     e( 19 - 19) =     11.36233  eV     1   --> A              
     e( 20 - 20) =     12.61719  eV     1   --> A              

 **************************************************************************

 **************************************************************************

                    xk=(  -0.23809,   0.41239,   0.00000  )

     Band symmetry, C_1 (1)     point group:

     e(  1 -  1) =    -17.36739  eV     1   --> A              
     e(  2 -  2) =    -17.30507  eV     1   --> A              
     e(  3 -  3) =     -9.88451  eV     1   --> A              
     e(  4 -  4) =     -9.81675  eV     1   --> A              
     e(  5 -  5) =     -8.10999  eV     1   --> A              
     e(  6 -  6) =     -8.06627  eV     1   --> A              
     e(  7 -  7) =     -4.17727  eV     1   --> A              
     e(  8 -  8) =     -3.60530  eV     1   --> A              
     e(  9 -  9) =      3.29176  eV     1   --> A              
     e( 10 - 10) =      3.78159  eV     1   --> A              
     e( 11 - 11) =      7.10776  eV     1   --> A              
     e( 12 - 12) =      7.76168  eV     1   --> A              
     e( 13 - 13) =      8.85260  eV     1   --> A              
     e( 14 - 14) =      9.59257  eV     1   --> A              
     e( 15 - 15) =      9.87371  eV     1   --> A              
     e( 16 - 16) =     10.90432  eV     1   --> A              
     e( 17 - 17) =     11.31709  eV     1   --> A              
     e( 18 - 18) =     11.71134  eV     1   --> A              
     e( 19 - 19) =     11.84495  eV     1   --> A              
     e( 20 - 20) =     12.45294  eV     1   --> A              

 **************************************************************************

 **************************************************************************

                    xk=(  -0.25397,   0.43989,   0.00000  )

     Band symmetry, C_1 (1)     point group:

     e(  1 -  1) =    -17.11275  eV     1   --> A              
     e(  2 -  2) =    -17.05484  eV     1   --> A              
     e(  3 -  3) =    -10.14942  eV     1   --> A              
     e(  4 -  4) =    -10.07986  eV     1   --> A              
     e(  5 -  5) =     -8.45424  eV     1   --> A              
     e(  6 -  6) =     -8.40736  eV     1   --> A              
     e(  7 -  7) =     -3.77450  eV     1   --> A              
     e(  8 -  8) =     -3.24669  eV     1   --> A              
     e(  9 -  9) =      2.90635  eV     1   --> A              
     e( 10 - 10) =      3.36658  eV     1   --> A              
     e( 11 - 11) =      7.76746  eV     1   --> A              
     e( 12 - 12) =      8.32978  eV     1   --> A              
     e( 13 - 13) =      9.46767  eV     1   --> A              
     e( 14 - 14) =     10.05226  eV     1   --> A              
     e( 15 - 15) =     10.39618  eV     1   --> A              
     e( 16 - 16) =     11.16085  eV     1   --> A              
     e( 17 - 17) =     11.64990  eV     1   --> A              
     e( 18 - 18) =     12.09066  eV     1   --> A              
     e( 19 - 19) =     12.12301  eV     1   --> A              
     e( 20 - 20) =     12.40393  eV     1   --> A              

 **************************************************************************

 **************************************************************************

                    xk=(  -0.26984,   0.46738,   0.00000  )

     Band symmetry, C_1 (1)     point group:

     e(  1 -  1) =    -16.88889  eV     1   --> A              
     e(  2 -  2) =    -16.83510  eV     1   --> A              
     e(  3 -  3) =    -10.33762  eV     1   --> A              
     e(  4 -  4) =    -10.26804  eV     1   --> A              
     e(  5 -  5) =     -8.77923  eV     1   --> A              
     e(  6 -  6) =     -8.72986  eV     1   --> A              
     e(  7 -  7) =     -3.40675  eV     1   --> A              
     e(  8 -  8) =     -2.92361  eV     1   --> A              
     e(  9 -  9) =      2.58236  eV     1   --> A              
     e( 10 - 10) =      2.99847  eV     1   --> A              
     e( 11 - 11) =      8.44155  eV     1   --> A              
     e( 12 - 12) =      8.84578  eV     1   --> A              
     e( 13 - 13) =      9.86251  eV     1   --> A              
     e( 14 - 14) =     10.61506  eV     1   --> A              
     e( 15 - 15) =     10.74614  eV     1   --> A              
     e( 16 - 16) =     11.48050  eV     1   --> A              
     e( 17 - 17) =     12.02519  eV     1   --> A              
     e( 18 - 18) =     12.03288  eV     1   --> A              
     e( 19 - 19) =     12.44608  eV     1   --> A              
     e( 20 - 20) =     12.87532  eV     1   --> A              

 **************************************************************************

 **************************************************************************

                    xk=(  -0.28571,   0.49487,   0.00000  )

     Band symmetry, C_1 (1)     point group:

     e(  1 -  1) =    -16.70751  eV     1   --> A              
     e(  2 -  2) =    -16.65734  eV     1   --> A              
     e(  3 -  3) =    -10.44073  eV     1   --> A              
     e(  4 -  4) =    -10.37365  eV     1   --> A              
     e(  5 -  5) =     -9.07960  eV     1   --> A              
     e(  6 -  6) =     -9.02946  eV     1   --> A              
     e(  7 -  7) =     -3.09724  eV     1   --> A              
     e(  8 -  8) =     -2.65460  eV     1   --> A              
     e(  9 -  9) =      2.33863  eV     1   --> A              
     e( 10 - 10) =      2.69143  eV     1   --> A              
     e( 11 - 11) =      9.08737  eV     1   --> A              
     e( 12 - 12) =      9.21390  eV     1   --> A              
     e( 13 - 13) =      9.99111  eV     1   --> A              
     e( 14 - 14) =     11.04480  eV     1   --> A              
     e( 15 - 15) =     11.34585  eV     1   --> A              
     e( 16 - 16) =     11.50797  eV     1   --> A              
     e( 17 - 17) =     12.47469  eV     1   --> A              
     e( 18 - 18) =     12.50334  eV     1   --> A              
     e( 19 - 19) =     12.65278  eV     1   --> A              
     e( 20 - 20) =     13.31028  eV     1   --> A              

 **************************************************************************

 **************************************************************************

                    xk=(  -0.30158,   0.52237,   0.00000  )

     Band symmetry, C_1 (1)     point group:

     e(  1 -  1) =    -16.57713  eV     1   --> A              
     e(  2 -  2) =    -16.52977  eV     1   --> A              
     e(  3 -  3) =    -10.45775  eV     1   --> A              
     e(  4 -  4) =    -10.39747  eV     1   --> A              
     e(  5 -  5) =     -9.34500  eV     1   --> A              
     e(  6 -  6) =     -9.29763  eV     1   --> A              
     e(  7 -  7) =     -2.86711  eV     1   --> A              
     e(  8 -  8) =     -2.45535  eV     1   --> A              
     e(  9 -  9) =      2.19111  eV     1   --> A              
     e( 10 - 10) =      2.45507  eV     1   --> A              
     e( 11 - 11) =      9.38851  eV     1   --> A              
     e( 12 - 12) =      9.51499  eV     1   --> A              
     e( 13 - 13) =     10.17655  eV     1   --> A              
     e( 14 - 14) =     11.22955  eV     1   --> A              
     e( 15 - 15) =     11.68584  eV     1   --> A              
     e( 16 - 16) =     12.12587  eV     1   --> A              
     e( 17 - 17) =     12.66373  eV     1   --> A              
     e( 18 - 18) =     12.88693  eV     1   --> A              
     e( 19 - 19) =     13.16002  eV     1   --> A              
     e( 20 - 20) =     13.54626  eV     1   --> A              

 **************************************************************************

 **************************************************************************

                    xk=(  -0.31746,   0.54986,   0.00000  )

     Band symmetry, C_1 (1)     point group:

     e(  1 -  1) =    -16.50169  eV     1   --> A              
     e(  2 -  2) =    -16.45593  eV     1   --> A              
     e(  3 -  3) =    -10.40593  eV     1   --> A              
     e(  4 -  4) =    -10.36392  eV     1   --> A              
     e(  5 -  5) =     -9.55064  eV     1   --> A              
     e(  6 -  6) =     -9.51568  eV     1   --> A              
     e(  7 -  7) =     -2.73090  eV     1   --> A              
     e(  8 -  8) =     -2.33723  eV     1   --> A              
     e(  9 -  9) =      2.14425  eV     1   --> A              
     e( 10 - 10) =      2.28982  eV     1   --> A              
     e( 11 - 11) =      9.45044  eV     1   --> A              
     e( 12 - 12) =      9.55376  eV     1   --> A              
     e( 13 - 13) =     10.63456  eV     1   --> A              
     e( 14 - 14) =     11.12784  eV     1   --> A              
     e( 15 - 15) =     12.26147  eV     1   --> A              
     e( 16 - 16) =     12.39947  eV     1   --> A              
     e( 17 - 17) =     12.98161  eV     1   --> A              
     e( 18 - 18) =     13.14081  eV     1   --> A              
     e( 19 - 19) =     13.21687  eV     1   --> A              
     e( 20 - 20) =     13.95839  eV     1   --> A              

 **************************************************************************

 **************************************************************************

                    xk=(  -0.33333,   0.57735,   0.00000  )

     point group C_3 (3)    
     there are  3 classes
     the character table:

       E     C3    C3^2 
A      1.00  1.00  1.00
E      1.00 -0.50 -0.50
E*     1.00 -0.50 -0.50
     imaginary part
A      0.00  0.00  0.00
E      0.00  0.87 -0.87
E*     0.00 -0.87  0.87

     the symmetry operations in each class and the name of the first element:

     E        1
                                                                 
     C3       2
                                                                 
     C3^2     3
                                                                 

     Band symmetry, C_3 (3)     point group:

     e(  1 -  1) =    -16.47809  eV     1   --> A              
     e(  2 -  2) =    -16.43290  eV     1   --> A              
     e(  3 -  3) =    -10.34595  eV     1   -->   ?
     e(  4 -  4) =    -10.34578  eV     1   -->   ?
     e(  5 -  5) =     -9.62646  eV     1   -->   ?
     e(  6 -  6) =     -9.62628  eV     1   -->   ?
     e(  7 -  7) =     -2.68825  eV     1   --> A              
     e(  8 -  8) =     -2.29988  eV     1   --> A              
     e(  9 -  9) =      2.18627  eV     1   -->   ?
     e( 10 - 10) =      2.18652  eV     1   -->   ?
     e( 11 - 12) =      9.49574  eV     2   --> E              
     e( 11 - 12) =      9.49574  eV     2   --> E*             
     e( 13 - 14) =     10.97403  eV     2   --> E              
     e( 13 - 14) =     10.97403  eV     2   --> E*             
     e( 15 - 15) =     12.32363  eV     1   --> A              
     e( 16 - 16) =     12.77015  eV     1   --> A              
     e( 17 - 17) =     12.95224  eV     1   -->   ?
     e( 18 - 18) =     12.95279  eV     1   -->   ?
     e( 19 - 19) =     13.93118  eV     1   -->   ?
     e( 20 - 20) =     13.93247  eV     1   -->   ?

 **************************************************************************

 **************************************************************************

                    xk=(  -0.30303,   0.57735,   0.00000  )

     point group C_1 (1)    
     there are  1 classes
     the character table:

       E    
A      1.00

     the symmetry operations in each class and the name of the first element:

     E        1
                                                                 

     Band symmetry, C_1 (1)     point group:

     e(  1 -  1) =    -16.49659  eV     1   --> A              
     e(  2 -  2) =    -16.45089  eV     1   --> A              
     e(  3 -  3) =    -10.42143  eV     1   --> A              
     e(  4 -  4) =    -10.37743  eV     1   --> A              
     e(  5 -  5) =     -9.54603  eV     1   --> A              
     e(  6 -  6) =     -9.50937  eV     1   --> A              
     e(  7 -  7) =     -2.72087  eV     1   --> A              
     e(  8 -  8) =     -2.32916  eV     1   --> A              
     e(  9 -  9) =      2.12853  eV     1   --> A              
     e( 10 - 10) =      2.28395  eV     1   --> A              
     e( 11 - 11) =      9.45838  eV     1   --> A              
     e( 12 - 12) =      9.55989  eV     1   --> A              
     e( 13 - 13) =     10.81545  eV     1   --> A              
     e( 14 - 14) =     10.95328  eV     1   --> A              
     e( 15 - 15) =     12.38529  eV     1   --> A              
     e( 16 - 16) =     12.47148  eV     1   --> A              
     e( 17 - 17) =     12.77032  eV     1   --> A              
     e( 18 - 18) =     13.12498  eV     1   --> A              
     e( 19 - 19) =     13.54338  eV     1   --> A              
     e( 20 - 20) =     13.62393  eV     1   --> A              

 **************************************************************************

 **************************************************************************

                    xk=(  -0.27272,   0.57735,   0.00000  )

     Band symmetry, C_1 (1)     point group:

     e(  1 -  1) =    -16.54496  eV     1   --> A              
     e(  2 -  2) =    -16.49835  eV     1   --> A              
     e(  3 -  3) =    -10.55982  eV     1   --> A              
     e(  4 -  4) =    -10.49455  eV     1   --> A              
     e(  5 -  5) =     -9.29909  eV     1   --> A              
     e(  6 -  6) =     -9.24915  eV     1   --> A              
     e(  7 -  7) =     -2.80517  eV     1   --> A              
     e(  8 -  8) =     -2.40578  eV     1   --> A              
     e(  9 -  9) =      2.09210  eV     1   --> A              
     e( 10 - 10) =      2.40669  eV     1   --> A              
     e( 11 - 11) =      9.44902  eV     1   --> A              
     e( 12 - 12) =      9.63044  eV     1   --> A              
     e( 13 - 13) =     10.66898  eV     1   --> A              
     e( 14 - 14) =     10.71115  eV     1   --> A              
     e( 15 - 15) =     12.13811  eV     1   --> A              
     e( 16 - 16) =     12.35021  eV     1   --> A              
     e( 17 - 17) =     12.54827  eV     1   --> A              
     e( 18 - 18) =     12.78497  eV     1   --> A              
     e( 19 - 19) =     13.19143  eV     1   --> A              
     e( 20 - 20) =     13.30063  eV     1   --> A              

 **************************************************************************

 **************************************************************************

                    xk=(  -0.24242,   0.57735,   0.00000  )

     Band symmetry, C_1 (1)     point group:

     e(  1 -  1) =    -16.61322  eV     1   --> A              
     e(  2 -  2) =    -16.56530  eV     1   --> A              
     e(  3 -  3) =    -10.71239  eV     1   --> A              
     e(  4 -  4) =    -10.63804  eV     1   --> A              
     e(  5 -  5) =     -8.96165  eV     1   --> A              
     e(  6 -  6) =     -8.91056  eV     1   --> A              
     e(  7 -  7) =     -2.92088  eV     1   --> A              
     e(  8 -  8) =     -2.51222  eV     1   --> A              
     e(  9 -  9) =      2.06229  eV     1   --> A              
     e( 10 - 10) =      2.52829  eV     1   --> A              
     e( 11 - 11) =      9.42384  eV     1   --> A              
     e( 12 - 12) =      9.64707  eV     1   --> A              
     e( 13 - 13) =     10.42965  eV     1   --> A              
     e( 14 - 14) =     10.55992  eV     1   --> A              
     e( 15 - 15) =     11.84355  eV     1   --> A              
     e( 16 - 16) =     12.04875  eV     1   --> A              
     e( 17 - 17) =     12.25193  eV     1   --> A              
     e( 18 - 18) =     12.39596  eV     1   --> A              
     e( 19 - 19) =     12.85844  eV     1   --> A              
     e( 20 - 20) =     12.97799  eV     1   --> A              

 **************************************************************************

 **************************************************************************

                    xk=(  -0.21212,   0.57735,   0.00000  )

     Band symmetry, C_1 (1)     point group:

     e(  1 -  1) =    -16.69187  eV     1   --> A              
     e(  2 -  2) =    -16.64285  eV     1   --> A              
     e(  3 -  3) =    -10.85893  eV     1   --> A              
     e(  4 -  4) =    -10.77954  eV     1   --> A              
     e(  5 -  5) =     -8.57905  eV     1   --> A              
     e(  6 -  6) =     -8.53150  eV     1   --> A              
     e(  7 -  7) =     -3.05115  eV     1   --> A              
     e(  8 -  8) =     -2.63330  eV     1   --> A              
     e(  9 -  9) =      2.03052  eV     1   --> A              
     e( 10 - 10) =      2.63110  eV     1   --> A              
     e( 11 - 11) =      9.27224  eV     1   --> A              
     e( 12 - 12) =      9.53732  eV     1   --> A              
     e( 13 - 13) =     10.25037  eV     1   --> A              
     e( 14 - 14) =     10.47430  eV     1   --> A              
     e( 15 - 15) =     11.51216  eV     1   --> A              
     e( 16 - 16) =     11.68035  eV     1   --> A              
     e( 17 - 17) =     11.86342  eV     1   --> A              
     e( 18 - 18) =     12.22808  eV     1   --> A              
     e( 19 - 19) =     12.57063  eV     1   --> A              
     e( 20 - 20) =     12.66490  eV     1   --> A              

 **************************************************************************

 **************************************************************************

                    xk=(  -0.18182,   0.57735,   0.00000  )

     Band symmetry, C_1 (1)     point group:

     e(  1 -  1) =    -16.77280  eV     1   --> A              
     e(  2 -  2) =    -16.72259  eV     1   --> A              
     e(  3 -  3) =    -10.99086  eV     1   --> A              
     e(  4 -  4) =    -10.90784  eV     1   --> A              
     e(  5 -  5) =     -8.17921  eV     1   --> A              
     e(  6 -  6) =     -8.13607  eV     1   --> A              
     e(  7 -  7) =     -3.18152  eV     1   --> A              
     e(  8 -  8) =     -2.75592  eV     1   --> A              
     e(  9 -  9) =      1.99460  eV     1   --> A              
     e( 10 - 10) =      2.70760  eV     1   --> A              
     e( 11 - 11) =      8.93565  eV     1   --> A              
     e( 12 - 12) =      9.28178  eV     1   --> A              
     e( 13 - 13) =     10.22119  eV     1   --> A              
     e( 14 - 14) =     10.33420  eV     1   --> A              
     e( 15 - 15) =     11.12388  eV     1   --> A              
     e( 16 - 16) =     11.32606  eV     1   --> A              
     e( 17 - 17) =     11.76729  eV     1   --> A              
     e( 18 - 18) =     12.07322  eV     1   --> A              
     e( 19 - 19) =     12.34854  eV     1   --> A              
     e( 20 - 20) =     12.38595  eV     1   --> A              

 **************************************************************************

 **************************************************************************

                    xk=(  -0.15151,   0.57735,   0.00000  )

     Band symmetry, C_1 (1)     point group:

     e(  1 -  1) =    -16.85006  eV     1   --> A              
     e(  2 -  2) =    -16.79888  eV     1   --> A              
     e(  3 -  3) =    -11.10483  eV     1   --> A              
     e(  4 -  4) =    -11.01906  eV     1   --> A              
     e(  5 -  5) =     -7.78527  eV     1   --> A              
     e(  6 -  6) =     -7.74723  eV     1   --> A              
     e(  7 -  7) =     -3.30357  eV     1   --> A              
     e(  8 -  8) =     -2.87132  eV     1   --> A              
     e(  9 -  9) =      1.95539  eV     1   --> A              
     e( 10 - 10) =      2.75796  eV     1   --> A              
     e( 11 - 11) =      8.50001  eV     1   --> A              
     e( 12 - 12) =      8.90632  eV     1   --> A              
     e( 13 - 13) =     10.13603  eV     1   --> A              
     e( 14 - 14) =     10.24777  eV     1   --> A              
     e( 15 - 15) =     10.83566  eV     1   --> A              
     e( 16 - 16) =     11.02132  eV     1   --> A              
     e( 17 - 17) =     11.74696  eV     1   --> A              
     e( 18 - 18) =     11.94691  eV     1   --> A              
     e( 19 - 19) =     12.15926  eV     1   --> A              
     e( 20 - 20) =     12.22934  eV     1   --> A              

 **************************************************************************

 **************************************************************************

                    xk=(  -0.12121,   0.57735,   0.00000  )

     Band symmetry, C_1 (1)     point group:

     e(  1 -  1) =    -16.91910  eV     1   --> A              
     e(  2 -  2) =    -16.86713  eV     1   --> A              
     e(  3 -  3) =    -11.19951  eV     1   --> A              
     e(  4 -  4) =    -11.11182  eV     1   --> A              
     e(  5 -  5) =     -7.41907  eV     1   --> A              
     e(  6 -  6) =     -7.38616  eV     1   --> A              
     e(  7 -  7) =     -3.41083  eV     1   --> A              
     e(  8 -  8) =     -2.97385  eV     1   --> A              
     e(  9 -  9) =      1.91622  eV     1   --> A              
     e( 10 - 10) =      2.78678  eV     1   --> A              
     e( 11 - 11) =      8.05113  eV     1   --> A              
     e( 12 - 12) =      8.47463  eV     1   --> A              
     e( 13 - 13) =      9.95164  eV     1   --> A              
     e( 14 - 14) =     10.25884  eV     1   --> A              
     e( 15 - 15) =     10.63389  eV     1   --> A              
     e( 16 - 16) =     10.78239  eV     1   --> A              
     e( 17 - 17) =     11.67287  eV     1   --> A              
     e( 18 - 18) =     11.83181  eV     1   --> A              
     e( 19 - 19) =     12.00336  eV     1   --> A              
     e( 20 - 20) =     12.21826  eV     1   --> A              

 **************************************************************************

 **************************************************************************

                    xk=(  -0.09091,   0.57735,   0.00000  )

     Band symmetry, C_1 (1)     point group:

     e(  1 -  1) =    -16.97591  eV     1   --> A              
     e(  2 -  2) =    -16.92331  eV     1   --> A              
     e(  3 -  3) =    -11.27345  eV     1   --> A              
     e(  4 -  4) =    -11.18433  eV     1   --> A              
     e(  5 -  5) =     -7.10218  eV     1   --> A              
     e(  6 -  6) =     -7.07394  eV     1   --> A              
     e(  7 -  7) =     -3.49795  eV     1   --> A              
     e(  8 -  8) =     -3.05739  eV     1   --> A              
     e(  9 -  9) =      1.88085  eV     1   --> A              
     e( 10 - 10) =      2.80089  eV     1   --> A              
     e( 11 - 11) =      7.64619  eV     1   --> A              
     e( 12 - 12) =      8.06410  eV     1   --> A              
     e( 13 - 13) =      9.81109  eV     1   --> A              
     e( 14 - 14) =     10.23775  eV     1   --> A              
     e( 15 - 15) =     10.48727  eV     1   --> A              
     e( 16 - 16) =     10.61353  eV     1   --> A              
     e( 17 - 17) =     11.57244  eV     1   --> A              
     e( 18 - 18) =     11.71516  eV     1   --> A              
     e( 19 - 19) =     11.91996  eV     1   --> A              
     e( 20 - 20) =     12.23711  eV     1   --> A              

 **************************************************************************

 **************************************************************************

                    xk=(  -0.06061,   0.57735,   0.00000  )

     Band symmetry, C_1 (1)     point group:

     e(  1 -  1) =    -17.01816  eV     1   --> A              
     e(  2 -  2) =    -16.96499  eV     1   --> A              
     e(  3 -  3) =    -11.32664  eV     1   --> A              
     e(  4 -  4) =    -11.23647  eV     1   --> A              
     e(  5 -  5) =     -6.85595  eV     1   --> A              
     e(  6 -  6) =     -6.83182  eV     1   --> A              
     e(  7 -  7) =     -3.56150  eV     1   --> A              
     e(  8 -  8) =     -3.11880  eV     1   --> A              
     e(  9 -  9) =      1.85318  eV     1   --> A              
     e( 10 - 10) =      2.80649  eV     1   --> A              
     e( 11 - 11) =      7.32585  eV     1   --> A              
     e( 12 - 12) =      7.73328  eV     1   --> A              
     e( 13 - 13) =      9.71415  eV     1   --> A              
     e( 14 - 14) =     10.19665  eV     1   --> A              
     e( 15 - 15) =     10.38494  eV     1   --> A              
     e( 16 - 16) =     10.50912  eV     1   --> A              
     e( 17 - 17) =     11.48761  eV     1   --> A              
     e( 18 - 18) =     11.61900  eV     1   --> A              
     e( 19 - 19) =     11.87709  eV     1   --> A              
     e( 20 - 20) =     12.24526  eV     1   --> A              

 **************************************************************************

 **************************************************************************

                    xk=(  -0.03030,   0.57735,   0.00000  )

     Band symmetry, C_1 (1)     point group:

     e(  1 -  1) =    -17.04411  eV     1   --> A              
     e(  2 -  2) =    -16.99074  eV     1   --> A              
     e(  3 -  3) =    -11.35830  eV     1   --> A              
     e(  4 -  4) =    -11.26795  eV     1   --> A              
     e(  5 -  5) =     -6.69923  eV     1   --> A              
     e(  6 -  6) =     -6.67786  eV     1   --> A              
     e(  7 -  7) =     -3.60058  eV     1   --> A              
     e(  8 -  8) =     -3.15626  eV     1   --> A              
     e(  9 -  9) =      1.83533  eV     1   --> A              
     e( 10 - 10) =      2.80764  eV     1   --> A              
     e( 11 - 11) =      7.12104  eV     1   --> A              
     e( 12 - 12) =      7.52031  eV     1   --> A              
     e( 13 - 13) =      9.65748  eV     1   --> A              
     e( 14 - 14) =     10.15933  eV     1   --> A              
     e( 15 - 15) =     10.32400  eV     1   --> A              
     e( 16 - 16) =     10.45462  eV     1   --> A              
     e( 17 - 17) =     11.43361  eV     1   --> A              
     e( 18 - 18) =     11.55841  eV     1   --> A              
     e( 19 - 19) =     11.85473  eV     1   --> A              
     e( 20 - 20) =     12.24458  eV     1   --> A              

 **************************************************************************

 **************************************************************************

                    xk=(   0.00000,   0.57735,   0.00000  )

     point group C_s (m)    
     there are  2 classes
     the character table:

       E     s    
A'     1.00  1.00
A''    1.00 -1.00

     the symmetry operations in each class and the name of the first element:

     E        1
                                                                 
     s        2
                                                                 

     Band symmetry, C_s (m)     point group:

     e(  1 -  1) =    -17.05291  eV     1   --> A'             
     e(  2 -  2) =    -16.99951  eV     1   --> A'             
     e(  3 -  3) =    -11.36904  eV     1   --> A'             
     e(  4 -  4) =    -11.27845  eV     1   --> A'             
     e(  5 -  5) =     -6.64576  eV     1   --> A''            
     e(  6 -  6) =     -6.62538  eV     1   --> A''            
     e(  7 -  7) =     -3.61405  eV     1   --> A'             
     e(  8 -  8) =     -3.16906  eV     1   --> A'             
     e(  9 -  9) =      1.82903  eV     1   --> A'             
     e( 10 - 10) =      2.80750  eV     1   --> A'             
     e( 11 - 11) =      7.05042  eV     1   --> A'             
     e( 12 - 12) =      7.44685  eV     1   --> A'             
     e( 13 - 13) =      9.63868  eV     1   --> A'             
     e( 14 - 14) =     10.14476  eV     1   --> A'             
     e( 15 - 15) =     10.30368  eV     1   --> A'             
     e( 16 - 16) =     10.43779  eV     1   --> A'             
     e( 17 - 17) =     11.41517  eV     1   --> A'             
     e( 18 - 18) =     11.53787  eV     1   --> A'             
     e( 19 - 19) =     11.84746  eV     1   --> A'             
     e( 20 - 20) =     12.24315  eV     1   --> A'             

 **************************************************************************

 **************************************************************************

                    xk=(   0.00000,   0.54528,   0.00000  )

     Band symmetry, C_s (m)     point group:

     e(  1 -  1) =    -17.09752  eV     1   --> A'             
     e(  2 -  2) =    -17.04308  eV     1   --> A'             
     e(  3 -  3) =    -11.30019  eV     1   --> A'             
     e(  4 -  4) =    -11.21088  eV     1   --> A'             
     e(  5 -  5) =     -6.62982  eV     1   --> A''            
     e(  6 -  6) =     -6.60962  eV     1   --> A''            
     e(  7 -  7) =     -3.69235  eV     1   --> A'             
     e(  8 -  8) =     -3.23170  eV     1   --> A'             
     e(  9 -  9) =      1.92647  eV     1   --> A'             
     e( 10 - 10) =      2.89132  eV     1   --> A'             
     e( 11 - 11) =      7.00653  eV     1   --> A'             
     e( 12 - 12) =      7.43932  eV     1   --> A'             
     e( 13 - 13) =      9.21994  eV     1   --> A'             
     e( 14 - 14) =      9.61108  eV     1   --> A'             
     e( 15 - 15) =     10.46615  eV     1   --> A'             
     e( 16 - 16) =     10.82676  eV     1   --> A'             
     e( 17 - 17) =     11.04395  eV     1   --> A'             
     e( 18 - 18) =     11.62692  eV     1   --> A'             
     e( 19 - 19) =     11.72254  eV     1   --> A'             
     e( 20 - 20) =     12.26480  eV     1   --> A'             

 **************************************************************************

 **************************************************************************

                    xk=(   0.00000,   0.51320,   0.00000  )

     Band symmetry, C_s (m)     point group:

     e(  1 -  1) =    -17.22435  eV     1   --> A'             
     e(  2 -  2) =    -17.16690  eV     1   --> A'             
     e(  3 -  3) =    -11.09970  eV     1   --> A'             
     e(  4 -  4) =    -11.01265  eV     1   --> A'             
     e(  5 -  5) =     -6.58252  eV     1   --> A''            
     e(  6 -  6) =     -6.56231  eV     1   --> A''            
     e(  7 -  7) =     -3.90865  eV     1   --> A'             
     e(  8 -  8) =     -3.40913  eV     1   --> A'             
     e(  9 -  9) =      2.20100  eV     1   --> A'             
     e( 10 - 10) =      3.13011  eV     1   --> A'             
     e( 11 - 11) =      6.86285  eV     1   --> A'             
     e( 12 - 12) =      7.40736  eV     1   --> A'             
     e( 13 - 13) =      8.67884  eV     1   --> A'             
     e( 14 - 14) =      8.95005  eV     1   --> A'             
     e( 15 - 15) =      9.87113  eV     1   --> A'             
     e( 16 - 16) =     10.66428  eV     1   --> A'             
     e( 17 - 17) =     10.96160  eV     1   --> A'             
     e( 18 - 18) =     11.63568  eV     1   --> A'             
     e( 19 - 19) =     11.93956  eV     1   --> A'             
     e( 20 - 20) =     12.53514  eV     1   --> A'             

 **************************************************************************

 **************************************************************************

                    xk=(   0.00000,   0.48113,   0.00000  )

     Band symmetry, C_s (m)     point group:

     e(  1 -  1) =    -17.41632  eV     1   --> A'             
     e(  2 -  2) =    -17.35466  eV     1   --> A'             
     e(  3 -  3) =    -10.78532  eV     1   --> A'             
     e(  4 -  4) =    -10.70224  eV     1   --> A'             
     e(  5 -  5) =     -6.50427  eV     1   --> A''            
     e(  6 -  6) =     -6.48385  eV     1   --> A''            
     e(  7 -  7) =     -4.22281  eV     1   --> A'             
     e(  8 -  8) =     -3.67524  eV     1   --> A'             
     e(  9 -  9) =      2.61145  eV     1   --> A'             
     e( 10 - 10) =      3.49026  eV     1   --> A'             
     e( 11 - 11) =      6.59356  eV     1   --> A'             
     e( 12 - 12) =      7.30802  eV     1   --> A'             
     e( 13 - 13) =      8.23026  eV     1   --> A'             
     e( 14 - 14) =      8.40215  eV     1   --> A'             
     e( 15 - 15) =      9.17788  eV     1   --> A'             
     e( 16 - 16) =     10.20722  eV     1   --> A'             
     e( 17 - 17) =     10.26652  eV     1   --> A'             
     e( 18 - 18) =     11.78287  eV     1   --> A'             
     e( 19 - 19) =     12.32218  eV     1   --> A'             
     e( 20 - 20) =     12.84619  eV     1   --> A'             

 **************************************************************************

 **************************************************************************

                    xk=(   0.00000,   0.44905,   0.00000  )

     Band symmetry, C_s (m)     point group:

     e(  1 -  1) =    -17.65302  eV     1   --> A'             
     e(  2 -  2) =    -17.58694  eV     1   --> A'             
     e(  3 -  3) =    -10.37938  eV     1   --> A'             
     e(  4 -  4) =    -10.30099  eV     1   --> A'             
     e(  5 -  5) =     -6.39634  eV     1   --> A''            
     e(  6 -  6) =     -6.37608  eV     1   --> A''            
     e(  7 -  7) =     -4.59533  eV     1   --> A'             
     e(  8 -  8) =     -4.00005  eV     1   --> A'             
     e(  9 -  9) =      3.11048  eV     1   --> A'             
     e( 10 - 10) =      3.92784  eV     1   --> A'             
     e( 11 - 11) =      6.20239  eV     1   --> A'             
     e( 12 - 12) =      7.05861  eV     1   --> A'             
     e( 13 - 13) =      7.86286  eV     1   --> A'             
     e( 14 - 14) =      8.05853  eV     1   --> A'             
     e( 15 - 15) =      8.56342  eV     1   --> A'             
     e( 16 - 16) =      9.59709  eV     1   --> A'             
     e( 17 - 17) =      9.75575  eV     1   --> A'             
     e( 18 - 18) =     11.29624  eV     1   --> A'             
     e( 19 - 19) =     12.22919  eV     1   --> A'             
     e( 20 - 20) =     13.02851  eV     1   --> A'             

 **************************************************************************

 **************************************************************************

                    xk=(   0.00000,   0.41698,   0.00000  )

     Band symmetry, C_s (m)     point group:

     e(  1 -  1) =    -17.91518  eV     1   --> A'             
     e(  2 -  2) =    -17.84453  eV     1   --> A'             
     e(  3 -  3) =     -9.90258  eV     1   --> A'             
     e(  4 -  4) =     -9.82900  eV     1   --> A'             
     e(  5 -  5) =     -6.25948  eV     1   --> A''            
     e(  6 -  6) =     -6.23961  eV     1   --> A''            
     e(  7 -  7) =     -4.99438  eV     1   --> A'             
     e(  8 -  8) =     -4.35682  eV     1   --> A'             
     e(  9 -  9) =      3.65641  eV     1   --> A'             
     e( 10 - 10) =      4.38857  eV     1   --> A'             
     e( 11 - 11) =      5.73797  eV     1   --> A'             
     e( 12 - 12) =      6.68045  eV     1   --> A'             
     e( 13 - 13) =      7.47759  eV     1   --> A'             
     e( 14 - 14) =      7.88869  eV     1   --> A'             
     e( 15 - 15) =      8.10200  eV     1   --> A'             
     e( 16 - 16) =      9.01558  eV     1   --> A'             
     e( 17 - 17) =      9.34224  eV     1   --> A'             
     e( 18 - 18) =     10.80406  eV     1   --> A'             
     e( 19 - 19) =     11.66529  eV     1   --> A'             
     e( 20 - 20) =     13.37062  eV     1   --> A'             

 **************************************************************************

 **************************************************************************

                    xk=(   0.00000,   0.38490,   0.00000  )

     Band symmetry, C_s (m)     point group:

     e(  1 -  1) =    -18.18817  eV     1   --> A'             
     e(  2 -  2) =    -18.11330  eV     1   --> A'             
     e(  3 -  3) =     -9.37292  eV     1   --> A'             
     e(  4 -  4) =     -9.30422  eV     1   --> A'             
     e(  5 -  5) =     -6.09585  eV     1   --> A''            
     e(  6 -  6) =     -6.07631  eV     1   --> A''            
     e(  7 -  7) =     -5.39885  eV     1   --> A'             
     e(  8 -  8) =     -4.72470  eV     1   --> A'             
     e(  9 -  9) =      4.20702  eV     1   --> A'             
     e( 10 - 10) =      4.77284  eV     1   --> A'             
     e( 11 - 11) =      5.25090  eV     1   --> A'             
     e( 12 - 12) =      6.35394  eV     1   --> A'             
     e( 13 - 13) =      6.99969  eV     1   --> A'             
     e( 14 - 14) =      7.73497  eV     1   --> A'             
     e( 15 - 15) =      7.81449  eV     1   --> A'             
     e( 16 - 16) =      8.55418  eV     1   --> A'             
     e( 17 - 17) =      9.01861  eV     1   --> A'             
     e( 18 - 18) =     10.35155  eV     1   --> A'             
     e( 19 - 19) =     11.12252  eV     1   --> A'             
     e( 20 - 20) =     13.21364  eV     1   --> A'             

 **************************************************************************

 **************************************************************************

                    xk=(   0.00000,   0.35283,   0.00000  )

     Band symmetry, C_s (m)     point group:

     e(  1 -  1) =    -18.46066  eV     1   --> A'             
     e(  2 -  2) =    -18.38181  eV     1   --> A'             
     e(  3 -  3) =     -8.80532  eV     1   --> A'             
     e(  4 -  4) =     -8.74118  eV     1   --> A'             
     e(  5 -  5) =     -5.90807  eV     1   --> A''            
     e(  6 -  6) =     -5.88889  eV     1   --> A''            
     e(  7 -  7) =     -5.79489  eV     1   --> A'             
     e(  8 -  8) =     -5.08929  eV     1   --> A'             
     e(  9 -  9) =      4.70880  eV     1   --> A'             
     e( 10 - 10) =      4.77694  eV     1   --> A'             
     e( 11 - 11) =      4.88001  eV     1   --> A'             
     e( 12 - 12) =      6.30515  eV     1   --> A'             
     e( 13 - 13) =      6.50201  eV     1   --> A'             
     e( 14 - 14) =      7.49877  eV     1   --> A'             
     e( 15 - 15) =      7.56755  eV     1   --> A'             
     e( 16 - 16) =      8.30650  eV     1   --> A'             
     e( 17 - 17) =      8.79584  eV     1   --> A'             
     e( 18 - 18) =      9.95925  eV     1   --> A'             
     e( 19 - 19) =     10.62214  eV     1   --> A'             
     e( 20 - 20) =     12.87794  eV     1   --> A'             

 **************************************************************************

 **************************************************************************

                    xk=(   0.00000,   0.32075,   0.00000  )

     Band symmetry, C_s (m)     point group:

     e(  1 -  1) =    -18.72452  eV     1   --> A'             
     e(  2 -  2) =    -18.64203  eV     1   --> A'             
     e(  3 -  3) =     -8.21314  eV     1   --> A'             
     e(  4 -  4) =     -8.15371  eV     1   --> A'             
     e(  5 -  5) =     -6.17186  eV     1   --> A'             
     e(  6 -  6) =     -5.69921  eV     1   --> A''            
     e(  7 -  7) =     -5.68108  eV     1   --> A''            
     e(  8 -  8) =     -5.44030  eV     1   --> A'             
     e(  9 -  9) =      4.31514  eV     1   --> A'             
     e( 10 - 10) =      4.66015  eV     1   --> A'             
     e( 11 - 11) =      5.11451  eV     1   --> A'             
     e( 12 - 12) =      6.03971  eV     1   --> A'             
     e( 13 - 13) =      6.49952  eV     1   --> A'             
     e( 14 - 14) =      7.27149  eV     1   --> A'             
     e( 15 - 15) =      7.34035  eV     1   --> A'             
     e( 16 - 16) =      8.24129  eV     1   --> A'             
     e( 17 - 17) =      8.65688  eV     1   --> A'             
     e( 18 - 18) =      9.64662  eV     1   --> A'             
     e( 19 - 19) =     10.17507  eV     1   --> A'             
     e( 20 - 20) =     12.53612  eV     1   --> A'             

 **************************************************************************

 **************************************************************************

                    xk=(   0.00000,   0.28868,   0.00000  )

     Band symmetry, C_s (m)     point group:

     e(  1 -  1) =    -18.97377  eV     1   --> A'             
     e(  2 -  2) =    -18.88802  eV     1   --> A'             
     e(  3 -  3) =     -7.60892  eV     1   --> A'             
     e(  4 -  4) =     -7.55391  eV     1   --> A'             
     e(  5 -  5) =     -6.52303  eV     1   --> A'             
     e(  6 -  6) =     -5.77000  eV     1   --> A'             
     e(  7 -  7) =     -5.47343  eV     1   --> A''            
     e(  8 -  8) =     -5.45616  eV     1   --> A''            
     e(  9 -  9) =      3.89220  eV     1   --> A'             
     e( 10 - 10) =      4.32439  eV     1   --> A'             
     e( 11 - 11) =      5.26879  eV     1   --> A'             
     e( 12 - 12) =      5.69188  eV     1   --> A'             
     e( 13 - 13) =      6.44167  eV     1   --> A'             
     e( 14 - 14) =      7.15146  eV     1   --> A'             
     e( 15 - 15) =      7.44551  eV     1   --> A'             
     e( 16 - 16) =      8.24355  eV     1   --> A'             
     e( 17 - 17) =      8.57872  eV     1   --> A'             
     e( 18 - 18) =      9.43039  eV     1   --> A'             
     e( 19 - 19) =      9.79574  eV     1   --> A'             
     e( 20 - 20) =     12.22999  eV     1   --> A'             

 **************************************************************************

 **************************************************************************

                    xk=(   0.00000,   0.25660,   0.00000  )

     Band symmetry, C_s (m)     point group:

     e(  1 -  1) =    -19.20416  eV     1   --> A'             
     e(  2 -  2) =    -19.11545  eV     1   --> A'             
     e(  3 -  3) =     -7.01932  eV     1   --> A'             
     e(  4 -  4) =     -6.95374  eV     1   --> A'             
     e(  5 -  5) =     -6.82818  eV     1   --> A'             
     e(  6 -  6) =     -6.07279  eV     1   --> A'             
     e(  7 -  7) =     -5.23547  eV     1   --> A''            
     e(  8 -  8) =     -5.21903  eV     1   --> A''            
     e(  9 -  9) =      3.50589  eV     1   --> A'             
     e( 10 - 10) =      3.97737  eV     1   --> A'             
     e( 11 - 11) =      5.04858  eV     1   --> A'             
     e( 12 - 12) =      5.55863  eV     1   --> A'             
     e( 13 - 13) =      6.14539  eV     1   --> A'             
     e( 14 - 14) =      7.08808  eV     1   --> A'             
     e( 15 - 15) =      7.81860  eV     1   --> A'             
     e( 16 - 16) =      8.27296  eV     1   --> A'             
     e( 17 - 17) =      8.56133  eV     1   --> A'             
     e( 18 - 18) =      9.31219  eV     1   --> A'             
     e( 19 - 19) =      9.50900  eV     1   --> A'             
     e( 20 - 20) =     11.97308  eV     1   --> A'             

 **************************************************************************

 **************************************************************************

                    xk=(   0.00000,   0.22453,   0.00000  )

     Band symmetry, C_s (m)     point group:

     e(  1 -  1) =    -19.41263  eV     1   --> A'             
     e(  2 -  2) =    -19.32148  eV     1   --> A'             
     e(  3 -  3) =     -7.14513  eV     1   --> A'             
     e(  4 -  4) =     -6.41072  eV     1   --> A'             
     e(  5 -  5) =     -6.39530  eV     1   --> A'             
     e(  6 -  6) =     -6.30250  eV     1   --> A'             
     e(  7 -  7) =     -4.99188  eV     1   --> A''            
     e(  8 -  8) =     -4.97650  eV     1   --> A''            
     e(  9 -  9) =      3.15890  eV     1   --> A'             
     e( 10 - 10) =      3.65256  eV     1   --> A'             
     e( 11 - 11) =      4.72422  eV     1   --> A'             
     e( 12 - 12) =      5.42480  eV     1   --> A'             
     e( 13 - 13) =      5.82671  eV     1   --> A'             
     e( 14 - 14) =      7.03312  eV     1   --> A'             
     e( 15 - 15) =      8.02372  eV     1   --> A'             
     e( 16 - 16) =      8.43866  eV     1   --> A'             
     e( 17 - 17) =      8.61403  eV     1   --> A'             
     e( 18 - 18) =      9.26998  eV     1   --> A'             
     e( 19 - 19) =      9.35594  eV     1   --> A'             
     e( 20 - 20) =     11.62617  eV     1   --> A'             

 **************************************************************************

 **************************************************************************

                    xk=(   0.00000,   0.19245,   0.00000  )

     Band symmetry, C_s (m)     point group:

     e(  1 -  1) =    -19.59676  eV     1   --> A'             
     e(  2 -  2) =    -19.50342  eV     1   --> A'             
     e(  3 -  3) =     -7.39781  eV     1   --> A'             
     e(  4 -  4) =     -6.59652  eV     1   --> A'             
     e(  5 -  5) =     -5.82931  eV     1   --> A'             
     e(  6 -  6) =     -5.79106  eV     1   --> A'             
     e(  7 -  7) =     -4.74978  eV     1   --> A''            
     e(  8 -  8) =     -4.73529  eV     1   --> A''            
     e(  9 -  9) =      2.85291  eV     1   --> A'             
     e( 10 - 10) =      3.36212  eV     1   --> A'             
     e( 11 - 11) =      4.42221  eV     1   --> A'             
     e( 12 - 12) =      5.24826  eV     1   --> A'             
     e( 13 - 13) =      5.53413  eV     1   --> A'             
     e( 14 - 14) =      6.94215  eV     1   --> A'             
     e( 15 - 15) =      7.95807  eV     1   --> A'             
     e( 16 - 16) =      8.68762  eV     1   --> A'             
     e( 17 - 17) =      8.73857  eV     1   --> A'             
     e( 18 - 18) =      9.26784  eV     1   --> A'             
     e( 19 - 19) =      9.39161  eV     1   --> A'             
     e( 20 - 20) =     11.22601  eV     1   --> A'             

 **************************************************************************

 **************************************************************************

                    xk=(   0.00000,   0.16038,   0.00000  )

     Band symmetry, C_s (m)     point group:

     e(  1 -  1) =    -19.75501  eV     1   --> A'             
     e(  2 -  2) =    -19.65966  eV     1   --> A'             
     e(  3 -  3) =     -7.61556  eV     1   --> A'             
     e(  4 -  4) =     -6.80301  eV     1   --> A'             
     e(  5 -  5) =     -5.29959  eV     1   --> A'             
     e(  6 -  6) =     -5.26722  eV     1   --> A'             
     e(  7 -  7) =     -4.51816  eV     1   --> A''            
     e(  8 -  8) =     -4.50480  eV     1   --> A''            
     e(  9 -  9) =      2.58912  eV     1   --> A'             
     e( 10 - 10) =      3.11126  eV     1   --> A'             
     e( 11 - 11) =      4.16045  eV     1   --> A'             
     e( 12 - 12) =      5.06398  eV     1   --> A'             
     e( 13 - 13) =      5.27975  eV     1   --> A'             
     e( 14 - 14) =      6.82427  eV     1   --> A'             
     e( 15 - 15) =      7.81108  eV     1   --> A'             
     e( 16 - 16) =      8.81168  eV     1   --> A'             
     e( 17 - 17) =      8.89034  eV     1   --> A'             
     e( 18 - 18) =      9.26912  eV     1   --> A'             
     e( 19 - 19) =      9.61180  eV     1   --> A'             
     e( 20 - 20) =     10.68033  eV     1   --> A''            

 **************************************************************************

 **************************************************************************

                    xk=(   0.00000,   0.12830,   0.00000  )

     Band symmetry, C_s (m)     point group:

     e(  1 -  1) =    -19.88598  eV     1   --> A'             
     e(  2 -  2) =    -19.78917  eV     1   --> A'             
     e(  3 -  3) =     -7.79540  eV     1   --> A'             
     e(  4 -  4) =     -6.97402  eV     1   --> A'             
     e(  5 -  5) =     -4.82661  eV     1   --> A'             
     e(  6 -  6) =     -4.80053  eV     1   --> A'             
     e(  7 -  7) =     -4.30796  eV     1   --> A''            
     e(  8 -  8) =     -4.29613  eV     1   --> A''            
     e(  9 -  9) =      2.36882  eV     1   --> A'             
     e( 10 - 10) =      2.90291  eV     1   --> A'             
     e( 11 - 11) =      3.94342  eV     1   --> A'             
     e( 12 - 12) =      4.89474  eV     1   --> A'             
     e( 13 - 13) =      5.06817  eV     1   --> A'             
     e( 14 - 14) =      6.70311  eV     1   --> A'             
     e( 15 - 15) =      7.65050  eV     1   --> A'             
     e( 16 - 16) =      8.91290  eV     1   --> A'             
     e( 17 - 17) =      8.98513  eV     1   --> A'             
     e( 18 - 18) =      9.25831  eV     1   --> A'             
     e( 19 - 19) =      9.87778  eV     1   --> A'             
     e( 20 - 20) =     10.14720  eV     1   --> A''            

 **************************************************************************

 **************************************************************************

                    xk=(   0.00000,   0.09623,   0.00000  )

     Band symmetry, C_s (m)     point group:

     e(  1 -  1) =    -19.98867  eV     1   --> A'             
     e(  2 -  2) =    -19.89068  eV     1   --> A'             
     e(  3 -  3) =     -7.93632  eV     1   --> A'             
     e(  4 -  4) =     -7.10847  eV     1   --> A'             
     e(  5 -  5) =     -4.42879  eV     1   --> A'             
     e(  6 -  6) =     -4.40932  eV     1   --> A'             
     e(  7 -  7) =     -4.12788  eV     1   --> A''            
     e(  8 -  8) =     -4.11722  eV     1   --> A''            
     e(  9 -  9) =      2.19361  eV     1   --> A'             
     e( 10 - 10) =      2.73881  eV     1   --> A'             
     e( 11 - 11) =      3.77302  eV     1   --> A'             
     e( 12 - 12) =      4.75331  eV     1   --> A'             
     e( 13 - 13) =      4.90162  eV     1   --> A'             
     e( 14 - 14) =      6.59631  eV     1   --> A'             
     e( 15 - 15) =      7.50621  eV     1   --> A'             
     e( 16 - 16) =      8.99686  eV     1   --> A'             
     e( 17 - 17) =      9.05623  eV     1   --> A'             
     e( 18 - 18) =      9.23543  eV     1   --> A'             
     e( 19 - 19) =      9.71436  eV     1   --> A''            
     e( 20 - 20) =      9.76521  eV     1   --> A''            

 **************************************************************************

 **************************************************************************

                    xk=(   0.00000,   0.06415,   0.00000  )

     Band symmetry, C_s (m)     point group:

     e(  1 -  1) =    -20.06254  eV     1   --> A'             
     e(  2 -  2) =    -19.96361  eV     1   --> A'             
     e(  3 -  3) =     -8.03737  eV     1   --> A'             
     e(  4 -  4) =     -7.20511  eV     1   --> A'             
     e(  5 -  5) =     -4.12748  eV     1   --> A'             
     e(  6 -  6) =     -4.11288  eV     1   --> A'             
     e(  7 -  7) =     -3.98966  eV     1   --> A''            
     e(  8 -  8) =     -3.97978  eV     1   --> A''            
     e(  9 -  9) =      2.06564  eV     1   --> A'             
     e( 10 - 10) =      2.62038  eV     1   --> A'             
     e( 11 - 11) =      3.65038  eV     1   --> A'             
     e( 12 - 12) =      4.64735  eV     1   --> A'             
     e( 13 - 13) =      4.78158  eV     1   --> A'             
     e( 14 - 14) =      6.51444  eV     1   --> A'             
     e( 15 - 15) =      7.39401  eV     1   --> A'             
     e( 16 - 16) =      9.06384  eV     1   --> A'             
     e( 17 - 17) =      9.10712  eV     1   --> A'             
     e( 18 - 18) =      9.20958  eV     1   --> A'             
     e( 19 - 19) =      9.39411  eV     1   --> A''            
     e( 20 - 20) =      9.44487  eV     1   --> A''            

 **************************************************************************

 **************************************************************************

                    xk=(   0.00000,   0.03208,   0.00000  )

     Band symmetry, C_s (m)     point group:

     e(  1 -  1) =    -20.10698  eV     1   --> A'             
     e(  2 -  2) =    -20.00747  eV     1   --> A'             
     e(  3 -  3) =     -8.09803  eV     1   --> A'             
     e(  4 -  4) =     -7.26314  eV     1   --> A'             
     e(  5 -  5) =     -3.93782  eV     1   --> A'             
     e(  6 -  6) =     -3.92695  eV     1   --> A'             
     e(  7 -  7) =     -3.90235  eV     1   --> A''            
     e(  8 -  8) =     -3.89267  eV     1   --> A''            
     e(  9 -  9) =      1.98740  eV     1   --> A'             
     e( 10 - 10) =      2.54883  eV     1   --> A'             
     e( 11 - 11) =      3.57640  eV     1   --> A'             
     e( 12 - 12) =      4.58190  eV     1   --> A'             
     e( 13 - 13) =      4.70912  eV     1   --> A'             
     e( 14 - 14) =      6.46340  eV     1   --> A'             
     e( 15 - 15) =      7.32324  eV     1   --> A'             
     e( 16 - 16) =      9.11255  eV     1   --> A'             
     e( 17 - 17) =      9.13342  eV     1   --> A'             
     e( 18 - 18) =      9.19044  eV     1   --> A'             
     e( 19 - 19) =      9.19722  eV     1   --> A''            
     e( 20 - 20) =      9.24809  eV     1   --> A''            

 **************************************************************************

 **************************************************************************

                    xk=(   0.00000,   0.00000,   0.00000  )

     point group C_3v (3m)  
     there are  3 classes
     the character table:

       E     2C3   3s_v 
A_1    1.00  1.00  1.00
A_2    1.00  1.00 -1.00
E      2.00 -1.00  0.00

     the symmetry operations in each class and the name of the first element:

     E        1
                                                                 
     2C3      2    3
                                                                 
     3s_v     4    5    6
                                                                 

     Band symmetry, C_3v (3m)   point group:

     e(  1 -  1) =    -20.12173  eV     1   --> A_1  L_1       
     e(  2 -  2) =    -20.02220  eV     1   --> A_1  L_1       
     e(  3 -  3) =     -8.11872  eV     1   --> A_1  L_1       
     e(  4 -  4) =     -7.28256  eV     1   --> A_1  L_1       
     e(  5 -  6) =     -3.87237  eV     2   --> E    L_3       
     e(  7 -  8) =     -3.86300  eV     2   --> E    L_3       
     e(  9 -  9) =      1.96106  eV     1   --> A_1  L_1       
     e( 10 - 10) =      2.52489  eV     1   --> A_1  L_1       
     e( 11 - 11) =      3.55165  eV     1   --> A_1  L_1       
     e( 12 - 12) =      4.55954  eV     1   --> A_1  L_1       
     e( 13 - 13) =      4.68489  eV     1   --> A_1  L_1       
     e( 14 - 14) =      6.44577  eV     1   --> A_1  L_1       
     e( 15 - 15) =      7.29905  eV     1   --> A_1  L_1       
     e( 16 - 17) =      9.12989  eV     2   --> E    L_3       
     e( 18 - 18) =      9.14268  eV     1   --> A_1  L_1       
     e( 19 - 20) =      9.18158  eV     2   --> E    L_3       

 **************************************************************************

     BANDS        :     10.69s CPU     10.88s WALL


   This run was terminated on:  19:54:39  17Apr2024            

=------------------------------------------------------------------------------=
   JOB DONE.
=------------------------------------------------------------------------------=
