
     Program BANDS v.7.2 starts on 12Apr2024 at 17:44:51 

     This program is part of the open-source Quantum ESPRESSO suite
     for quantum simulation of materials; please cite
         "P. Giannozzi et al., J. Phys.:Condens. Matter 21 395502 (2009);
         "P. Giannozzi et al., J. Phys.:Condens. Matter 29 465901 (2017);
         "P. Giannozzi et al., J. Chem. Phys. 152 154105 (2020);
          URL http://www.quantum-espresso.org", 
     in publications or presentations arising from this work. More details at
     http://www.quantum-espresso.org/quote

     Parallel version (MPI & OpenMP), running on       8 processor cores
     Number of MPI processes:                 8
     Threads/MPI process:                     1

     MPI processes distributed on     1 nodes
     R & G space division:  proc/nbgrp/npool/nimage =       8
     0 MiB available memory on the printing compute node when the environment starts


     Reading xml data from directory:

     ./tmp/BN2L_A1B_PBE_vdW.save/

     IMPORTANT: XC functional enforced from input :
     Exchange-correlation= VDW-DF2-B86R
                           (   1   4  26   0   2   0   0)
     Any further DFT definition will be discarded
     Please, verify this is what you really want


     Parallelization info
     --------------------
     sticks:   dense  smooth     PW     G-vecs:    dense   smooth      PW
     Min          45      45     15                 5775     5775    1005
     Max          46      46     16                 5804     5804    1022
     Sum         367     367    121                46381    46381    8133

     Using Slab Decomposition



     %%%%%%%%%%%%%%%%%%%%%%%%%%%%%%%%%%%%%%%%%%%%%%%%%%%%%%%%%%%%%%%%%%%%%%%%
     %                                                                      %
     % You are using vdW-DF, which was implemented by the Thonhauser group. %
     % Please cite the following two papers that made this development      %
     % possible and the two reviews that describe the various versions:     %
     %                                                                      %
     %   T. Thonhauser et al., PRL 115, 136402 (2015).                      %
     %   T. Thonhauser et al., PRB 76, 125112 (2007).                       %
     %   K. Berland et al., Rep. Prog. Phys. 78, 066501 (2015).             %
     %   D.C. Langreth et al., J. Phys.: Condens. Matter 21, 084203 (2009). %
     %                                                                      %
     % If you are calculating stress with vdW-DF, please also cite:         %
     %                                                                      %
     %   R. Sabatini et al., J. Phys.: Condens. Matter 24, 424209 (2012).   %
     %                                                                      %
     %%%%%%%%%%%%%%%%%%%%%%%%%%%%%%%%%%%%%%%%%%%%%%%%%%%%%%%%%%%%%%%%%%%%%%%%

     %%%%%%%%%%%%%%%%%%%%%%%%%%%%%%%%%%%%%%%%%%%%%%%%%%%%%%%%%%%%%%%%%%%%%%%%
     %                                                                      %
     %  vdW-DF NEWS:                                                        %
     %                                                                      %
     %  * vdW-DF3 is now available. DOI: 10.1021/acs.jctc.0c00471           %
     %    use with input_dft = 'vdW-DF3-opt1' or 'vdW-DF3-opt2'             %
     %                                                                      %
     %  * Unscreened and range-separated hybrid vdW-DF-cx functionals       %
     %    DOI: 10.1063/1.4986522 and 10.1088/1361-648X/ac2ad2               %
     %    use with input_dft = 'vdW-DF-cx0'    and 'vdW-DF-ahcx'            %
     %  * Unscreened and range-separated hybrid vdW-DF2-b86r functionals    %
     %    DOI: 10.1063/1.4986522 and DOI: 10.1103/PhysRevX.12.041003        %
     %    use with input_dft = 'vdW-DF2-br0' and 'vdW-DF2-ahbr'             %
     %                                                                      %
     %%%%%%%%%%%%%%%%%%%%%%%%%%%%%%%%%%%%%%%%%%%%%%%%%%%%%%%%%%%%%%%%%%%%%%%%


     Reading collected, re-writing distributed wavefunctions
     high-symmetry point:  0.0000 0.0000 0.0000   x coordinate   0.0000
     high-symmetry point: -0.3333 0.5774 0.0000   x coordinate   0.6667
     high-symmetry point:  0.0000 0.5774 0.0000   x coordinate   1.0000
     high-symmetry point:  0.0000 0.0000 0.0000   x coordinate   1.5773

     Plottable bands (eV) written to file Bande_BN2L_A1B_PBE_vdW.dat.gnu
     Bands written to file Bande_BN2L_A1B_PBE_vdW.dat

 **************************************************************************

                    xk=(   0.00000,   0.00000,   0.00000  )

     point group C_3v (3m)  
     there are  3 classes
     the character table:

       E     2C3   3s_v 
A_1    1.00  1.00  1.00
A_2    1.00  1.00 -1.00
E      2.00 -1.00  0.00

     the symmetry operations in each class and the name of the first element:

     E        1
                                                                 
     2C3      2    3
                                                                 
     3s_v     4    5    6
                                                                 

     Band symmetry, C_3v (3m)   point group:

     e(  1 -  1) =    -20.13246  eV     1   --> A_1  L_1       
     e(  2 -  2) =    -20.03082  eV     1   --> A_1  L_1       
     e(  3 -  3) =     -8.12777  eV     1   --> A_1  L_1       
     e(  4 -  4) =     -7.28414  eV     1   --> A_1  L_1       
     e(  5 -  6) =     -3.84959  eV     2   --> E    L_3       
     e(  7 -  8) =     -3.83947  eV     2   --> E    L_3       
     e(  9 -  9) =      1.97851  eV     1   --> A_1  L_1       
     e( 10 - 10) =      2.53992  eV     1   --> A_1  L_1       
     e( 11 - 11) =      3.57106  eV     1   --> A_1  L_1       
     e( 12 - 12) =      4.59072  eV     1   --> A_1  L_1       
     e( 13 - 13) =      4.70618  eV     1   --> A_1  L_1       
     e( 14 - 14) =      6.47778  eV     1   --> A_1  L_1       
     e( 15 - 15) =      7.33625  eV     1   --> A_1  L_1       
     e( 16 - 17) =      9.18971  eV     2   --> E    L_3       
     e( 18 - 18) =      9.19314  eV     1   --> A_1  L_1       
     e( 19 - 20) =      9.24036  eV     2   --> E    L_3       

 **************************************************************************

 **************************************************************************

                    xk=(  -0.01587,   0.02749,   0.00000  )

     point group C_1 (1)    
     there are  1 classes
     the character table:

       E    
A      1.00

     the symmetry operations in each class and the name of the first element:

     E        1
                                                                 

     Band symmetry, C_1 (1)     point group:

     e(  1 -  1) =    -20.11788  eV     1   --> A              
     e(  2 -  2) =    -20.01657  eV     1   --> A              
     e(  3 -  3) =     -8.10817  eV     1   --> A              
     e(  4 -  4) =     -7.26498  eV     1   --> A              
     e(  5 -  5) =     -3.91314  eV     1   --> A              
     e(  6 -  6) =     -3.90240  eV     1   --> A              
     e(  7 -  7) =     -3.87899  eV     1   --> A              
     e(  8 -  8) =     -3.86902  eV     1   --> A              
     e(  9 -  9) =      2.00436  eV     1   --> A              
     e( 10 - 10) =      2.56345  eV     1   --> A              
     e( 11 - 11) =      3.59535  eV     1   --> A              
     e( 12 - 12) =      4.61237  eV     1   --> A              
     e( 13 - 13) =      4.72998  eV     1   --> A              
     e( 14 - 14) =      6.49458  eV     1   --> A              
     e( 15 - 15) =      7.35990  eV     1   --> A              
     e( 16 - 16) =      9.17554  eV     1   --> A              
     e( 17 - 17) =      9.18219  eV     1   --> A              
     e( 18 - 18) =      9.24592  eV     1   --> A              
     e( 19 - 19) =      9.25605  eV     1   --> A              
     e( 20 - 20) =      9.30493  eV     1   --> A              

 **************************************************************************

 **************************************************************************

                    xk=(  -0.03175,   0.05499,   0.00000  )

     Band symmetry, C_1 (1)     point group:

     e(  1 -  1) =    -20.07420  eV     1   --> A              
     e(  2 -  2) =    -19.97343  eV     1   --> A              
     e(  3 -  3) =     -8.04861  eV     1   --> A              
     e(  4 -  4) =     -7.20796  eV     1   --> A              
     e(  5 -  5) =     -4.09738  eV     1   --> A              
     e(  6 -  6) =     -4.08319  eV     1   --> A              
     e(  7 -  7) =     -3.96699  eV     1   --> A              
     e(  8 -  8) =     -3.95644  eV     1   --> A              
     e(  9 -  9) =      2.08112  eV     1   --> A              
     e( 10 - 10) =      2.63376  eV     1   --> A              
     e( 11 - 11) =      3.66805  eV     1   --> A              
     e( 12 - 12) =      4.67676  eV     1   --> A              
     e( 13 - 13) =      4.80116  eV     1   --> A              
     e( 14 - 14) =      6.54481  eV     1   --> A              
     e( 15 - 15) =      7.42949  eV     1   --> A              
     e( 16 - 16) =      9.14629  eV     1   --> A              
     e( 17 - 17) =      9.15869  eV     1   --> A              
     e( 18 - 18) =      9.25811  eV     1   --> A              
     e( 19 - 19) =      9.44777  eV     1   --> A              
     e( 20 - 20) =      9.48246  eV     1   --> A              

 **************************************************************************

 **************************************************************************

                    xk=(  -0.04762,   0.08248,   0.00000  )

     Band symmetry, C_1 (1)     point group:

     e(  1 -  1) =    -20.00154  eV     1   --> A              
     e(  2 -  2) =    -19.90175  eV     1   --> A              
     e(  3 -  3) =     -7.94947  eV     1   --> A              
     e(  4 -  4) =     -7.11292  eV     1   --> A              
     e(  5 -  5) =     -4.38736  eV     1   --> A              
     e(  6 -  6) =     -4.36785  eV     1   --> A              
     e(  7 -  7) =     -4.10986  eV     1   --> A              
     e(  8 -  8) =     -4.09865  eV     1   --> A              
     e(  9 -  9) =      2.20692  eV     1   --> A              
     e( 10 - 10) =      2.75017  eV     1   --> A              
     e( 11 - 11) =      3.78863  eV     1   --> A              
     e( 12 - 12) =      4.78120  eV     1   --> A              
     e( 13 - 13) =      4.91916  eV     1   --> A              
     e( 14 - 14) =      6.62549  eV     1   --> A              
     e( 15 - 15) =      7.54127  eV     1   --> A              
     e( 16 - 16) =      9.11836  eV     1   --> A              
     e( 17 - 17) =      9.13418  eV     1   --> A              
     e( 18 - 18) =      9.26954  eV     1   --> A              
     e( 19 - 19) =      9.71345  eV     1   --> A              
     e( 20 - 20) =      9.74609  eV     1   --> A              

 **************************************************************************

 **************************************************************************

                    xk=(  -0.06349,   0.10997,   0.00000  )

     Band symmetry, C_1 (1)     point group:

     e(  1 -  1) =    -19.90056  eV     1   --> A              
     e(  2 -  2) =    -19.80192  eV     1   --> A              
     e(  3 -  3) =     -7.81074  eV     1   --> A              
     e(  4 -  4) =     -6.98077  eV     1   --> A              
     e(  5 -  5) =     -4.76353  eV     1   --> A              
     e(  6 -  6) =     -4.73786  eV     1   --> A              
     e(  7 -  7) =     -4.30539  eV     1   --> A              
     e(  8 -  8) =     -4.29269  eV     1   --> A              
     e(  9 -  9) =      2.37959  eV     1   --> A              
     e( 10 - 10) =      2.91166  eV     1   --> A              
     e( 11 - 11) =      3.95640  eV     1   --> A              
     e( 12 - 12) =      4.92157  eV     1   --> A              
     e( 13 - 13) =      5.08312  eV     1   --> A              
     e( 14 - 14) =      6.73130  eV     1   --> A              
     e( 15 - 15) =      7.68975  eV     1   --> A              
     e( 16 - 16) =      9.10923  eV     1   --> A              
     e( 17 - 17) =      9.11936  eV     1   --> A              
     e( 18 - 18) =      9.27394  eV     1   --> A              
     e( 19 - 19) =      9.81410  eV     1   --> A              
     e( 20 - 20) =     10.11956  eV     1   --> A              

 **************************************************************************

 **************************************************************************

                    xk=(  -0.07936,   0.13746,   0.00000  )

     Band symmetry, C_1 (1)     point group:

     e(  1 -  1) =    -19.77176  eV     1   --> A              
     e(  2 -  2) =    -19.67458  eV     1   --> A              
     e(  3 -  3) =     -7.63370  eV     1   --> A              
     e(  4 -  4) =     -6.81216  eV     1   --> A              
     e(  5 -  5) =     -5.20356  eV     1   --> A              
     e(  6 -  6) =     -5.17158  eV     1   --> A              
     e(  7 -  7) =     -4.54672  eV     1   --> A              
     e(  8 -  8) =     -4.53265  eV     1   --> A              
     e(  9 -  9) =      2.59759  eV     1   --> A              
     e( 10 - 10) =      3.11712  eV     1   --> A              
     e( 11 - 11) =      4.17051  eV     1   --> A              
     e( 12 - 12) =      5.09114  eV     1   --> A              
     e( 13 - 13) =      5.29195  eV     1   --> A              
     e( 14 - 14) =      6.85255  eV     1   --> A              
     e( 15 - 15) =      7.86568  eV     1   --> A              
     e( 16 - 16) =      9.11328  eV     1   --> A              
     e( 17 - 17) =      9.12748  eV     1   --> A              
     e( 18 - 18) =      9.27493  eV     1   --> A              
     e( 19 - 19) =      9.58563  eV     1   --> A              
     e( 20 - 20) =     10.29364  eV     1   --> A              

 **************************************************************************

 **************************************************************************

                    xk=(  -0.09524,   0.16496,   0.00000  )

     Band symmetry, C_1 (1)     point group:

     e(  1 -  1) =    -19.61602  eV     1   --> A              
     e(  2 -  2) =    -19.52079  eV     1   --> A              
     e(  3 -  3) =     -7.41940  eV     1   --> A              
     e(  4 -  4) =     -6.60878  eV     1   --> A              
     e(  5 -  5) =     -5.68707  eV     1   --> A              
     e(  6 -  6) =     -5.64925  eV     1   --> A              
     e(  7 -  7) =     -4.82905  eV     1   --> A              
     e(  8 -  8) =     -4.81321  eV     1   --> A              
     e(  9 -  9) =      2.85994  eV     1   --> A              
     e( 10 - 10) =      3.36509  eV     1   --> A              
     e( 11 - 11) =      4.42969  eV     1   --> A              
     e( 12 - 12) =      5.27889  eV     1   --> A              
     e( 13 - 13) =      5.54392  eV     1   --> A              
     e( 14 - 14) =      6.97429  eV     1   --> A              
     e( 15 - 15) =      8.04313  eV     1   --> A              
     e( 16 - 16) =      9.09853  eV     1   --> A              
     e( 17 - 17) =      9.15579  eV     1   --> A              
     e( 18 - 18) =      9.28808  eV     1   --> A              
     e( 19 - 19) =      9.30380  eV     1   --> A              
     e( 20 - 20) =     10.49892  eV     1   --> A              

 **************************************************************************

 **************************************************************************

                    xk=(  -0.11111,   0.19245,   0.00000  )

     Band symmetry, C_1 (1)     point group:

     e(  1 -  1) =    -19.43441  eV     1   --> A              
     e(  2 -  2) =    -19.34130  eV     1   --> A              
     e(  3 -  3) =     -7.16955  eV     1   --> A              
     e(  4 -  4) =     -6.38003  eV     1   --> A              
     e(  5 -  5) =     -6.19612  eV     1   --> A              
     e(  6 -  6) =     -6.14489  eV     1   --> A              
     e(  7 -  7) =     -5.14431  eV     1   --> A              
     e(  8 -  8) =     -5.12634  eV     1   --> A              
     e(  9 -  9) =      3.16623  eV     1   --> A              
     e( 10 - 10) =      3.65343  eV     1   --> A              
     e( 11 - 11) =      4.73107  eV     1   --> A              
     e( 12 - 12) =      5.46459  eV     1   --> A              
     e( 13 - 13) =      5.83561  eV     1   --> A              
     e( 14 - 14) =      7.07992  eV     1   --> A              
     e( 15 - 15) =      8.12316  eV     1   --> A              
     e( 16 - 16) =      8.99220  eV     1   --> A              
     e( 17 - 17) =      9.08325  eV     1   --> A              
     e( 18 - 18) =      9.30266  eV     1   --> A              
     e( 19 - 19) =      9.38945  eV     1   --> A              
     e( 20 - 20) =     10.72072  eV     1   --> A              

 **************************************************************************

 **************************************************************************

                    xk=(  -0.12698,   0.21994,   0.00000  )

     Band symmetry, C_1 (1)     point group:

     e(  1 -  1) =    -19.22840  eV     1   --> A              
     e(  2 -  2) =    -19.13789  eV     1   --> A              
     e(  3 -  3) =     -6.90061  eV     1   --> A              
     e(  4 -  4) =     -6.70210  eV     1   --> A              
     e(  5 -  5) =     -6.68207  eV     1   --> A              
     e(  6 -  6) =     -6.09060  eV     1   --> A              
     e(  7 -  7) =     -5.48647  eV     1   --> A              
     e(  8 -  8) =     -5.46597  eV     1   --> A              
     e(  9 -  9) =      3.51616  eV     1   --> A              
     e( 10 - 10) =      3.97806  eV     1   --> A              
     e( 11 - 11) =      5.06371  eV     1   --> A              
     e( 12 - 12) =      5.61359  eV     1   --> A              
     e( 13 - 13) =      6.15750  eV     1   --> A              
     e( 14 - 14) =      7.16940  eV     1   --> A              
     e( 15 - 15) =      7.92633  eV     1   --> A              
     e( 16 - 16) =      9.04099  eV     1   --> A              
     e( 17 - 17) =      9.12295  eV     1   --> A              
     e( 18 - 18) =      9.43680  eV     1   --> A              
     e( 19 - 19) =      9.52993  eV     1   --> A              
     e( 20 - 20) =     10.95794  eV     1   --> A              

 **************************************************************************

 **************************************************************************

                    xk=(  -0.14286,   0.24744,   0.00000  )

     Band symmetry, C_1 (1)     point group:

     e(  1 -  1) =    -19.00019  eV     1   --> A              
     e(  2 -  2) =    -18.91264  eV     1   --> A              
     e(  3 -  3) =     -7.25373  eV     1   --> A              
     e(  4 -  4) =     -7.19983  eV     1   --> A              
     e(  5 -  5) =     -6.55416  eV     1   --> A              
     e(  6 -  6) =     -5.85207  eV     1   --> A              
     e(  7 -  7) =     -5.82519  eV     1   --> A              
     e(  8 -  8) =     -5.78892  eV     1   --> A              
     e(  9 -  9) =      3.90931  eV     1   --> A              
     e( 10 - 10) =      4.32993  eV     1   --> A              
     e( 11 - 11) =      5.35132  eV     1   --> A              
     e( 12 - 12) =      5.73118  eV     1   --> A              
     e( 13 - 13) =      6.47199  eV     1   --> A              
     e( 14 - 14) =      7.28987  eV     1   --> A              
     e( 15 - 15) =      7.58277  eV     1   --> A              
     e( 16 - 16) =      9.26358  eV     1   --> A              
     e( 17 - 17) =      9.30631  eV     1   --> A              
     e( 18 - 18) =      9.61290  eV     1   --> A              
     e( 19 - 19) =      9.71971  eV     1   --> A              
     e( 20 - 20) =     11.21196  eV     1   --> A              

 **************************************************************************

 **************************************************************************

                    xk=(  -0.15873,   0.27493,   0.00000  )

     Band symmetry, C_1 (1)     point group:

     e(  1 -  1) =    -18.75195  eV     1   --> A              
     e(  2 -  2) =    -18.66758  eV     1   --> A              
     e(  3 -  3) =     -7.76525  eV     1   --> A              
     e(  4 -  4) =     -7.70938  eV     1   --> A              
     e(  5 -  5) =     -6.22385  eV     1   --> A              
     e(  6 -  6) =     -6.21818  eV     1   --> A              
     e(  7 -  7) =     -6.18550  eV     1   --> A              
     e(  8 -  8) =     -5.46373  eV     1   --> A              
     e(  9 -  9) =      4.34518  eV     1   --> A              
     e( 10 - 10) =      4.68565  eV     1   --> A              
     e( 11 - 11) =      5.32057  eV     1   --> A              
     e( 12 - 12) =      6.04392  eV     1   --> A              
     e( 13 - 13) =      6.60070  eV     1   --> A              
     e( 14 - 14) =      7.43634  eV     1   --> A              
     e( 15 - 15) =      7.50567  eV     1   --> A              
     e( 16 - 16) =      9.51002  eV     1   --> A              
     e( 17 - 17) =      9.65957  eV     1   --> A              
     e( 18 - 18) =      9.82274  eV     1   --> A              
     e( 19 - 19) =      9.95554  eV     1   --> A              
     e( 20 - 20) =     11.48616  eV     1   --> A              

 **************************************************************************

 **************************************************************************

                    xk=(  -0.17460,   0.30242,   0.00000  )

     Band symmetry, C_1 (1)     point group:

     e(  1 -  1) =    -18.48717  eV     1   --> A              
     e(  2 -  2) =    -18.40626  eV     1   --> A              
     e(  3 -  3) =     -8.26051  eV     1   --> A              
     e(  4 -  4) =     -8.20164  eV     1   --> A              
     e(  5 -  5) =     -6.60581  eV     1   --> A              
     e(  6 -  6) =     -6.57605  eV     1   --> A              
     e(  7 -  7) =     -5.82998  eV     1   --> A              
     e(  8 -  8) =     -5.11190  eV     1   --> A              
     e(  9 -  9) =      4.81843  eV     1   --> A              
     e( 10 - 10) =      4.96877  eV     1   --> A              
     e( 11 - 11) =      5.04096  eV     1   --> A              
     e( 12 - 12) =      6.43108  eV     1   --> A              
     e( 13 - 13) =      6.50981  eV     1   --> A              
     e( 14 - 14) =      7.72273  eV     1   --> A              
     e( 15 - 15) =      7.82745  eV     1   --> A              
     e( 16 - 16) =      9.84071  eV     1   --> A              
     e( 17 - 17) =     10.05180  eV     1   --> A              
     e( 18 - 18) =     10.06421  eV     1   --> A              
     e( 19 - 19) =     10.23350  eV     1   --> A              
     e( 20 - 20) =     11.78389  eV     1   --> A              

 **************************************************************************

 **************************************************************************

                    xk=(  -0.19047,   0.32992,   0.00000  )

     Band symmetry, C_1 (1)     point group:

     e(  1 -  1) =    -18.20988  eV     1   --> A              
     e(  2 -  2) =    -18.13294  eV     1   --> A              
     e(  3 -  3) =     -8.72856  eV     1   --> A              
     e(  4 -  4) =     -8.66679  eV     1   --> A              
     e(  5 -  5) =     -6.98917  eV     1   --> A              
     e(  6 -  6) =     -6.95580  eV     1   --> A              
     e(  7 -  7) =     -5.43099  eV     1   --> A              
     e(  8 -  8) =     -4.74141  eV     1   --> A              
     e(  9 -  9) =      4.63810  eV     1   --> A              
     e( 10 - 10) =      4.98648  eV     1   --> A              
     e( 11 - 11) =      5.34885  eV     1   --> A              
     e( 12 - 12) =      6.42147  eV     1   --> A              
     e( 13 - 13) =      7.04060  eV     1   --> A              
     e( 14 - 14) =      8.19415  eV     1   --> A              
     e( 15 - 15) =      8.22893  eV     1   --> A              
     e( 16 - 16) =     10.22759  eV     1   --> A              
     e( 17 - 17) =     10.29884  eV     1   --> A              
     e( 18 - 18) =     10.49441  eV     1   --> A              
     e( 19 - 19) =     10.55197  eV     1   --> A              
     e( 20 - 20) =     12.10826  eV     1   --> A              

 **************************************************************************

 **************************************************************************

                    xk=(  -0.20635,   0.35741,   0.00000  )

     Band symmetry, C_1 (1)     point group:

     e(  1 -  1) =    -17.92564  eV     1   --> A              
     e(  2 -  2) =    -17.85286  eV     1   --> A              
     e(  3 -  3) =     -9.16118  eV     1   --> A              
     e(  4 -  4) =     -9.09684  eV     1   --> A              
     e(  5 -  5) =     -7.36914  eV     1   --> A              
     e(  6 -  6) =     -7.33183  eV     1   --> A              
     e(  7 -  7) =     -5.01550  eV     1   --> A              
     e(  8 -  8) =     -4.35873  eV     1   --> A              
     e(  9 -  9) =      4.20026  eV     1   --> A              
     e( 10 - 10) =      4.68630  eV     1   --> A              
     e( 11 - 11) =      5.90875  eV     1   --> A              
     e( 12 - 12) =      6.74497  eV     1   --> A              
     e( 13 - 13) =      7.62030  eV     1   --> A              
     e( 14 - 14) =      8.68202  eV     1   --> A              
     e( 15 - 15) =      8.73674  eV     1   --> A              
     e( 16 - 16) =     10.53702  eV     1   --> A              
     e( 17 - 17) =     10.63580  eV     1   --> A              
     e( 18 - 18) =     10.91486  eV     1   --> A              
     e( 19 - 19) =     10.95238  eV     1   --> A              
     e( 20 - 20) =     12.44732  eV     1   --> A              

 **************************************************************************

 **************************************************************************

                    xk=(  -0.22222,   0.38490,   0.00000  )

     Band symmetry, C_1 (1)     point group:

     e(  1 -  1) =    -17.64129  eV     1   --> A              
     e(  2 -  2) =    -17.57303  eV     1   --> A              
     e(  3 -  3) =     -9.54824  eV     1   --> A              
     e(  4 -  4) =     -9.48175  eV     1   --> A              
     e(  5 -  5) =     -7.74110  eV     1   --> A              
     e(  6 -  6) =     -7.70018  eV     1   --> A              
     e(  7 -  7) =     -4.59149  eV     1   --> A              
     e(  8 -  8) =     -3.97177  eV     1   --> A              
     e(  9 -  9) =      3.75413  eV     1   --> A              
     e( 10 - 10) =      4.26226  eV     1   --> A              
     e( 11 - 11) =      6.50790  eV     1   --> A              
     e( 12 - 12) =      7.23663  eV     1   --> A              
     e( 13 - 13) =      8.24130  eV     1   --> A              
     e( 14 - 14) =      9.16098  eV     1   --> A              
     e( 15 - 15) =      9.31977  eV     1   --> A              
     e( 16 - 16) =     10.75736  eV     1   --> A              
     e( 17 - 17) =     11.02203  eV     1   --> A              
     e( 18 - 18) =     11.32945  eV     1   --> A              
     e( 19 - 19) =     11.42860  eV     1   --> A              
     e( 20 - 20) =     12.68159  eV     1   --> A              

 **************************************************************************

 **************************************************************************

                    xk=(  -0.23809,   0.41239,   0.00000  )

     Band symmetry, C_1 (1)     point group:

     e(  1 -  1) =    -17.36576  eV     1   --> A              
     e(  2 -  2) =    -17.30218  eV     1   --> A              
     e(  3 -  3) =     -9.88086  eV     1   --> A              
     e(  4 -  4) =     -9.81223  eV     1   --> A              
     e(  5 -  5) =     -8.10156  eV     1   --> A              
     e(  6 -  6) =     -8.05717  eV     1   --> A              
     e(  7 -  7) =     -4.16996  eV     1   --> A              
     e(  8 -  8) =     -3.59110  eV     1   --> A              
     e(  9 -  9) =      3.32630  eV     1   --> A              
     e( 10 - 10) =      3.82091  eV     1   --> A              
     e( 11 - 11) =      7.14189  eV     1   --> A              
     e( 12 - 12) =      7.79419  eV     1   --> A              
     e( 13 - 13) =      8.88935  eV     1   --> A              
     e( 14 - 14) =      9.63617  eV     1   --> A              
     e( 15 - 15) =      9.91296  eV     1   --> A              
     e( 16 - 16) =     10.96447  eV     1   --> A              
     e( 17 - 17) =     11.36742  eV     1   --> A              
     e( 18 - 18) =     11.77340  eV     1   --> A              
     e( 19 - 19) =     11.91044  eV     1   --> A              
     e( 20 - 20) =     12.51352  eV     1   --> A              

 **************************************************************************

 **************************************************************************

                    xk=(  -0.25397,   0.43989,   0.00000  )

     Band symmetry, C_1 (1)     point group:

     e(  1 -  1) =    -17.10938  eV     1   --> A              
     e(  2 -  2) =    -17.05038  eV     1   --> A              
     e(  3 -  3) =    -10.14775  eV     1   --> A              
     e(  4 -  4) =    -10.07738  eV     1   --> A              
     e(  5 -  5) =     -8.44597  eV     1   --> A              
     e(  6 -  6) =     -8.39879  eV     1   --> A              
     e(  7 -  7) =     -3.76476  eV     1   --> A              
     e(  8 -  8) =     -3.23065  eV     1   --> A              
     e(  9 -  9) =      2.93912  eV     1   --> A              
     e( 10 - 10) =      3.40401  eV     1   --> A              
     e( 11 - 11) =      7.80454  eV     1   --> A              
     e( 12 - 12) =      8.36436  eV     1   --> A              
     e( 13 - 13) =      9.50845  eV     1   --> A              
     e( 14 - 14) =     10.09446  eV     1   --> A              
     e( 15 - 15) =     10.43928  eV     1   --> A              
     e( 16 - 16) =     11.21763  eV     1   --> A              
     e( 17 - 17) =     11.69967  eV     1   --> A              
     e( 18 - 18) =     12.13671  eV     1   --> A              
     e( 19 - 19) =     12.18861  eV     1   --> A              
     e( 20 - 20) =     12.48385  eV     1   --> A              

 **************************************************************************

 **************************************************************************

                    xk=(  -0.26984,   0.46738,   0.00000  )

     Band symmetry, C_1 (1)     point group:

     e(  1 -  1) =    -16.88410  eV     1   --> A              
     e(  2 -  2) =    -16.82931  eV     1   --> A              
     e(  3 -  3) =    -10.33774  eV     1   --> A              
     e(  4 -  4) =    -10.26773  eV     1   --> A              
     e(  5 -  5) =     -8.77111  eV     1   --> A              
     e(  6 -  6) =     -8.72158  eV     1   --> A              
     e(  7 -  7) =     -3.39551  eV     1   --> A              
     e(  8 -  8) =     -2.90649  eV     1   --> A              
     e(  9 -  9) =      2.61341  eV     1   --> A              
     e( 10 - 10) =      3.03387  eV     1   --> A              
     e( 11 - 11) =      8.48197  eV     1   --> A              
     e( 12 - 12) =      8.88227  eV     1   --> A              
     e( 13 - 13) =      9.90533  eV     1   --> A              
     e( 14 - 14) =     10.65533  eV     1   --> A              
     e( 15 - 15) =     10.79249  eV     1   --> A              
     e( 16 - 16) =     11.53473  eV     1   --> A              
     e( 17 - 17) =     12.07446  eV     1   --> A              
     e( 18 - 18) =     12.08273  eV     1   --> A              
     e( 19 - 19) =     12.51767  eV     1   --> A              
     e( 20 - 20) =     12.95153  eV     1   --> A              

 **************************************************************************

 **************************************************************************

                    xk=(  -0.28571,   0.49487,   0.00000  )

     Band symmetry, C_1 (1)     point group:

     e(  1 -  1) =    -16.70133  eV     1   --> A              
     e(  2 -  2) =    -16.65015  eV     1   --> A              
     e(  3 -  3) =    -10.44323  eV     1   --> A              
     e(  4 -  4) =    -10.37512  eV     1   --> A              
     e(  5 -  5) =     -9.07110  eV     1   --> A              
     e(  6 -  6) =     -9.02061  eV     1   --> A              
     e(  7 -  7) =     -3.08407  eV     1   --> A              
     e(  8 -  8) =     -2.63581  eV     1   --> A              
     e(  9 -  9) =      2.36853  eV     1   --> A              
     e( 10 - 10) =      2.72519  eV     1   --> A              
     e( 11 - 11) =      9.13192  eV     1   --> A              
     e( 12 - 12) =      9.25165  eV     1   --> A              
     e( 13 - 13) =     10.03094  eV     1   --> A              
     e( 14 - 14) =     11.09393  eV     1   --> A              
     e( 15 - 15) =     11.38802  eV     1   --> A              
     e( 16 - 16) =     11.55998  eV     1   --> A              
     e( 17 - 17) =     12.52590  eV     1   --> A              
     e( 18 - 18) =     12.55539  eV     1   --> A              
     e( 19 - 19) =     12.72832  eV     1   --> A              
     e( 20 - 20) =     13.36447  eV     1   --> A              

 **************************************************************************

 **************************************************************************

                    xk=(  -0.30158,   0.52237,   0.00000  )

     Band symmetry, C_1 (1)     point group:

     e(  1 -  1) =    -16.57005  eV     1   --> A              
     e(  2 -  2) =    -16.52181  eV     1   --> A              
     e(  3 -  3) =    -10.46250  eV     1   --> A              
     e(  4 -  4) =    -10.40185  eV     1   --> A              
     e(  5 -  5) =     -9.33597  eV     1   --> A              
     e(  6 -  6) =     -9.28844  eV     1   --> A              
     e(  7 -  7) =     -2.85276  eV     1   --> A              
     e(  8 -  8) =     -2.43584  eV     1   --> A              
     e(  9 -  9) =      2.22025  eV     1   --> A              
     e( 10 - 10) =      2.48716  eV     1   --> A              
     e( 11 - 11) =      9.42622  eV     1   --> A              
     e( 12 - 12) =      9.56075  eV     1   --> A              
     e( 13 - 13) =     10.21617  eV     1   --> A              
     e( 14 - 14) =     11.28685  eV     1   --> A              
     e( 15 - 15) =     11.72952  eV     1   --> A              
     e( 16 - 16) =     12.17155  eV     1   --> A              
     e( 17 - 17) =     12.72044  eV     1   --> A              
     e( 18 - 18) =     12.95135  eV     1   --> A              
     e( 19 - 19) =     13.22004  eV     1   --> A              
     e( 20 - 20) =     13.60050  eV     1   --> A              

 **************************************************************************

 **************************************************************************

                    xk=(  -0.31746,   0.54986,   0.00000  )

     Band symmetry, C_1 (1)     point group:

     e(  1 -  1) =    -16.49388  eV     1   --> A              
     e(  2 -  2) =    -16.44724  eV     1   --> A              
     e(  3 -  3) =    -10.41273  eV     1   --> A              
     e(  4 -  4) =    -10.37085  eV     1   --> A              
     e(  5 -  5) =     -9.53936  eV     1   --> A              
     e(  6 -  6) =     -9.50478  eV     1   --> A              
     e(  7 -  7) =     -2.71562  eV     1   --> A              
     e(  8 -  8) =     -2.31686  eV     1   --> A              
     e(  9 -  9) =      2.17360  eV     1   --> A              
     e( 10 - 10) =      2.32083  eV     1   --> A              
     e( 11 - 11) =      9.48840  eV     1   --> A              
     e( 12 - 12) =      9.59493  eV     1   --> A              
     e( 13 - 13) =     10.68161  eV     1   --> A              
     e( 14 - 14) =     11.18366  eV     1   --> A              
     e( 15 - 15) =     12.30791  eV     1   --> A              
     e( 16 - 16) =     12.44818  eV     1   --> A              
     e( 17 - 17) =     13.04356  eV     1   --> A              
     e( 18 - 18) =     13.19186  eV     1   --> A              
     e( 19 - 19) =     13.27359  eV     1   --> A              
     e( 20 - 20) =     14.01411  eV     1   --> A              

 **************************************************************************

 **************************************************************************

                    xk=(  -0.33333,   0.57735,   0.00000  )

     point group C_3 (3)    
     there are  3 classes
     the character table:

       E     C3    C3^2 
A      1.00  1.00  1.00
E      1.00 -0.50 -0.50
E*     1.00 -0.50 -0.50
     imaginary part
A      0.00  0.00  0.00
E      0.00  0.87 -0.87
E*     0.00 -0.87  0.87

     the symmetry operations in each class and the name of the first element:

     E        1
                                                                 
     C3       2
                                                                 
     C3^2     3
                                                                 

     Band symmetry, C_3 (3)     point group:

     e(  1 -  1) =    -16.47024  eV     1   --> A              
     e(  2 -  2) =    -16.42421  eV     1   --> A              
     e(  3 -  3) =    -10.35457  eV     1   -->   ?
     e(  4 -  4) =    -10.35442  eV     1   -->   ?
     e(  5 -  5) =     -9.61417  eV     1   -->   ?
     e(  6 -  6) =     -9.61400  eV     1   -->   ?
     e(  7 -  7) =     -2.67297  eV     1   --> A              
     e(  8 -  8) =     -2.27971  eV     1   --> A              
     e(  9 -  9) =      2.21614  eV     1   -->   ?
     e( 10 - 10) =      2.21648  eV     1   -->   ?
     e( 11 - 11) =      9.53440  eV     1   -->   ?
     e( 12 - 12) =      9.53454  eV     1   -->   ?
     e( 13 - 13) =     11.02651  eV     1   -->   ?
     e( 14 - 14) =     11.02672  eV     1   -->   ?
     e( 15 - 15) =     12.36900  eV     1   --> A              
     e( 16 - 16) =     12.81543  eV     1   --> A              
     e( 17 - 17) =     13.01125  eV     1   -->   ?
     e( 18 - 18) =     13.01159  eV     1   -->   ?
     e( 19 - 19) =     13.98562  eV     1   -->   ?
     e( 20 - 20) =     13.98636  eV     1   -->   ?

 **************************************************************************

 **************************************************************************

                    xk=(  -0.30303,   0.57735,   0.00000  )

     point group C_1 (1)    
     there are  1 classes
     the character table:

       E    
A      1.00

     the symmetry operations in each class and the name of the first element:

     E        1
                                                                 

     Band symmetry, C_1 (1)     point group:

     e(  1 -  1) =    -16.48871  eV     1   --> A              
     e(  2 -  2) =    -16.44216  eV     1   --> A              
     e(  3 -  3) =    -10.42800  eV     1   --> A              
     e(  4 -  4) =    -10.38423  eV     1   --> A              
     e(  5 -  5) =     -9.53506  eV     1   --> A              
     e(  6 -  6) =     -9.49849  eV     1   --> A              
     e(  7 -  7) =     -2.70538  eV     1   --> A              
     e(  8 -  8) =     -2.30880  eV     1   --> A              
     e(  9 -  9) =      2.15772  eV     1   --> A              
     e( 10 - 10) =      2.31492  eV     1   --> A              
     e( 11 - 11) =      9.49662  eV     1   --> A              
     e( 12 - 12) =      9.60059  eV     1   --> A              
     e( 13 - 13) =     10.86515  eV     1   --> A              
     e( 14 - 14) =     11.00610  eV     1   --> A              
     e( 15 - 15) =     12.43379  eV     1   --> A              
     e( 16 - 16) =     12.51979  eV     1   --> A              
     e( 17 - 17) =     12.82439  eV     1   --> A              
     e( 18 - 18) =     13.19106  eV     1   --> A              
     e( 19 - 19) =     13.59356  eV     1   --> A              
     e( 20 - 20) =     13.67362  eV     1   --> A              

 **************************************************************************

 **************************************************************************

                    xk=(  -0.27272,   0.57735,   0.00000  )

     Band symmetry, C_1 (1)     point group:

     e(  1 -  1) =    -16.53756  eV     1   --> A              
     e(  2 -  2) =    -16.49001  eV     1   --> A              
     e(  3 -  3) =    -10.56448  eV     1   --> A              
     e(  4 -  4) =    -10.49887  eV     1   --> A              
     e(  5 -  5) =     -9.29031  eV     1   --> A              
     e(  6 -  6) =     -9.24014  eV     1   --> A              
     e(  7 -  7) =     -2.79012  eV     1   --> A              
     e(  8 -  8) =     -2.38597  eV     1   --> A              
     e(  9 -  9) =      2.12048  eV     1   --> A              
     e( 10 - 10) =      2.43864  eV     1   --> A              
     e( 11 - 11) =      9.48861  eV     1   --> A              
     e( 12 - 12) =      9.67422  eV     1   --> A              
     e( 13 - 13) =     10.71522  eV     1   --> A              
     e( 14 - 14) =     10.76187  eV     1   --> A              
     e( 15 - 15) =     12.18815  eV     1   --> A              
     e( 16 - 16) =     12.40104  eV     1   --> A              
     e( 17 - 17) =     12.60152  eV     1   --> A              
     e( 18 - 18) =     12.85440  eV     1   --> A              
     e( 19 - 19) =     13.24022  eV     1   --> A              
     e( 20 - 20) =     13.34882  eV     1   --> A              

 **************************************************************************

 **************************************************************************

                    xk=(  -0.24242,   0.57735,   0.00000  )

     Band symmetry, C_1 (1)     point group:

     e(  1 -  1) =    -16.60632  eV     1   --> A              
     e(  2 -  2) =    -16.55750  eV     1   --> A              
     e(  3 -  3) =    -10.71573  eV     1   --> A              
     e(  4 -  4) =    -10.64057  eV     1   --> A              
     e(  5 -  5) =     -8.95388  eV     1   --> A              
     e(  6 -  6) =     -8.90225  eV     1   --> A              
     e(  7 -  7) =     -2.90644  eV     1   --> A              
     e(  8 -  8) =     -2.49299  eV     1   --> A              
     e(  9 -  9) =      2.08985  eV     1   --> A              
     e( 10 - 10) =      2.56109  eV     1   --> A              
     e( 11 - 11) =      9.46780  eV     1   --> A              
     e( 12 - 12) =      9.69509  eV     1   --> A              
     e( 13 - 13) =     10.47722  eV     1   --> A              
     e( 14 - 14) =     10.60284  eV     1   --> A              
     e( 15 - 15) =     11.90029  eV     1   --> A              
     e( 16 - 16) =     12.09899  eV     1   --> A              
     e( 17 - 17) =     12.31435  eV     1   --> A              
     e( 18 - 18) =     12.44948  eV     1   --> A              
     e( 19 - 19) =     12.90609  eV     1   --> A              
     e( 20 - 20) =     13.02572  eV     1   --> A              

 **************************************************************************

 **************************************************************************

                    xk=(  -0.21212,   0.57735,   0.00000  )

     Band symmetry, C_1 (1)     point group:

     e(  1 -  1) =    -16.68531  eV     1   --> A              
     e(  2 -  2) =    -16.63551  eV     1   --> A              
     e(  3 -  3) =    -10.86121  eV     1   --> A              
     e(  4 -  4) =    -10.78074  eV     1   --> A              
     e(  5 -  5) =     -8.57116  eV     1   --> A              
     e(  6 -  6) =     -8.52303  eV     1   --> A              
     e(  7 -  7) =     -3.03738  eV     1   --> A              
     e(  8 -  8) =     -2.61427  eV     1   --> A              
     e(  9 -  9) =      2.05742  eV     1   --> A              
     e( 10 - 10) =      2.66458  eV     1   --> A              
     e( 11 - 11) =      9.32409  eV     1   --> A              
     e( 12 - 12) =      9.59010  eV     1   --> A              
     e( 13 - 13) =     10.29317  eV     1   --> A              
     e( 14 - 14) =     10.51587  eV     1   --> A              
     e( 15 - 15) =     11.58276  eV     1   --> A              
     e( 16 - 16) =     11.73012  eV     1   --> A              
     e( 17 - 17) =     11.90859  eV     1   --> A              
     e( 18 - 18) =     12.28042  eV     1   --> A              
     e( 19 - 19) =     12.61734  eV     1   --> A              
     e( 20 - 20) =     12.71151  eV     1   --> A              

 **************************************************************************

 **************************************************************************

                    xk=(  -0.18182,   0.57735,   0.00000  )

     Band symmetry, C_1 (1)     point group:

     e(  1 -  1) =    -16.76692  eV     1   --> A              
     e(  2 -  2) =    -16.71583  eV     1   --> A              
     e(  3 -  3) =    -10.99268  eV     1   --> A              
     e(  4 -  4) =    -10.90874  eV     1   --> A              
     e(  5 -  5) =     -8.17077  eV     1   --> A              
     e(  6 -  6) =     -8.12726  eV     1   --> A              
     e(  7 -  7) =     -3.16855  eV     1   --> A              
     e(  8 -  8) =     -2.73755  eV     1   --> A              
     e(  9 -  9) =      2.02055  eV     1   --> A              
     e( 10 - 10) =      2.74132  eV     1   --> A              
     e( 11 - 11) =      8.99344  eV     1   --> A              
     e( 12 - 12) =      9.33933  eV     1   --> A              
     e( 13 - 13) =     10.26143  eV     1   --> A              
     e( 14 - 14) =     10.37725  eV     1   --> A              
     e( 15 - 15) =     11.18639  eV     1   --> A              
     e( 16 - 16) =     11.37455  eV     1   --> A              
     e( 17 - 17) =     11.81329  eV     1   --> A              
     e( 18 - 18) =     12.12491  eV     1   --> A              
     e( 19 - 19) =     12.39483  eV     1   --> A              
     e( 20 - 20) =     12.43097  eV     1   --> A              

 **************************************************************************

 **************************************************************************

                    xk=(  -0.15151,   0.57735,   0.00000  )

     Band symmetry, C_1 (1)     point group:

     e(  1 -  1) =    -16.84487  eV     1   --> A              
     e(  2 -  2) =    -16.79275  eV     1   --> A              
     e(  3 -  3) =    -11.10674  eV     1   --> A              
     e(  4 -  4) =    -11.01953  eV     1   --> A              
     e(  5 -  5) =     -7.77651  eV     1   --> A              
     e(  6 -  6) =     -7.73810  eV     1   --> A              
     e(  7 -  7) =     -3.29120  eV     1   --> A              
     e(  8 -  8) =     -2.85375  eV     1   --> A              
     e(  9 -  9) =      1.98066  eV     1   --> A              
     e( 10 - 10) =      2.79169  eV     1   --> A              
     e( 11 - 11) =      8.56051  eV     1   --> A              
     e( 12 - 12) =      8.96834  eV     1   --> A              
     e( 13 - 13) =     10.18047  eV     1   --> A              
     e( 14 - 14) =     10.28773  eV     1   --> A              
     e( 15 - 15) =     10.88774  eV     1   --> A              
     e( 16 - 16) =     11.06811  eV     1   --> A              
     e( 17 - 17) =     11.79429  eV     1   --> A              
     e( 18 - 18) =     11.99875  eV     1   --> A              
     e( 19 - 19) =     12.20301  eV     1   --> A              
     e( 20 - 20) =     12.27670  eV     1   --> A              

 **************************************************************************

 **************************************************************************

                    xk=(  -0.12121,   0.57735,   0.00000  )

     Band symmetry, C_1 (1)     point group:

     e(  1 -  1) =    -16.91432  eV     1   --> A              
     e(  2 -  2) =    -16.86133  eV     1   --> A              
     e(  3 -  3) =    -11.20114  eV     1   --> A              
     e(  4 -  4) =    -11.11187  eV     1   --> A              
     e(  5 -  5) =     -7.40973  eV     1   --> A              
     e(  6 -  6) =     -7.37645  eV     1   --> A              
     e(  7 -  7) =     -3.39849  eV     1   --> A              
     e(  8 -  8) =     -2.95622  eV     1   --> A              
     e(  9 -  9) =      1.94074  eV     1   --> A              
     e( 10 - 10) =      2.82067  eV     1   --> A              
     e( 11 - 11) =      8.11332  eV     1   --> A              
     e( 12 - 12) =      8.53994  eV     1   --> A              
     e( 13 - 13) =      9.99573  eV     1   --> A              
     e( 14 - 14) =     10.29886  eV     1   --> A              
     e( 15 - 15) =     10.67989  eV     1   --> A              
     e( 16 - 16) =     10.82782  eV     1   --> A              
     e( 17 - 17) =     11.71917  eV     1   --> A              
     e( 18 - 18) =     11.88260  eV     1   --> A              
     e( 19 - 19) =     12.04810  eV     1   --> A              
     e( 20 - 20) =     12.26757  eV     1   --> A              

 **************************************************************************

 **************************************************************************

                    xk=(  -0.09091,   0.57735,   0.00000  )

     Band symmetry, C_1 (1)     point group:

     e(  1 -  1) =    -16.97146  eV     1   --> A              
     e(  2 -  2) =    -16.91778  eV     1   --> A              
     e(  3 -  3) =    -11.27481  eV     1   --> A              
     e(  4 -  4) =    -11.18435  eV     1   --> A              
     e(  5 -  5) =     -7.09228  eV     1   --> A              
     e(  6 -  6) =     -7.06380  eV     1   --> A              
     e(  7 -  7) =     -3.48604  eV     1   --> A              
     e(  8 -  8) =     -3.04025  eV     1   --> A              
     e(  9 -  9) =      1.90506  eV     1   --> A              
     e( 10 - 10) =      2.83475  eV     1   --> A              
     e( 11 - 11) =      7.70917  eV     1   --> A              
     e( 12 - 12) =      8.13111  eV     1   --> A              
     e( 13 - 13) =      9.85441  eV     1   --> A              
     e( 14 - 14) =     10.27745  eV     1   --> A              
     e( 15 - 15) =     10.53025  eV     1   --> A              
     e( 16 - 16) =     10.65810  eV     1   --> A              
     e( 17 - 17) =     11.61779  eV     1   --> A              
     e( 18 - 18) =     11.76321  eV     1   --> A              
     e( 19 - 19) =     11.96767  eV     1   --> A              
     e( 20 - 20) =     12.28736  eV     1   --> A              

 **************************************************************************

 **************************************************************************

                    xk=(  -0.06061,   0.57735,   0.00000  )

     Band symmetry, C_1 (1)     point group:

     e(  1 -  1) =    -17.01403  eV     1   --> A              
     e(  2 -  2) =    -16.95985  eV     1   --> A              
     e(  3 -  3) =    -11.32789  eV     1   --> A              
     e(  4 -  4) =    -11.23658  eV     1   --> A              
     e(  5 -  5) =     -6.84578  eV     1   --> A              
     e(  6 -  6) =     -6.82124  eV     1   --> A              
     e(  7 -  7) =     -3.55043  eV     1   --> A              
     e(  8 -  8) =     -3.10221  eV     1   --> A              
     e(  9 -  9) =      1.87685  eV     1   --> A              
     e( 10 - 10) =      2.83972  eV     1   --> A              
     e( 11 - 11) =      7.38928  eV     1   --> A              
     e( 12 - 12) =      7.80074  eV     1   --> A              
     e( 13 - 13) =      9.75677  eV     1   --> A              
     e( 14 - 14) =     10.23579  eV     1   --> A              
     e( 15 - 15) =     10.42634  eV     1   --> A              
     e( 16 - 16) =     10.55297  eV     1   --> A              
     e( 17 - 17) =     11.53236  eV     1   --> A              
     e( 18 - 18) =     11.66528  eV     1   --> A              
     e( 19 - 19) =     11.92656  eV     1   --> A              
     e( 20 - 20) =     12.29550  eV     1   --> A              

 **************************************************************************

 **************************************************************************

                    xk=(  -0.03030,   0.57735,   0.00000  )

     Band symmetry, C_1 (1)     point group:

     e(  1 -  1) =    -17.04007  eV     1   --> A              
     e(  2 -  2) =    -16.98578  eV     1   --> A              
     e(  3 -  3) =    -11.35977  eV     1   --> A              
     e(  4 -  4) =    -11.26807  eV     1   --> A              
     e(  5 -  5) =     -6.68866  eV     1   --> A              
     e(  6 -  6) =     -6.66704  eV     1   --> A              
     e(  7 -  7) =     -3.58989  eV     1   --> A              
     e(  8 -  8) =     -3.13984  eV     1   --> A              
     e(  9 -  9) =      1.85869  eV     1   --> A              
     e( 10 - 10) =      2.84074  eV     1   --> A              
     e( 11 - 11) =      7.18438  eV     1   --> A              
     e( 12 - 12) =      7.58780  eV     1   --> A              
     e( 13 - 13) =      9.69956  eV     1   --> A              
     e( 14 - 14) =     10.19817  eV     1   --> A              
     e( 15 - 15) =     10.36459  eV     1   --> A              
     e( 16 - 16) =     10.49811  eV     1   --> A              
     e( 17 - 17) =     11.47799  eV     1   --> A              
     e( 18 - 18) =     11.60387  eV     1   --> A              
     e( 19 - 19) =     11.90505  eV     1   --> A              
     e( 20 - 20) =     12.29456  eV     1   --> A              

 **************************************************************************

 **************************************************************************

                    xk=(   0.00000,   0.57735,   0.00000  )

     point group C_s (m)    
     there are  2 classes
     the character table:

       E     s    
A'     1.00  1.00
A''    1.00 -1.00

     the symmetry operations in each class and the name of the first element:

     E        1
                                                                 
     s        2
                                                                 

     Band symmetry, C_s (m)     point group:

     e(  1 -  1) =    -17.04907  eV     1   --> A'             
     e(  2 -  2) =    -16.99471  eV     1   --> A'             
     e(  3 -  3) =    -11.37041  eV     1   --> A'             
     e(  4 -  4) =    -11.27870  eV     1   --> A'             
     e(  5 -  5) =     -6.63532  eV     1   --> A''            
     e(  6 -  6) =     -6.61476  eV     1   --> A''            
     e(  7 -  7) =     -3.60353  eV     1   --> A'             
     e(  8 -  8) =     -3.15309  eV     1   --> A'             
     e(  9 -  9) =      1.85220  eV     1   --> A'             
     e( 10 - 10) =      2.84048  eV     1   --> A'             
     e( 11 - 11) =      7.11383  eV     1   --> A'             
     e( 12 - 12) =      7.51437  eV     1   --> A'             
     e( 13 - 13) =      9.68066  eV     1   --> A'             
     e( 14 - 14) =     10.18349  eV     1   --> A'             
     e( 15 - 15) =     10.34398  eV     1   --> A'             
     e( 16 - 16) =     10.48107  eV     1   --> A'             
     e( 17 - 17) =     11.45946  eV     1   --> A'             
     e( 18 - 18) =     11.58308  eV     1   --> A'             
     e( 19 - 19) =     11.89798  eV     1   --> A'             
     e( 20 - 20) =     12.29298  eV     1   --> A'             

 **************************************************************************

 **************************************************************************

                    xk=(   0.00000,   0.54528,   0.00000  )

     Band symmetry, C_s (m)     point group:

     e(  1 -  1) =    -17.09392  eV     1   --> A'             
     e(  2 -  2) =    -17.03843  eV     1   --> A'             
     e(  3 -  3) =    -11.30114  eV     1   --> A'             
     e(  4 -  4) =    -11.21038  eV     1   --> A'             
     e(  5 -  5) =     -6.61928  eV     1   --> A''            
     e(  6 -  6) =     -6.59874  eV     1   --> A''            
     e(  7 -  7) =     -3.68198  eV     1   --> A'             
     e(  8 -  8) =     -3.21579  eV     1   --> A'             
     e(  9 -  9) =      1.95030  eV     1   --> A'             
     e( 10 - 10) =      2.92506  eV     1   --> A'             
     e( 11 - 11) =      7.06851  eV     1   --> A'             
     e( 12 - 12) =      7.50644  eV     1   --> A'             
     e( 13 - 13) =      9.26096  eV     1   --> A'             
     e( 14 - 14) =      9.64977  eV     1   --> A'             
     e( 15 - 15) =     10.50892  eV     1   --> A'             
     e( 16 - 16) =     10.86829  eV     1   --> A'             
     e( 17 - 17) =     11.09028  eV     1   --> A'             
     e( 18 - 18) =     11.67373  eV     1   --> A'             
     e( 19 - 19) =     11.76821  eV     1   --> A'             
     e( 20 - 20) =     12.31313  eV     1   --> A'             

 **************************************************************************

 **************************************************************************

                    xk=(   0.00000,   0.51320,   0.00000  )

     Band symmetry, C_s (m)     point group:

     e(  1 -  1) =    -17.22166  eV     1   --> A'             
     e(  2 -  2) =    -17.16310  eV     1   --> A'             
     e(  3 -  3) =    -11.09952  eV     1   --> A'             
     e(  4 -  4) =    -11.01144  eV     1   --> A'             
     e(  5 -  5) =     -6.57187  eV     1   --> A''            
     e(  6 -  6) =     -6.55104  eV     1   --> A''            
     e(  7 -  7) =     -3.89946  eV     1   --> A'             
     e(  8 -  8) =     -3.39393  eV     1   --> A'             
     e(  9 -  9) =      2.22666  eV     1   --> A'             
     e( 10 - 10) =      3.16507  eV     1   --> A'             
     e( 11 - 11) =      6.91991  eV     1   --> A'             
     e( 12 - 12) =      7.47213  eV     1   --> A'             
     e( 13 - 13) =      8.72112  eV     1   --> A'             
     e( 14 - 14) =      8.98869  eV     1   --> A'             
     e( 15 - 15) =      9.91067  eV     1   --> A'             
     e( 16 - 16) =     10.71268  eV     1   --> A'             
     e( 17 - 17) =     11.00239  eV     1   --> A'             
     e( 18 - 18) =     11.68442  eV     1   --> A'             
     e( 19 - 19) =     11.98394  eV     1   --> A'             
     e( 20 - 20) =     12.58490  eV     1   --> A'             

 **************************************************************************

 **************************************************************************

                    xk=(   0.00000,   0.48113,   0.00000  )

     Band symmetry, C_s (m)     point group:

     e(  1 -  1) =    -17.41488  eV     1   --> A'             
     e(  2 -  2) =    -17.35210  eV     1   --> A'             
     e(  3 -  3) =    -10.78370  eV     1   --> A'             
     e(  4 -  4) =    -10.69933  eV     1   --> A'             
     e(  5 -  5) =     -6.49331  eV     1   --> A''            
     e(  6 -  6) =     -6.47256  eV     1   --> A''            
     e(  7 -  7) =     -4.21544  eV     1   --> A'             
     e(  8 -  8) =     -3.66125  eV     1   --> A'             
     e(  9 -  9) =      2.63947  eV     1   --> A'             
     e( 10 - 10) =      3.52696  eV     1   --> A'             
     e( 11 - 11) =      6.64282  eV     1   --> A'             
     e( 12 - 12) =      7.36580  eV     1   --> A'             
     e( 13 - 13) =      8.27475  eV     1   --> A'             
     e( 14 - 14) =      8.44597  eV     1   --> A'             
     e( 15 - 15) =      9.21603  eV     1   --> A'             
     e( 16 - 16) =     10.25320  eV     1   --> A'             
     e( 17 - 17) =     10.30794  eV     1   --> A'             
     e( 18 - 18) =     11.82920  eV     1   --> A'             
     e( 19 - 19) =     12.37347  eV     1   --> A'             
     e( 20 - 20) =     12.89555  eV     1   --> A'             

 **************************************************************************

 **************************************************************************

                    xk=(   0.00000,   0.44905,   0.00000  )

     Band symmetry, C_s (m)     point group:

     e(  1 -  1) =    -17.65268  eV     1   --> A'             
     e(  2 -  2) =    -17.58547  eV     1   --> A'             
     e(  3 -  3) =    -10.37544  eV     1   --> A'             
     e(  4 -  4) =    -10.29620  eV     1   --> A'             
     e(  5 -  5) =     -6.38431  eV     1   --> A''            
     e(  6 -  6) =     -6.36407  eV     1   --> A''            
     e(  7 -  7) =     -4.58989  eV     1   --> A'             
     e(  8 -  8) =     -3.98770  eV     1   --> A'             
     e(  9 -  9) =      3.14205  eV     1   --> A'             
     e( 10 - 10) =      3.96678  eV     1   --> A'             
     e( 11 - 11) =      6.24362  eV     1   --> A'             
     e( 12 - 12) =      7.10367  eV     1   --> A'             
     e( 13 - 13) =      7.90767  eV     1   --> A'             
     e( 14 - 14) =      8.11194  eV     1   --> A'             
     e( 15 - 15) =      8.60300  eV     1   --> A'             
     e( 16 - 16) =      9.63450  eV     1   --> A'             
     e( 17 - 17) =      9.80425  eV     1   --> A'             
     e( 18 - 18) =     11.34196  eV     1   --> A'             
     e( 19 - 19) =     12.27610  eV     1   --> A'             
     e( 20 - 20) =     13.08479  eV     1   --> A'             

 **************************************************************************

 **************************************************************************

                    xk=(   0.00000,   0.41698,   0.00000  )

     Band symmetry, C_s (m)     point group:

     e(  1 -  1) =    -17.91648  eV     1   --> A'             
     e(  2 -  2) =    -17.84465  eV     1   --> A'             
     e(  3 -  3) =     -9.89698  eV     1   --> A'             
     e(  4 -  4) =     -9.82264  eV     1   --> A'             
     e(  5 -  5) =     -6.24715  eV     1   --> A''            
     e(  6 -  6) =     -6.22717  eV     1   --> A''            
     e(  7 -  7) =     -4.99123  eV     1   --> A'             
     e(  8 -  8) =     -4.34603  eV     1   --> A'             
     e(  9 -  9) =      3.69040  eV     1   --> A'             
     e( 10 - 10) =      4.42876  eV     1   --> A'             
     e( 11 - 11) =      5.77299  eV     1   --> A'             
     e( 12 - 12) =      6.71665  eV     1   --> A'             
     e( 13 - 13) =      7.51612  eV     1   --> A'             
     e( 14 - 14) =      7.94616  eV     1   --> A'             
     e( 15 - 15) =      8.14740  eV     1   --> A'             
     e( 16 - 16) =      9.05329  eV     1   --> A'             
     e( 17 - 17) =      9.39126  eV     1   --> A'             
     e( 18 - 18) =     10.84915  eV     1   --> A'             
     e( 19 - 19) =     11.70955  eV     1   --> A'             
     e( 20 - 20) =     13.42984  eV     1   --> A'             

 **************************************************************************

 **************************************************************************

                    xk=(   0.00000,   0.38490,   0.00000  )

     Band symmetry, C_s (m)     point group:

     e(  1 -  1) =    -18.19086  eV     1   --> A'             
     e(  2 -  2) =    -18.11470  eV     1   --> A'             
     e(  3 -  3) =     -9.36522  eV     1   --> A'             
     e(  4 -  4) =     -9.29564  eV     1   --> A'             
     e(  5 -  5) =     -6.08291  eV     1   --> A''            
     e(  6 -  6) =     -6.06326  eV     1   --> A''            
     e(  7 -  7) =     -5.39762  eV     1   --> A'             
     e(  8 -  8) =     -4.71573  eV     1   --> A'             
     e(  9 -  9) =      4.24413  eV     1   --> A'             
     e( 10 - 10) =      4.81165  eV     1   --> A'             
     e( 11 - 11) =      5.28164  eV     1   --> A'             
     e( 12 - 12) =      6.38885  eV     1   --> A'             
     e( 13 - 13) =      7.03181  eV     1   --> A'             
     e( 14 - 14) =      7.78444  eV     1   --> A'             
     e( 15 - 15) =      7.86529  eV     1   --> A'             
     e( 16 - 16) =      8.59750  eV     1   --> A'             
     e( 17 - 17) =      9.06964  eV     1   --> A'             
     e( 18 - 18) =     10.39642  eV     1   --> A'             
     e( 19 - 19) =     11.16514  eV     1   --> A'             
     e( 20 - 20) =     13.26720  eV     1   --> A'             

 **************************************************************************

 **************************************************************************

                    xk=(   0.00000,   0.35283,   0.00000  )

     Band symmetry, C_s (m)     point group:

     e(  1 -  1) =    -18.46463  eV     1   --> A'             
     e(  2 -  2) =    -18.38434  eV     1   --> A'             
     e(  3 -  3) =     -8.79560  eV     1   --> A'             
     e(  4 -  4) =     -8.73069  eV     1   --> A'             
     e(  5 -  5) =     -5.89443  eV     1   --> A''            
     e(  6 -  6) =     -5.87514  eV     1   --> A''            
     e(  7 -  7) =     -5.79500  eV     1   --> A'             
     e(  8 -  8) =     -5.08198  eV     1   --> A'             
     e(  9 -  9) =      4.74564  eV     1   --> A'             
     e( 10 - 10) =      4.80764  eV     1   --> A'             
     e( 11 - 11) =      4.91173  eV     1   --> A'             
     e( 12 - 12) =      6.34532  eV     1   --> A'             
     e( 13 - 13) =      6.53077  eV     1   --> A'             
     e( 14 - 14) =      7.54190  eV     1   --> A'             
     e( 15 - 15) =      7.61120  eV     1   --> A'             
     e( 16 - 16) =      8.36126  eV     1   --> A'             
     e( 17 - 17) =      8.84930  eV     1   --> A'             
     e( 18 - 18) =     10.00456  eV     1   --> A'             
     e( 19 - 19) =     10.66369  eV     1   --> A'             
     e( 20 - 20) =     12.92887  eV     1   --> A'             

 **************************************************************************

 **************************************************************************

                    xk=(   0.00000,   0.32075,   0.00000  )

     Band symmetry, C_s (m)     point group:

     e(  1 -  1) =    -18.72967  eV     1   --> A'             
     e(  2 -  2) =    -18.64570  eV     1   --> A'             
     e(  3 -  3) =     -8.20158  eV     1   --> A'             
     e(  4 -  4) =     -8.14136  eV     1   --> A'             
     e(  5 -  5) =     -6.17389  eV     1   --> A'             
     e(  6 -  6) =     -5.68459  eV     1   --> A''            
     e(  7 -  7) =     -5.66596  eV     1   --> A''            
     e(  8 -  8) =     -5.43433  eV     1   --> A'             
     e(  9 -  9) =      4.34011  eV     1   --> A'             
     e( 10 - 10) =      4.68586  eV     1   --> A'             
     e( 11 - 11) =      5.15653  eV     1   --> A'             
     e( 12 - 12) =      6.06662  eV     1   --> A'             
     e( 13 - 13) =      6.54026  eV     1   --> A'             
     e( 14 - 14) =      7.31219  eV     1   --> A'             
     e( 15 - 15) =      7.38235  eV     1   --> A'             
     e( 16 - 16) =      8.30203  eV     1   --> A'             
     e( 17 - 17) =      8.71164  eV     1   --> A'             
     e( 18 - 18) =      9.69299  eV     1   --> A'             
     e( 19 - 19) =     10.21622  eV     1   --> A'             
     e( 20 - 20) =     12.58554  eV     1   --> A'             

 **************************************************************************

 **************************************************************************

                    xk=(   0.00000,   0.28868,   0.00000  )

     Band symmetry, C_s (m)     point group:

     e(  1 -  1) =    -18.98006  eV     1   --> A'             
     e(  2 -  2) =    -18.89276  eV     1   --> A'             
     e(  3 -  3) =     -7.59556  eV     1   --> A'             
     e(  4 -  4) =     -7.53976  eV     1   --> A'             
     e(  5 -  5) =     -6.52669  eV     1   --> A'             
     e(  6 -  6) =     -5.76572  eV     1   --> A'             
     e(  7 -  7) =     -5.45817  eV     1   --> A''            
     e(  8 -  8) =     -5.44058  eV     1   --> A''            
     e(  9 -  9) =      3.91530  eV     1   --> A'             
     e( 10 - 10) =      4.34677  eV     1   --> A'             
     e( 11 - 11) =      5.30560  eV     1   --> A'             
     e( 12 - 12) =      5.72161  eV     1   --> A'             
     e( 13 - 13) =      6.47252  eV     1   --> A'             
     e( 14 - 14) =      7.19000  eV     1   --> A'             
     e( 15 - 15) =      7.49702  eV     1   --> A'             
     e( 16 - 16) =      8.30571  eV     1   --> A'             
     e( 17 - 17) =      8.63392  eV     1   --> A'             
     e( 18 - 18) =      9.47846  eV     1   --> A'             
     e( 19 - 19) =      9.83758  eV     1   --> A'             
     e( 20 - 20) =     12.27889  eV     1   --> A'             

 **************************************************************************

 **************************************************************************

                    xk=(   0.00000,   0.25660,   0.00000  )

     Band symmetry, C_s (m)     point group:

     e(  1 -  1) =    -19.21129  eV     1   --> A'             
     e(  2 -  2) =    -19.12109  eV     1   --> A'             
     e(  3 -  3) =     -7.00671  eV     1   --> A'             
     e(  4 -  4) =     -6.93784  eV     1   --> A'             
     e(  5 -  5) =     -6.83029  eV     1   --> A'             
     e(  6 -  6) =     -6.06948  eV     1   --> A'             
     e(  7 -  7) =     -5.21891  eV     1   --> A''            
     e(  8 -  8) =     -5.20238  eV     1   --> A''            
     e(  9 -  9) =      3.52754  eV     1   --> A'             
     e( 10 - 10) =      3.99779  eV     1   --> A'             
     e( 11 - 11) =      5.07581  eV     1   --> A'             
     e( 12 - 12) =      5.59480  eV     1   --> A'             
     e( 13 - 13) =      6.17243  eV     1   --> A'             
     e( 14 - 14) =      7.12559  eV     1   --> A'             
     e( 15 - 15) =      7.87218  eV     1   --> A'             
     e( 16 - 16) =      8.33665  eV     1   --> A'             
     e( 17 - 17) =      8.61779  eV     1   --> A'             
     e( 18 - 18) =      9.36203  eV     1   --> A'             
     e( 19 - 19) =      9.55348  eV     1   --> A'             
     e( 20 - 20) =     12.02402  eV     1   --> A'             

 **************************************************************************

 **************************************************************************

                    xk=(   0.00000,   0.22453,   0.00000  )

     Band symmetry, C_s (m)     point group:

     e(  1 -  1) =    -19.42063  eV     1   --> A'             
     e(  2 -  2) =    -19.32785  eV     1   --> A'             
     e(  3 -  3) =     -7.15100  eV     1   --> A'             
     e(  4 -  4) =     -6.40032  eV     1   --> A'             
     e(  5 -  5) =     -6.37890  eV     1   --> A'             
     e(  6 -  6) =     -6.29227  eV     1   --> A'             
     e(  7 -  7) =     -4.97431  eV     1   --> A''            
     e(  8 -  8) =     -4.95865  eV     1   --> A''            
     e(  9 -  9) =      3.17928  eV     1   --> A'             
     e( 10 - 10) =      3.67152  eV     1   --> A'             
     e( 11 - 11) =      4.74833  eV     1   --> A'             
     e( 12 - 12) =      5.46077  eV     1   --> A'             
     e( 13 - 13) =      5.85195  eV     1   --> A'             
     e( 14 - 14) =      7.06935  eV     1   --> A'             
     e( 15 - 15) =      8.07086  eV     1   --> A'             
     e( 16 - 16) =      8.50614  eV     1   --> A'             
     e( 17 - 17) =      8.67232  eV     1   --> A'             
     e( 18 - 18) =      9.32084  eV     1   --> A'             
     e( 19 - 19) =      9.40594  eV     1   --> A'             
     e( 20 - 20) =     11.69563  eV     1   --> A'             

 **************************************************************************

 **************************************************************************

                    xk=(   0.00000,   0.19245,   0.00000  )

     Band symmetry, C_s (m)     point group:

     e(  1 -  1) =    -19.60542  eV     1   --> A'             
     e(  2 -  2) =    -19.51041  eV     1   --> A'             
     e(  3 -  3) =     -7.40506  eV     1   --> A'             
     e(  4 -  4) =     -6.59534  eV     1   --> A'             
     e(  5 -  5) =     -5.81068  eV     1   --> A'             
     e(  6 -  6) =     -5.77168  eV     1   --> A'             
     e(  7 -  7) =     -4.73042  eV     1   --> A''            
     e(  8 -  8) =     -4.71622  eV     1   --> A''            
     e(  9 -  9) =      2.87234  eV     1   --> A'             
     e( 10 - 10) =      3.37994  eV     1   --> A'             
     e( 11 - 11) =      4.44471  eV     1   --> A'             
     e( 12 - 12) =      5.28267  eV     1   --> A'             
     e( 13 - 13) =      5.55816  eV     1   --> A'             
     e( 14 - 14) =      6.97689  eV     1   --> A'             
     e( 15 - 15) =      8.00117  eV     1   --> A'             
     e( 16 - 16) =      8.74849  eV     1   --> A'             
     e( 17 - 17) =      8.80295  eV     1   --> A'             
     e( 18 - 18) =      9.31895  eV     1   --> A'             
     e( 19 - 19) =      9.45121  eV     1   --> A'             
     e( 20 - 20) =     11.29699  eV     1   -->   ?

 **************************************************************************

 **************************************************************************

                    xk=(   0.00000,   0.16038,   0.00000  )

     Band symmetry, C_s (m)     point group:

     e(  1 -  1) =    -19.76424  eV     1   --> A'             
     e(  2 -  2) =    -19.66730  eV     1   --> A'             
     e(  3 -  3) =     -7.62362  eV     1   --> A'             
     e(  4 -  4) =     -6.80250  eV     1   --> A'             
     e(  5 -  5) =     -5.27905  eV     1   --> A'             
     e(  6 -  6) =     -5.24669  eV     1   --> A'             
     e(  7 -  7) =     -4.49777  eV     1   --> A''            
     e(  8 -  8) =     -4.48468  eV     1   --> A''            
     e(  9 -  9) =      2.60780  eV     1   --> A'             
     e( 10 - 10) =      3.12814  eV     1   --> A'             
     e( 11 - 11) =      4.18186  eV     1   --> A'             
     e( 12 - 12) =      5.09709  eV     1   --> A'             
     e( 13 - 13) =      5.30284  eV     1   --> A'             
     e( 14 - 14) =      6.85780  eV     1   --> A'             
     e( 15 - 15) =      7.85106  eV     1   --> A'             
     e( 16 - 16) =      8.87120  eV     1   --> A'             
     e( 17 - 17) =      8.95392  eV     1   --> A'             
     e( 18 - 18) =      9.31978  eV     1   --> A'             
     e( 19 - 19) =      9.68091  eV     1   --> A'             
     e( 20 - 20) =     10.74619  eV     1   --> A''            

 **************************************************************************

 **************************************************************************

                    xk=(   0.00000,   0.12830,   0.00000  )

     Band symmetry, C_s (m)     point group:

     e(  1 -  1) =    -19.89572  eV     1   --> A'             
     e(  2 -  2) =    -19.79723  eV     1   --> A'             
     e(  3 -  3) =     -7.80432  eV     1   --> A'             
     e(  4 -  4) =     -6.97447  eV     1   --> A'             
     e(  5 -  5) =     -4.80535  eV     1   --> A'             
     e(  6 -  6) =     -4.77893  eV     1   --> A'             
     e(  7 -  7) =     -4.28631  eV     1   --> A''            
     e(  8 -  8) =     -4.27397  eV     1   --> A''            
     e(  9 -  9) =      2.38699  eV     1   --> A'             
     e( 10 - 10) =      2.91906  eV     1   --> A'             
     e( 11 - 11) =      3.96406  eV     1   --> A'             
     e( 12 - 12) =      4.92690  eV     1   --> A'             
     e( 13 - 13) =      5.09054  eV     1   --> A'             
     e( 14 - 14) =      6.73571  eV     1   --> A'             
     e( 15 - 15) =      7.68873  eV     1   --> A'             
     e( 16 - 16) =      8.97199  eV     1   --> A'             
     e( 17 - 17) =      9.04707  eV     1   --> A'             
     e( 18 - 18) =      9.30836  eV     1   --> A'             
     e( 19 - 19) =      9.95368  eV     1   --> A'             
     e( 20 - 20) =     10.21035  eV     1   --> A''            

 **************************************************************************

 **************************************************************************

                    xk=(   0.00000,   0.09623,   0.00000  )

     Band symmetry, C_s (m)     point group:

     e(  1 -  1) =    -19.99883  eV     1   --> A'             
     e(  2 -  2) =    -19.89908  eV     1   --> A'             
     e(  3 -  3) =     -7.94558  eV     1   --> A'             
     e(  4 -  4) =     -7.10944  eV     1   --> A'             
     e(  5 -  5) =     -4.40694  eV     1   --> A'             
     e(  6 -  6) =     -4.38694  eV     1   --> A'             
     e(  7 -  7) =     -4.10561  eV     1   --> A''            
     e(  8 -  8) =     -4.09488  eV     1   --> A''            
     e(  9 -  9) =      2.21141  eV     1   --> A'             
     e( 10 - 10) =      2.75445  eV     1   --> A'             
     e( 11 - 11) =      3.79308  eV     1   --> A'             
     e( 12 - 12) =      4.78485  eV     1   --> A'             
     e( 13 - 13) =      4.92349  eV     1   --> A'             
     e( 14 - 14) =      6.62840  eV     1   --> A'             
     e( 15 - 15) =      7.54366  eV     1   --> A'             
     e( 16 - 16) =      9.05547  eV     1   --> A'             
     e( 17 - 17) =      9.11688  eV     1   --> A'             
     e( 18 - 18) =      9.28561  eV     1   --> A'             
     e( 19 - 19) =      9.77558  eV     1   --> A''            
     e( 20 - 20) =      9.82686  eV     1   --> A''            

 **************************************************************************

 **************************************************************************

                    xk=(   0.00000,   0.06415,   0.00000  )

     Band symmetry, C_s (m)     point group:

     e(  1 -  1) =    -20.07294  eV     1   --> A'             
     e(  2 -  2) =    -19.97225  eV     1   --> A'             
     e(  3 -  3) =     -8.04700  eV     1   --> A'             
     e(  4 -  4) =     -7.20641  eV     1   --> A'             
     e(  5 -  5) =     -4.10441  eV     1   --> A'             
     e(  6 -  6) =     -4.08956  eV     1   --> A'             
     e(  7 -  7) =     -3.96686  eV     1   --> A''            
     e(  8 -  8) =     -3.95692  eV     1   --> A''            
     e(  9 -  9) =      2.08324  eV     1   --> A'             
     e( 10 - 10) =      2.63570  eV     1   --> A'             
     e( 11 - 11) =      3.67006  eV     1   --> A'             
     e( 12 - 12) =      4.67848  eV     1   --> A'             
     e( 13 - 13) =      4.80312  eV     1   --> A'             
     e( 14 - 14) =      6.54612  eV     1   --> A'             
     e( 15 - 15) =      7.43122  eV     1   --> A'             
     e( 16 - 16) =      9.12206  eV     1   --> A'             
     e( 17 - 17) =      9.16583  eV     1   --> A'             
     e( 18 - 18) =      9.26126  eV     1   --> A'             
     e( 19 - 19) =      9.45358  eV     1   --> A''            
     e( 20 - 20) =      9.50510  eV     1   --> A''            

 **************************************************************************

 **************************************************************************

                    xk=(   0.00000,   0.03208,   0.00000  )

     Band symmetry, C_s (m)     point group:

     e(  1 -  1) =    -20.11756  eV     1   --> A'             
     e(  2 -  2) =    -20.01627  eV     1   --> A'             
     e(  3 -  3) =     -8.10786  eV     1   --> A'             
     e(  4 -  4) =     -7.26462  eV     1   --> A'             
     e(  5 -  5) =     -3.91460  eV     1   --> A'             
     e(  6 -  6) =     -3.90363  eV     1   --> A'             
     e(  7 -  7) =     -3.87946  eV     1   --> A''            
     e(  8 -  8) =     -3.86937  eV     1   --> A''            
     e(  9 -  9) =      2.00490  eV     1   --> A'             
     e( 10 - 10) =      2.56394  eV     1   --> A'             
     e( 11 - 11) =      3.59585  eV     1   --> A'             
     e( 12 - 12) =      4.61279  eV     1   --> A'             
     e( 13 - 13) =      4.73047  eV     1   --> A'             
     e( 14 - 14) =      6.49493  eV     1   --> A'             
     e( 15 - 15) =      7.36040  eV     1   --> A'             
     e( 16 - 16) =      9.16972  eV     1   --> A'             
     e( 17 - 17) =      9.18793  eV     1   --> A'             
     e( 18 - 18) =      9.24590  eV     1   --> A'             
     e( 19 - 19) =      9.25568  eV     1   --> A''            
     e( 20 - 20) =      9.30731  eV     1   --> A''            

 **************************************************************************

 **************************************************************************

                    xk=(   0.00000,   0.00000,   0.00000  )

     point group C_3v (3m)  
     there are  3 classes
     the character table:

       E     2C3   3s_v 
A_1    1.00  1.00  1.00
A_2    1.00  1.00 -1.00
E      2.00 -1.00  0.00

     the symmetry operations in each class and the name of the first element:

     E        1
                                                                 
     2C3      2    3
                                                                 
     3s_v     4    5    6
                                                                 

     Band symmetry, C_3v (3m)   point group:

     e(  1 -  1) =    -20.13246  eV     1   --> A_1  L_1       
     e(  2 -  2) =    -20.03082  eV     1   --> A_1  L_1       
     e(  3 -  3) =     -8.12777  eV     1   --> A_1  L_1       
     e(  4 -  4) =     -7.28414  eV     1   --> A_1  L_1       
     e(  5 -  6) =     -3.84959  eV     2   --> E    L_3       
     e(  7 -  8) =     -3.83947  eV     2   --> E    L_3       
     e(  9 -  9) =      1.97851  eV     1   --> A_1  L_1       
     e( 10 - 10) =      2.53992  eV     1   --> A_1  L_1       
     e( 11 - 11) =      3.57106  eV     1   --> A_1  L_1       
     e( 12 - 12) =      4.59072  eV     1   --> A_1  L_1       
     e( 13 - 13) =      4.70618  eV     1   --> A_1  L_1       
     e( 14 - 14) =      6.47778  eV     1   --> A_1  L_1       
     e( 15 - 15) =      7.33625  eV     1   --> A_1  L_1       
     e( 16 - 17) =      9.18971  eV     2   --> E    L_3       
     e( 18 - 18) =      9.19314  eV     1   --> A_1  L_1       
     e( 19 - 20) =      9.24036  eV     2   --> E    L_3       

 **************************************************************************

     BANDS        :     11.05s CPU     11.25s WALL


   This run was terminated on:  17:45: 2  12Apr2024            

=------------------------------------------------------------------------------=
   JOB DONE.
=------------------------------------------------------------------------------=
