
     Program PWSCF v.7.2 starts on 12Apr2024 at 17:44: 5 

     This program is part of the open-source Quantum ESPRESSO suite
     for quantum simulation of materials; please cite
         "P. Giannozzi et al., J. Phys.:Condens. Matter 21 395502 (2009);
         "P. Giannozzi et al., J. Phys.:Condens. Matter 29 465901 (2017);
         "P. Giannozzi et al., J. Chem. Phys. 152 154105 (2020);
          URL http://www.quantum-espresso.org", 
     in publications or presentations arising from this work. More details at
     http://www.quantum-espresso.org/quote

     Parallel version (MPI & OpenMP), running on       8 processor cores
     Number of MPI processes:                 8
     Threads/MPI process:                     1

     MPI processes distributed on     1 nodes
     0 MiB available memory on the printing compute node when the environment starts

     Waiting for input...
     Reading input from standard input
Warning: card &CELL ignored
Warning: card CELL_DOFREE = 'Z' ignored
Warning: card / ignored

     Current dimensions of program PWSCF are:
     Max number of different atomic species (ntypx) = 10
     Max number of k-points (npk) =  40000
     Max angular momentum in pseudopotentials (lmaxx) =  4

     IMPORTANT: XC functional enforced from input :
     Exchange-correlation= VDW-DF2-B86R
                           (   1   4  26   0   2   0   0)
     Any further DFT definition will be discarded
     Please, verify this is what you really want


     R & G space division:  proc/nbgrp/npool/nimage =       8
     Subspace diagonalization in iterative solution of the eigenvalue problem:
     a serial algorithm will be used


     Parallelization info
     --------------------
     sticks:   dense  smooth     PW     G-vecs:    dense   smooth      PW
     Min          45      45     15                 5775     5775    1005
     Max          46      46     16                 5804     5804    1022
     Sum         367     367    121                46381    46381    8133

     Using Slab Decomposition



     bravais-lattice index     =            4
     lattice parameter (alat)  =       4.7400  a.u.
     unit-cell volume          =     737.8289 (a.u.)^3
     number of atoms/cell      =            4
     number of atomic types    =            2
     number of electrons       =        16.00
     number of Kohn-Sham states=           12
     kinetic-energy cutoff     =      60.0000  Ry
     charge density cutoff     =     240.0000  Ry
     scf convergence threshold =      1.0E-06
     mixing beta               =       0.7000
     number of iterations used =            8  plain     mixing
     Exchange-correlation= VDW-DF2-B86R
                           (   1   4  26   0   2   0   0)

     celldm(1)=   4.740000  celldm(2)=   0.000000  celldm(3)=   8.000000
     celldm(4)=   0.000000  celldm(5)=   0.000000  celldm(6)=   0.000000

     crystal axes: (cart. coord. in units of alat)
               a(1) = (   1.000000   0.000000   0.000000 )  
               a(2) = (  -0.500000   0.866025   0.000000 )  
               a(3) = (   0.000000   0.000000   8.000000 )  

     reciprocal axes: (cart. coord. in units 2 pi/alat)
               b(1) = (  1.000000  0.577350 -0.000000 )  
               b(2) = (  0.000000  1.154701  0.000000 )  
               b(3) = (  0.000000 -0.000000  0.125000 )  


     PseudoPot. # 1 for B  read from file:
     ../../../../Pseudo/PBE/B.upf
     MD5 check sum: 72f82fc31bc892420d0cab7e25c88ab8
     Pseudo is Norm-conserving + core correction, Zval =  3.0
     Generated using ONCVPSP code by D. R. Hamann
     Using radial grid of 1534 points,  4 beta functions with: 
                l(1) =   0
                l(2) =   0
                l(3) =   1
                l(4) =   1

     PseudoPot. # 2 for N  read from file:
     ../../../../Pseudo/PBE/N.upf
     MD5 check sum: d34365f73bb0e2ee98afc20ec3e87676
     Pseudo is Norm-conserving + core correction, Zval =  5.0
     Generated using ONCVPSP code by D. R. Hamann
     Using radial grid of 1058 points,  4 beta functions with: 
                l(1) =   0
                l(2) =   0
                l(3) =   1
                l(4) =   1

     atomic species   valence    mass     pseudopotential
        B              3.00    10.00000     B ( 1.00)
        N              5.00    14.01100     N ( 1.00)

      6 Sym. Ops. (no inversion) found


                                    s                        frac. trans.

      isym =  1     identity                                     

 cryst.   s( 1) = (     1          0          0      )
                  (     0          1          0      )
                  (     0          0          1      )

 cart.    s( 1) = (  1.0000000  0.0000000  0.0000000 )
                  (  0.0000000  1.0000000  0.0000000 )
                  (  0.0000000  0.0000000  1.0000000 )


      isym =  2     120 deg rotation - cryst. axis [0,0,1]       

 cryst.   s( 2) = (     0          1          0      )
                  (    -1         -1          0      )
                  (     0          0          1      )

 cart.    s( 2) = ( -0.5000000 -0.8660254  0.0000000 )
                  (  0.8660254 -0.5000000  0.0000000 )
                  (  0.0000000  0.0000000  1.0000000 )


      isym =  3     120 deg rotation - cryst. axis [0,0,-1]      

 cryst.   s( 3) = (    -1         -1          0      )
                  (     1          0          0      )
                  (     0          0          1      )

 cart.    s( 3) = ( -0.5000000  0.8660254  0.0000000 )
                  ( -0.8660254 -0.5000000  0.0000000 )
                  (  0.0000000  0.0000000  1.0000000 )


      isym =  4     inv. 180 deg rotation - cart. axis [1,0,0]   

 cryst.   s( 4) = (    -1          0          0      )
                  (     1          1          0      )
                  (     0          0          1      )

 cart.    s( 4) = ( -1.0000000  0.0000000  0.0000000 )
                  (  0.0000000  1.0000000  0.0000000 )
                  (  0.0000000  0.0000000  1.0000000 )


      isym =  5     inv. 180 deg rotation - cryst. axis [0,1,0]  

 cryst.   s( 5) = (     1          1          0      )
                  (     0         -1          0      )
                  (     0          0          1      )

 cart.    s( 5) = (  0.5000000  0.8660254  0.0000000 )
                  (  0.8660254 -0.5000000  0.0000000 )
                  (  0.0000000  0.0000000  1.0000000 )


      isym =  6     inv. 180 deg rotation - cryst. axis [1,1,0]  

 cryst.   s( 6) = (     0         -1          0      )
                  (    -1          0          0      )
                  (     0          0          1      )

 cart.    s( 6) = (  0.5000000 -0.8660254  0.0000000 )
                  ( -0.8660254 -0.5000000  0.0000000 )
                  (  0.0000000  0.0000000  1.0000000 )


     point group C_3v (3m)  
     there are  3 classes
     the character table:

       E     2C3   3s_v 
A_1    1.00  1.00  1.00
A_2    1.00  1.00 -1.00
E      2.00 -1.00  0.00

     the symmetry operations in each class and the name of the first element:

     E        1
          identity                                               
     2C3      2    3
          120 deg rotation - cryst. axis [0,0,1]                 
     3s_v     4    5    6
          inv. 180 deg rotation - cart. axis [1,0,0]             

   Cartesian axes

     site n.     atom                  positions (alat units)
         1           N   tau(   1) = (   0.0000000   0.0000000   0.0000000  )
         2           B   tau(   2) = (  -0.0000003   0.5773502   0.0000000  )
         3           N   tau(   3) = (   0.0000000   0.0000000   1.3944000  )
         4           B   tau(   4) = (   0.5000005   0.2886748   1.3944000  )

   Crystallographic axes

     site n.     atom                  positions (cryst. coord.)
         1           N   tau(   1) = (  0.0000000  0.0000000  0.0000000  )
         2           B   tau(   2) = (  0.3333330  0.6666666  0.0000000  )
         3           N   tau(   3) = (  0.0000000  0.0000000  0.1743000  )
         4           B   tau(   4) = (  0.6666670  0.3333330  0.1743000  )

     number of k points=    19  Marzari-Vanderbilt smearing, width (Ry)=  0.0050
                       cart. coord. in units 2pi/alat
        k(    1) = (   0.0000000   0.0000000   0.0000000), wk =   0.0138889
        k(    2) = (   0.0000000   0.0962250   0.0000000), wk =   0.0833333
        k(    3) = (   0.0000000   0.1924501   0.0000000), wk =   0.0833333
        k(    4) = (   0.0000000   0.2886751   0.0000000), wk =   0.0833333
        k(    5) = (   0.0000000   0.3849002   0.0000000), wk =   0.0833333
        k(    6) = (   0.0000000   0.4811252   0.0000000), wk =   0.0833333
        k(    7) = (   0.0000000  -0.5773503   0.0000000), wk =   0.0416667
        k(    8) = (   0.0833333   0.1443376   0.0000000), wk =   0.0833333
        k(    9) = (   0.0833333   0.2405626   0.0000000), wk =   0.1666667
        k(   10) = (   0.0833333   0.3367877   0.0000000), wk =   0.1666667
        k(   11) = (   0.0833333   0.4330127   0.0000000), wk =   0.1666667
        k(   12) = (   0.0833333   0.5292377   0.0000000), wk =   0.1666667
        k(   13) = (   0.1666667   0.2886751   0.0000000), wk =   0.0833333
        k(   14) = (   0.1666667   0.3849002   0.0000000), wk =   0.1666667
        k(   15) = (   0.1666667   0.4811252   0.0000000), wk =   0.1666667
        k(   16) = (   0.1666667   0.5773503   0.0000000), wk =   0.0833333
        k(   17) = (   0.2500000   0.4330127   0.0000000), wk =   0.0833333
        k(   18) = (   0.2500000   0.5292377   0.0000000), wk =   0.1666667
        k(   19) = (   0.3333333   0.5773503   0.0000000), wk =   0.0277778

                       cryst. coord.
        k(    1) = (   0.0000000   0.0000000   0.0000000), wk =   0.0138889
        k(    2) = (   0.0000000   0.0833333   0.0000000), wk =   0.0833333
        k(    3) = (   0.0000000   0.1666667   0.0000000), wk =   0.0833333
        k(    4) = (   0.0000000   0.2500000   0.0000000), wk =   0.0833333
        k(    5) = (   0.0000000   0.3333333   0.0000000), wk =   0.0833333
        k(    6) = (   0.0000000   0.4166667   0.0000000), wk =   0.0833333
        k(    7) = (   0.0000000  -0.5000000   0.0000000), wk =   0.0416667
        k(    8) = (   0.0833333   0.0833333   0.0000000), wk =   0.0833333
        k(    9) = (   0.0833333   0.1666667   0.0000000), wk =   0.1666667
        k(   10) = (   0.0833333   0.2500000   0.0000000), wk =   0.1666667
        k(   11) = (   0.0833333   0.3333333   0.0000000), wk =   0.1666667
        k(   12) = (   0.0833333   0.4166667   0.0000000), wk =   0.1666667
        k(   13) = (   0.1666667   0.1666667   0.0000000), wk =   0.0833333
        k(   14) = (   0.1666667   0.2500000   0.0000000), wk =   0.1666667
        k(   15) = (   0.1666667   0.3333333   0.0000000), wk =   0.1666667
        k(   16) = (   0.1666667   0.4166667   0.0000000), wk =   0.0833333
        k(   17) = (   0.2500000   0.2500000   0.0000000), wk =   0.0833333
        k(   18) = (   0.2500000   0.3333333   0.0000000), wk =   0.1666667
        k(   19) = (   0.3333333   0.3333333   0.0000000), wk =   0.0277778

     Dense  grid:    46381 G-vectors     FFT dimensions: (  24,  24, 192)

     Dynamical RAM for                 wfc:       0.13 MB

     Dynamical RAM for     wfc (w. buffer):       2.65 MB

     Dynamical RAM for           str. fact:       0.18 MB

     Dynamical RAM for           local pot:       0.00 MB

     Dynamical RAM for          nlocal pot:       0.35 MB

     Dynamical RAM for                qrad:       0.71 MB

     Dynamical RAM for          rho,v,vnew:       0.58 MB

     Dynamical RAM for               rhoin:       0.19 MB

     Dynamical RAM for            rho*nmix:       1.42 MB

     Dynamical RAM for           G-vectors:       0.38 MB

     Dynamical RAM for          h,s,v(r/c):       0.03 MB

     Dynamical RAM for          <psi|beta>:       0.01 MB

     Dynamical RAM for                 psi:       0.26 MB

     Dynamical RAM for                hpsi:       0.26 MB

     Dynamical RAM for      wfcinit/wfcrot:       0.36 MB

     Estimated static dynamical RAM per process >       5.83 MB

     Estimated max dynamical RAM per process >       7.81 MB

     Estimated total dynamical RAM >      62.50 MB

     Initial potential from superposition of free atoms

     starting charge      15.9995, renormalised to      16.0000

     negative rho (up, down):  1.004E-04 0.000E+00


     %%%%%%%%%%%%%%%%%%%%%%%%%%%%%%%%%%%%%%%%%%%%%%%%%%%%%%%%%%%%%%%%%%%%%%%%
     %                                                                      %
     % You are using vdW-DF, which was implemented by the Thonhauser group. %
     % Please cite the following two papers that made this development      %
     % possible and the two reviews that describe the various versions:     %
     %                                                                      %
     %   T. Thonhauser et al., PRL 115, 136402 (2015).                      %
     %   T. Thonhauser et al., PRB 76, 125112 (2007).                       %
     %   K. Berland et al., Rep. Prog. Phys. 78, 066501 (2015).             %
     %   D.C. Langreth et al., J. Phys.: Condens. Matter 21, 084203 (2009). %
     %                                                                      %
     % If you are calculating stress with vdW-DF, please also cite:         %
     %                                                                      %
     %   R. Sabatini et al., J. Phys.: Condens. Matter 24, 424209 (2012).   %
     %                                                                      %
     %%%%%%%%%%%%%%%%%%%%%%%%%%%%%%%%%%%%%%%%%%%%%%%%%%%%%%%%%%%%%%%%%%%%%%%%

     %%%%%%%%%%%%%%%%%%%%%%%%%%%%%%%%%%%%%%%%%%%%%%%%%%%%%%%%%%%%%%%%%%%%%%%%
     %                                                                      %
     %  vdW-DF NEWS:                                                        %
     %                                                                      %
     %  * vdW-DF3 is now available. DOI: 10.1021/acs.jctc.0c00471           %
     %    use with input_dft = 'vdW-DF3-opt1' or 'vdW-DF3-opt2'             %
     %                                                                      %
     %  * Unscreened and range-separated hybrid vdW-DF-cx functionals       %
     %    DOI: 10.1063/1.4986522 and 10.1088/1361-648X/ac2ad2               %
     %    use with input_dft = 'vdW-DF-cx0'    and 'vdW-DF-ahcx'            %
     %  * Unscreened and range-separated hybrid vdW-DF2-b86r functionals    %
     %    DOI: 10.1063/1.4986522 and DOI: 10.1103/PhysRevX.12.041003        %
     %    use with input_dft = 'vdW-DF2-br0' and 'vdW-DF2-ahbr'             %
     %                                                                      %
     %%%%%%%%%%%%%%%%%%%%%%%%%%%%%%%%%%%%%%%%%%%%%%%%%%%%%%%%%%%%%%%%%%%%%%%%


     Carrying out vdW-DF run using the following parameters:
     Nqs    =  20  Npoints =  1024  r_max =  100.000
     q_mesh =  0.00001000  0.04494208  0.09755937  0.15916263
               0.23128650  0.31572767  0.41458969  0.53033537
               0.66584808  0.82450364  1.01025438  1.22772762
               1.48234092  1.78043706  2.12944203  2.53805004
               3.01644009  3.57652955  4.23227104  5.00000000


     -----------------------------------------------
     Non-local corr. energy    =       0.17726603 Ry
     -----------------------------------------------

     Starting wfcs are   16 randomized atomic wfcs

     total cpu time spent up to now is        9.4 secs

     Self-consistent Calculation

     iteration #  1     ecut=    60.00 Ry     beta= 0.70
     Davidson diagonalization with overlap

---- Real-time Memory Report at c_bands before calling an iterative solver
             0 MiB given to the printing process from OS
             0 MiB allocation reported by mallinfo(arena+hblkhd)
             0 MiB available memory on the node where the printing process lives
------------------
     ethr =  1.00E-02,  avg # of iterations =  4.3

     negative rho (up, down):  6.084E-06 0.000E+00


     -----------------------------------------------
     Non-local corr. energy    =       0.20723212 Ry
     -----------------------------------------------


     total cpu time spent up to now is       10.1 secs

     total energy              =     -53.43491997 Ry
     estimated scf accuracy    <       0.76337975 Ry

     iteration #  2     ecut=    60.00 Ry     beta= 0.70
     Davidson diagonalization with overlap

---- Real-time Memory Report at c_bands before calling an iterative solver
             0 MiB given to the printing process from OS
             0 MiB allocation reported by mallinfo(arena+hblkhd)
             0 MiB available memory on the node where the printing process lives
------------------
     ethr =  4.77E-03,  avg # of iterations =  3.5

     negative rho (up, down):  1.533E-06 0.000E+00


     -----------------------------------------------
     Non-local corr. energy    =       0.20112852 Ry
     -----------------------------------------------


     total cpu time spent up to now is       10.9 secs

     total energy              =     -53.63350008 Ry
     estimated scf accuracy    <       0.32914590 Ry

     iteration #  3     ecut=    60.00 Ry     beta= 0.70
     Davidson diagonalization with overlap

---- Real-time Memory Report at c_bands before calling an iterative solver
             0 MiB given to the printing process from OS
             0 MiB allocation reported by mallinfo(arena+hblkhd)
             0 MiB available memory on the node where the printing process lives
------------------
     ethr =  2.06E-03,  avg # of iterations =  1.8


     -----------------------------------------------
     Non-local corr. energy    =       0.20313962 Ry
     -----------------------------------------------


     total cpu time spent up to now is       11.5 secs

     total energy              =     -53.68673730 Ry
     estimated scf accuracy    <       0.00541372 Ry

     iteration #  4     ecut=    60.00 Ry     beta= 0.70
     Davidson diagonalization with overlap

---- Real-time Memory Report at c_bands before calling an iterative solver
             0 MiB given to the printing process from OS
             0 MiB allocation reported by mallinfo(arena+hblkhd)
             0 MiB available memory on the node where the printing process lives
------------------
     ethr =  3.38E-05,  avg # of iterations =  9.5


     -----------------------------------------------
     Non-local corr. energy    =       0.20325578 Ry
     -----------------------------------------------


     total cpu time spent up to now is       12.7 secs

     total energy              =     -53.69137003 Ry
     estimated scf accuracy    <       0.00523430 Ry

     iteration #  5     ecut=    60.00 Ry     beta= 0.70
     Davidson diagonalization with overlap

---- Real-time Memory Report at c_bands before calling an iterative solver
             0 MiB given to the printing process from OS
             0 MiB allocation reported by mallinfo(arena+hblkhd)
             0 MiB available memory on the node where the printing process lives
------------------
     ethr =  3.27E-05,  avg # of iterations =  2.4


     -----------------------------------------------
     Non-local corr. energy    =       0.20322333 Ry
     -----------------------------------------------


     total cpu time spent up to now is       13.3 secs

     total energy              =     -53.69152581 Ry
     estimated scf accuracy    <       0.00093278 Ry

     iteration #  6     ecut=    60.00 Ry     beta= 0.70
     Davidson diagonalization with overlap

---- Real-time Memory Report at c_bands before calling an iterative solver
             0 MiB given to the printing process from OS
             0 MiB allocation reported by mallinfo(arena+hblkhd)
             0 MiB available memory on the node where the printing process lives
------------------
     ethr =  5.83E-06,  avg # of iterations =  2.3


     -----------------------------------------------
     Non-local corr. energy    =       0.20325303 Ry
     -----------------------------------------------


     total cpu time spent up to now is       14.1 secs

     total energy              =     -53.69180862 Ry
     estimated scf accuracy    <       0.00001694 Ry

     iteration #  7     ecut=    60.00 Ry     beta= 0.70
     Davidson diagonalization with overlap

---- Real-time Memory Report at c_bands before calling an iterative solver
             0 MiB given to the printing process from OS
             0 MiB allocation reported by mallinfo(arena+hblkhd)
             0 MiB available memory on the node where the printing process lives
------------------
     ethr =  1.06E-07,  avg # of iterations =  4.6


     -----------------------------------------------
     Non-local corr. energy    =       0.20326741 Ry
     -----------------------------------------------


     total cpu time spent up to now is       14.9 secs

     total energy              =     -53.69180977 Ry
     estimated scf accuracy    <       0.00002488 Ry

     iteration #  8     ecut=    60.00 Ry     beta= 0.70
     Davidson diagonalization with overlap

---- Real-time Memory Report at c_bands before calling an iterative solver
             0 MiB given to the printing process from OS
             0 MiB allocation reported by mallinfo(arena+hblkhd)
             0 MiB available memory on the node where the printing process lives
------------------
     ethr =  1.06E-07,  avg # of iterations =  2.7


     -----------------------------------------------
     Non-local corr. energy    =       0.20325570 Ry
     -----------------------------------------------


     total cpu time spent up to now is       15.5 secs

     End of self-consistent calculation

          k = 0.0000 0.0000 0.0000 (  5727 PWs)   bands (ev):

   -20.1303 -20.0285  -8.1268  -7.2827  -3.8464  -3.8463  -3.8363  -3.8362
     1.9782   2.5396   3.5713   4.5931

     occupation numbers 
     1.0000   1.0000   1.0000   1.0000   1.0000   1.0000   1.0000   1.0000
     0.0000   0.0000   0.0000   0.0000

          k = 0.0000 0.0962 0.0000 (  5752 PWs)   bands (ev):

   -19.9966 -19.8968  -7.9446  -7.1080  -4.4039  -4.3839  -4.1025  -4.0918
     2.2111   2.7542   3.7931   4.7848

     occupation numbers 
     1.0000   1.0000   1.0000   1.0000   1.0000   1.0000   1.0000   1.0000
     0.0000   0.0000   0.0000   0.0000

          k = 0.0000 0.1925 0.0000 (  5740 PWs)   bands (ev):

   -19.6031 -19.5080  -7.4039  -6.5938  -5.8081  -5.7690  -4.7276  -4.7134
     2.8720   3.3798   4.4447   5.2836

     occupation numbers 
     1.0000   1.0000   1.0000   1.0000   1.0000   1.0000   1.0000   1.0000
     0.0000   0.0000   0.0000   0.0000

          k = 0.0000 0.2887 0.0000 (  5802 PWs)   bands (ev):

   -18.9776 -18.8903  -7.5934  -7.5375  -6.5253  -5.7639  -5.4556  -5.4380
     3.9150   4.3469   5.3062   5.7224

     occupation numbers 
     1.0000   1.0000   1.0000   1.0000   1.0000   1.0000   1.0000   1.0000
     0.0000   0.0000   0.0000   0.0000

          k = 0.0000 0.3849 0.0000 (  5814 PWs)   bands (ev):

   -18.1882 -18.1120  -9.3635  -9.2938  -6.0805  -6.0608  -5.3959  -4.7135
     4.2445   4.8122   5.2815   6.3880

     occupation numbers 
     1.0000   1.0000   1.0000   1.0000   1.0000   1.0000   1.0000   1.0000
     0.0000   0.0000   0.0000   0.0000

          k = 0.0000 0.4811 0.0000 (  5816 PWs)   bands (ev):

   -17.4119 -17.3491 -10.7824 -10.6980  -6.4910  -6.4702  -4.2130  -3.6584
     2.6387   3.5261   6.6428   7.3656

     occupation numbers 
     1.0000   1.0000   1.0000   1.0000   1.0000   1.0000   1.0000   1.0000
     0.0000   0.0000   0.0000   0.0000

          k = 0.0000-0.5774 0.0000 (  5812 PWs)   bands (ev):

   -17.0459 -16.9915 -11.3693 -11.2776  -6.6330  -6.6124  -3.6005  -3.1498
     1.8507   2.8390   7.1136   7.5143

     occupation numbers 
     1.0000   1.0000   1.0000   1.0000   1.0000   1.0000   1.0000   1.0000
     0.0000   0.0000   0.0000   0.0000

          k = 0.0833 0.1443 0.0000 (  5762 PWs)   bands (ev):

   -19.7331 -19.6363  -7.5826  -6.7630  -5.3184  -5.2851  -4.6110  -4.5967
     2.6587   3.1750   4.2312   5.1371

     occupation numbers 
     1.0000   1.0000   1.0000   1.0000   1.0000   1.0000   1.0000   1.0000
     0.0000   0.0000   0.0000   0.0000

          k = 0.0833 0.2406 0.0000 (  5759 PWs)   bands (ev):

   -19.2221 -19.1316  -6.9075  -6.7675  -6.7573  -6.0843  -5.3977  -5.3788
     3.5178   3.9824   5.0663   5.6089

     occupation numbers 
     1.0000   1.0000   1.0000   1.0000   1.0000   1.0000   1.0000   1.0000
     0.0000   0.0000   0.0000   0.0000

          k = 0.0833 0.3368 0.0000 (  5801 PWs)   bands (ev):

   -18.5082 -18.4271  -8.5144  -8.4525  -6.1439  -6.1210  -5.8605  -5.1412
     4.7457   4.9117   4.9467   6.4069

     occupation numbers 
     1.0000   1.0000   1.0000   1.0000   1.0000   1.0000   1.0000   1.0000
     0.0000   0.0000   0.0000   0.0000

          k = 0.0833 0.4330 0.0000 (  5811 PWs)   bands (ev):

   -17.7014 -17.6329 -10.0973 -10.0217  -6.6951  -6.6692  -4.6724  -4.0553
     3.4094   4.1555   6.2596   7.1174

     occupation numbers 
     1.0000   1.0000   1.0000   1.0000   1.0000   1.0000   1.0000   1.0000
     0.0000   0.0000   0.0000   0.0000

          k = 0.0833 0.5292 0.0000 (  5806 PWs)   bands (ev):

   -17.0777 -17.0215 -11.1385 -11.0502  -6.9844  -6.9571  -3.6709  -3.1918
     2.1057   3.0159   7.4687   7.9985

     occupation numbers 
     1.0000   1.0000   1.0000   1.0000   1.0000   1.0000   1.0000   1.0000
     0.0000   0.0000   0.0000   0.0000

          k = 0.1667 0.2887 0.0000 (  5786 PWs)   bands (ev):

   -18.6189 -18.5361  -8.0135  -7.9561  -6.4122  -6.3845  -6.0195  -5.2886
     4.5782   4.8459   5.1991   6.5274

     occupation numbers 
     1.0000   1.0000   1.0000   1.0000   1.0000   1.0000   1.0000   1.0000
     0.0000   0.0000   0.0000   0.0000

          k = 0.1667 0.3849 0.0000 (  5802 PWs)   bands (ev):

   -17.8657 -17.7939  -9.3610  -9.2944  -7.2771  -7.2416  -4.9277  -4.2788
     4.0435   4.5813   6.0163   6.8387

     occupation numbers 
     1.0000   1.0000   1.0000   1.0000   1.0000   1.0000   1.0000   1.0000
     0.0000   0.0000   0.0000   0.0000

          k = 0.1667 0.4811 0.0000 (  5797 PWs)   bands (ev):

   -17.1385 -17.0797 -10.5459 -10.4672  -7.7980  -7.7584  -3.8010  -3.2749
     2.6785   3.3600   7.7014   8.3732

     occupation numbers 
     1.0000   1.0000   1.0000   1.0000   1.0000   1.0000   1.0000   1.0000
     0.0000   0.0000   0.0000   0.0000

          k = 0.1667 0.5774 0.0000 (  5784 PWs)   bands (ev):

   -16.8034 -16.7517 -11.0508 -10.9651  -7.9696  -7.9287  -3.2281  -2.7932
     1.9990   2.7678   8.7835   9.1665

     occupation numbers 
     1.0000   1.0000   1.0000   1.0000   1.0000   1.0000   1.0000   1.0000
     0.0000   0.0000   0.0000   0.0000

          k = 0.2500 0.4330 0.0000 (  5832 PWs)   bands (ev):

   -17.1680 -17.1079 -10.0863 -10.0162  -8.3602  -8.3135  -3.8614  -3.3150
     3.0300   3.5034   7.6367   8.2232

     occupation numbers 
     1.0000   1.0000   1.0000   1.0000   1.0000   1.0000   1.0000   1.0000
     0.0000   0.0000   0.0000   0.0000

          k = 0.2500 0.5292 0.0000 (  5788 PWs)   bands (ev):

   -16.6601 -16.6100 -10.5981 -10.5251  -8.9664  -8.9151  -3.0090  -2.5754
     2.2264   2.6591   9.3037   9.4226

     occupation numbers 
     1.0000   1.0000   1.0000   1.0000   1.0000   1.0000   1.0000   1.0000
     0.0000   0.0000   0.0000   0.0000

          k = 0.3333 0.5774 0.0000 (  5814 PWs)   bands (ev):

   -16.4668 -16.4207 -10.3531 -10.3530  -9.6130  -9.6129  -2.6689  -2.2754
     2.2137   2.2140   9.5340   9.5341

     occupation numbers 
     1.0000   1.0000   1.0000   1.0000   1.0000   1.0000   1.0000   1.0000
     0.0000   0.0000   0.0000   0.0000

     the Fermi energy is    -1.4200 ev

!    total energy              =     -53.69181234 Ry
     estimated scf accuracy    <       0.00000080 Ry
     smearing contrib. (-TS)   =       0.00000000 Ry
     internal energy E=F+TS    =     -53.69181234 Ry

     The total energy is F=E-TS. E is the sum of the following terms:
     one-electron contribution =    -514.78316727 Ry
     hartree contribution      =     261.55710680 Ry
     xc contribution           =     -17.37990307 Ry
     ewald contribution        =     216.91415120 Ry

     convergence has been achieved in   8 iterations

     Writing all to output data dir ./tmp/BN2L_A1B_PBE_vdW.save/

     init_run     :      9.19s CPU      9.32s WALL (       1 calls)
     electrons    :      5.68s CPU      6.09s WALL (       1 calls)

     Called by init_run:
     wfcinit      :      0.21s CPU      0.22s WALL (       1 calls)
     wfcinit:atom :      0.00s CPU      0.00s WALL (      19 calls)
     wfcinit:wfcr :      0.19s CPU      0.20s WALL (      19 calls)
     potinit      :      8.63s CPU      8.74s WALL (       1 calls)
     hinit0       :      0.33s CPU      0.33s WALL (       1 calls)

     Called by electrons:
     c_bands      :      4.63s CPU      4.91s WALL (       8 calls)
     sum_band     :      0.55s CPU      0.59s WALL (       8 calls)
     v_of_rho     :      9.07s CPU      9.25s WALL (       9 calls)
     v_h          :      0.01s CPU      0.01s WALL (       9 calls)
     v_xc         :      9.07s CPU      9.24s WALL (       9 calls)
     mix_rho      :      0.02s CPU      0.04s WALL (       8 calls)
     vdW_kernel   :      8.55s CPU      8.65s WALL (       1 calls)

     Called by c_bands:
     init_us_2    :      0.09s CPU      0.10s WALL (     323 calls)
     init_us_2:cp :      0.09s CPU      0.10s WALL (     323 calls)
     cegterg      :      4.47s CPU      4.75s WALL (     152 calls)

     Called by sum_band:
     sum_band:wei :      0.00s CPU      0.00s WALL (       8 calls)
     sum_band:loo :      0.54s CPU      0.58s WALL (       8 calls)
     sum_band:buf :      0.01s CPU      0.01s WALL (     152 calls)
     sum_band:ini :      0.05s CPU      0.05s WALL (     152 calls)

     Called by *egterg:
     cdiaghg      :      0.17s CPU      0.18s WALL (     745 calls)
     cegterg:over :      0.27s CPU      0.28s WALL (     593 calls)
     cegterg:upda :      0.17s CPU      0.21s WALL (     593 calls)
     cegterg:last :      0.24s CPU      0.24s WALL (     405 calls)
     h_psi        :      3.62s CPU      3.80s WALL (     764 calls)
     g_psi        :      0.02s CPU      0.03s WALL (     593 calls)

     Called by h_psi:
     h_psi:calbec :      0.30s CPU      0.32s WALL (     764 calls)
     vloc_psi     :      3.02s CPU      3.21s WALL (     764 calls)
     add_vuspsi   :      0.27s CPU      0.25s WALL (     764 calls)

     General routines
     calbec       :      0.30s CPU      0.31s WALL (     764 calls)
     fft          :      0.47s CPU      0.49s WALL (     540 calls)
     ffts         :      0.00s CPU      0.00s WALL (       8 calls)
     fftw         :      3.09s CPU      3.28s WALL (   13550 calls)

     Parallel routines

     PWSCF        :     14.96s CPU     15.54s WALL


   This run was terminated on:  17:44:21  12Apr2024            

=------------------------------------------------------------------------------=
   JOB DONE.
=------------------------------------------------------------------------------=
