
     Program PWSCF v.7.2 starts on 12Apr2024 at 17:44:21 

     This program is part of the open-source Quantum ESPRESSO suite
     for quantum simulation of materials; please cite
         "P. Giannozzi et al., J. Phys.:Condens. Matter 21 395502 (2009);
         "P. Giannozzi et al., J. Phys.:Condens. Matter 29 465901 (2017);
         "P. Giannozzi et al., J. Chem. Phys. 152 154105 (2020);
          URL http://www.quantum-espresso.org", 
     in publications or presentations arising from this work. More details at
     http://www.quantum-espresso.org/quote

     Parallel version (MPI & OpenMP), running on       8 processor cores
     Number of MPI processes:                 8
     Threads/MPI process:                     1

     MPI processes distributed on     1 nodes
     0 MiB available memory on the printing compute node when the environment starts

     Waiting for input...
     Reading input from standard input
Warning: card &IONS ignored
Warning: card / ignored
Warning: card &CELL ignored
Warning: card CELL_DOFREE = 'Z' ignored
Warning: card / ignored

     Current dimensions of program PWSCF are:
     Max number of different atomic species (ntypx) = 10
     Max number of k-points (npk) =  40000
     Max angular momentum in pseudopotentials (lmaxx) =  4

     Atomic positions and unit cell read from directory:
     ./tmp/BN2L_A1B_PBE_vdW.save/
     Atomic positions from file used, from input discarded


     IMPORTANT: XC functional enforced from input :
     Exchange-correlation= VDW-DF2-B86R
                           (   1   4  26   0   2   0   0)
     Any further DFT definition will be discarded
     Please, verify this is what you really want


     R & G space division:  proc/nbgrp/npool/nimage =       8
     Subspace diagonalization in iterative solution of the eigenvalue problem:
     a serial algorithm will be used


     Parallelization info
     --------------------
     sticks:   dense  smooth     PW     G-vecs:    dense   smooth      PW
     Min          45      45     15                 5775     5775    1005
     Max          46      46     16                 5804     5804    1022
     Sum         367     367    121                46381    46381    8133

     Using Slab Decomposition



     bravais-lattice index     =            4
     lattice parameter (alat)  =       4.7400  a.u.
     unit-cell volume          =     737.8289 (a.u.)^3
     number of atoms/cell      =            4
     number of atomic types    =            2
     number of electrons       =        16.00
     number of Kohn-Sham states=           20
     kinetic-energy cutoff     =      60.0000  Ry
     charge density cutoff     =     240.0000  Ry
     Exchange-correlation= VDW-DF2-B86R
                           (   1   4  26   0   2   0   0)

     celldm(1)=   4.740000  celldm(2)=   0.000000  celldm(3)=   8.000000
     celldm(4)=   0.000000  celldm(5)=   0.000000  celldm(6)=   0.000000

     crystal axes: (cart. coord. in units of alat)
               a(1) = (   1.000000   0.000000   0.000000 )  
               a(2) = (  -0.500000   0.866025   0.000000 )  
               a(3) = (   0.000000   0.000000   8.000000 )  

     reciprocal axes: (cart. coord. in units 2 pi/alat)
               b(1) = (  1.000000  0.577350 -0.000000 )  
               b(2) = (  0.000000  1.154701  0.000000 )  
               b(3) = (  0.000000 -0.000000  0.125000 )  


     PseudoPot. # 1 for B  read from file:
     ../../../../Pseudo/PBE/B.upf
     MD5 check sum: 72f82fc31bc892420d0cab7e25c88ab8
     Pseudo is Norm-conserving + core correction, Zval =  3.0
     Generated using ONCVPSP code by D. R. Hamann
     Using radial grid of 1534 points,  4 beta functions with: 
                l(1) =   0
                l(2) =   0
                l(3) =   1
                l(4) =   1

     PseudoPot. # 2 for N  read from file:
     ../../../../Pseudo/PBE/N.upf
     MD5 check sum: d34365f73bb0e2ee98afc20ec3e87676
     Pseudo is Norm-conserving + core correction, Zval =  5.0
     Generated using ONCVPSP code by D. R. Hamann
     Using radial grid of 1058 points,  4 beta functions with: 
                l(1) =   0
                l(2) =   0
                l(3) =   1
                l(4) =   1

     atomic species   valence    mass     pseudopotential
        B              3.00    10.00000     B ( 1.00)
        N              5.00    14.01100     N ( 1.00)

      6 Sym. Ops. (no inversion) found


                                    s                        frac. trans.

      isym =  1     identity                                     

 cryst.   s( 1) = (     1          0          0      )
                  (     0          1          0      )
                  (     0          0          1      )

 cart.    s( 1) = (  1.0000000  0.0000000  0.0000000 )
                  (  0.0000000  1.0000000  0.0000000 )
                  (  0.0000000  0.0000000  1.0000000 )


      isym =  2     120 deg rotation - cryst. axis [0,0,1]       

 cryst.   s( 2) = (     0          1          0      )
                  (    -1         -1          0      )
                  (     0          0          1      )

 cart.    s( 2) = ( -0.5000000 -0.8660254  0.0000000 )
                  (  0.8660254 -0.5000000  0.0000000 )
                  (  0.0000000  0.0000000  1.0000000 )


      isym =  3     120 deg rotation - cryst. axis [0,0,-1]      

 cryst.   s( 3) = (    -1         -1          0      )
                  (     1          0          0      )
                  (     0          0          1      )

 cart.    s( 3) = ( -0.5000000  0.8660254  0.0000000 )
                  ( -0.8660254 -0.5000000  0.0000000 )
                  (  0.0000000  0.0000000  1.0000000 )


      isym =  4     inv. 180 deg rotation - cart. axis [1,0,0]   

 cryst.   s( 4) = (    -1          0          0      )
                  (     1          1          0      )
                  (     0          0          1      )

 cart.    s( 4) = ( -1.0000000  0.0000000  0.0000000 )
                  (  0.0000000  1.0000000  0.0000000 )
                  (  0.0000000  0.0000000  1.0000000 )


      isym =  5     inv. 180 deg rotation - cryst. axis [0,1,0]  

 cryst.   s( 5) = (     1          1          0      )
                  (     0         -1          0      )
                  (     0          0          1      )

 cart.    s( 5) = (  0.5000000  0.8660254  0.0000000 )
                  (  0.8660254 -0.5000000  0.0000000 )
                  (  0.0000000  0.0000000  1.0000000 )


      isym =  6     inv. 180 deg rotation - cryst. axis [1,1,0]  

 cryst.   s( 6) = (     0         -1          0      )
                  (    -1          0          0      )
                  (     0          0          1      )

 cart.    s( 6) = (  0.5000000 -0.8660254  0.0000000 )
                  ( -0.8660254 -0.5000000  0.0000000 )
                  (  0.0000000  0.0000000  1.0000000 )


     point group C_3v (3m)  
     there are  3 classes
     the character table:

       E     2C3   3s_v 
A_1    1.00  1.00  1.00
A_2    1.00  1.00 -1.00
E      2.00 -1.00  0.00

     the symmetry operations in each class and the name of the first element:

     E        1
          identity                                               
     2C3      2    3
          120 deg rotation - cryst. axis [0,0,1]                 
     3s_v     4    5    6
          inv. 180 deg rotation - cart. axis [1,0,0]             

   Cartesian axes

     site n.     atom                  positions (alat units)
         1           N   tau(   1) = (   0.0000000   0.0000000   0.0000000  )
         2           B   tau(   2) = (  -0.0000003   0.5773502   0.0000000  )
         3           N   tau(   3) = (   0.0000000   0.0000000   1.3944000  )
         4           B   tau(   4) = (   0.5000005   0.2886748   1.3944000  )

   Crystallographic axes

     site n.     atom                  positions (cryst. coord.)
         1           N   tau(   1) = (  0.0000000  0.0000000  0.0000000  )
         2           B   tau(   2) = (  0.3333330  0.6666666  0.0000000  )
         3           N   tau(   3) = (  0.0000000  0.0000000  0.1743000  )
         4           B   tau(   4) = (  0.6666670  0.3333330  0.1743000  )

     number of k points=    51  Marzari-Vanderbilt smearing, width (Ry)=  0.0050
                       cart. coord. in units 2pi/alat
        k(    1) = (   0.0000000   0.0000000   0.0000000), wk =   0.0392157
        k(    2) = (  -0.0158729   0.0274930   0.0000000), wk =   0.0392157
        k(    3) = (  -0.0317457   0.0549860   0.0000000), wk =   0.0392157
        k(    4) = (  -0.0476186   0.0824789   0.0000000), wk =   0.0392157
        k(    5) = (  -0.0634914   0.1099719   0.0000000), wk =   0.0392157
        k(    6) = (  -0.0793643   0.1374649   0.0000000), wk =   0.0392157
        k(    7) = (  -0.0952371   0.1649579   0.0000000), wk =   0.0392157
        k(    8) = (  -0.1111100   0.1924509   0.0000000), wk =   0.0392157
        k(    9) = (  -0.1269829   0.2199438   0.0000000), wk =   0.0392157
        k(   10) = (  -0.1428557   0.2474368   0.0000000), wk =   0.0392157
        k(   11) = (  -0.1587286   0.2749298   0.0000000), wk =   0.0392157
        k(   12) = (  -0.1746014   0.3024228   0.0000000), wk =   0.0392157
        k(   13) = (  -0.1904743   0.3299158   0.0000000), wk =   0.0392157
        k(   14) = (  -0.2063471   0.3574087   0.0000000), wk =   0.0392157
        k(   15) = (  -0.2222200   0.3849017   0.0000000), wk =   0.0392157
        k(   16) = (  -0.2380929   0.4123947   0.0000000), wk =   0.0392157
        k(   17) = (  -0.2539657   0.4398877   0.0000000), wk =   0.0392157
        k(   18) = (  -0.2698386   0.4673807   0.0000000), wk =   0.0392157
        k(   19) = (  -0.2857114   0.4948736   0.0000000), wk =   0.0392157
        k(   20) = (  -0.3015843   0.5223666   0.0000000), wk =   0.0392157
        k(   21) = (  -0.3174571   0.5498596   0.0000000), wk =   0.0392157
        k(   22) = (  -0.3333300   0.5773526   0.0000000), wk =   0.0392157
        k(   23) = (  -0.3030273   0.5773524   0.0000000), wk =   0.0392157
        k(   24) = (  -0.2727245   0.5773522   0.0000000), wk =   0.0392157
        k(   25) = (  -0.2424218   0.5773519   0.0000000), wk =   0.0392157
        k(   26) = (  -0.2121191   0.5773517   0.0000000), wk =   0.0392157
        k(   27) = (  -0.1818164   0.5773515   0.0000000), wk =   0.0392157
        k(   28) = (  -0.1515136   0.5773513   0.0000000), wk =   0.0392157
        k(   29) = (  -0.1212109   0.5773511   0.0000000), wk =   0.0392157
        k(   30) = (  -0.0909082   0.5773509   0.0000000), wk =   0.0392157
        k(   31) = (  -0.0606055   0.5773507   0.0000000), wk =   0.0392157
        k(   32) = (  -0.0303027   0.5773505   0.0000000), wk =   0.0392157
        k(   33) = (   0.0000000   0.5773503   0.0000000), wk =   0.0392157
        k(   34) = (   0.0000000   0.5452753   0.0000000), wk =   0.0392157
        k(   35) = (   0.0000000   0.5132002   0.0000000), wk =   0.0392157
        k(   36) = (   0.0000000   0.4811252   0.0000000), wk =   0.0392157
        k(   37) = (   0.0000000   0.4490502   0.0000000), wk =   0.0392157
        k(   38) = (   0.0000000   0.4169752   0.0000000), wk =   0.0392157
        k(   39) = (   0.0000000   0.3849002   0.0000000), wk =   0.0392157
        k(   40) = (   0.0000000   0.3528252   0.0000000), wk =   0.0392157
        k(   41) = (   0.0000000   0.3207501   0.0000000), wk =   0.0392157
        k(   42) = (   0.0000000   0.2886751   0.0000000), wk =   0.0392157
        k(   43) = (   0.0000000   0.2566001   0.0000000), wk =   0.0392157
        k(   44) = (   0.0000000   0.2245251   0.0000000), wk =   0.0392157
        k(   45) = (   0.0000000   0.1924501   0.0000000), wk =   0.0392157
        k(   46) = (   0.0000000   0.1603751   0.0000000), wk =   0.0392157
        k(   47) = (   0.0000000   0.1283001   0.0000000), wk =   0.0392157
        k(   48) = (   0.0000000   0.0962250   0.0000000), wk =   0.0392157
        k(   49) = (   0.0000000   0.0641500   0.0000000), wk =   0.0392157
        k(   50) = (   0.0000000   0.0320750   0.0000000), wk =   0.0392157
        k(   51) = (   0.0000000   0.0000000   0.0000000), wk =   0.0392157

                       cryst. coord.
        k(    1) = (   0.0000000   0.0000000   0.0000000), wk =   0.0392157
        k(    2) = (  -0.0158729   0.0317460   0.0000000), wk =   0.0392157
        k(    3) = (  -0.0317457   0.0634921   0.0000000), wk =   0.0392157
        k(    4) = (  -0.0476186   0.0952381   0.0000000), wk =   0.0392157
        k(    5) = (  -0.0634914   0.1269842   0.0000000), wk =   0.0392157
        k(    6) = (  -0.0793643   0.1587302   0.0000000), wk =   0.0392157
        k(    7) = (  -0.0952371   0.1904763   0.0000000), wk =   0.0392157
        k(    8) = (  -0.1111100   0.2222223   0.0000000), wk =   0.0392157
        k(    9) = (  -0.1269829   0.2539684   0.0000000), wk =   0.0392157
        k(   10) = (  -0.1428557   0.2857144   0.0000000), wk =   0.0392157
        k(   11) = (  -0.1587286   0.3174605   0.0000000), wk =   0.0392157
        k(   12) = (  -0.1746014   0.3492065   0.0000000), wk =   0.0392157
        k(   13) = (  -0.1904743   0.3809526   0.0000000), wk =   0.0392157
        k(   14) = (  -0.2063471   0.4126986   0.0000000), wk =   0.0392157
        k(   15) = (  -0.2222200   0.4444447   0.0000000), wk =   0.0392157
        k(   16) = (  -0.2380929   0.4761907   0.0000000), wk =   0.0392157
        k(   17) = (  -0.2539657   0.5079368   0.0000000), wk =   0.0392157
        k(   18) = (  -0.2698386   0.5396828   0.0000000), wk =   0.0392157
        k(   19) = (  -0.2857114   0.5714289   0.0000000), wk =   0.0392157
        k(   20) = (  -0.3015843   0.6031749   0.0000000), wk =   0.0392157
        k(   21) = (  -0.3174571   0.6349210   0.0000000), wk =   0.0392157
        k(   22) = (  -0.3333300   0.6666670   0.0000000), wk =   0.0392157
        k(   23) = (  -0.3030273   0.6515155   0.0000000), wk =   0.0392157
        k(   24) = (  -0.2727245   0.6363639   0.0000000), wk =   0.0392157
        k(   25) = (  -0.2424218   0.6212124   0.0000000), wk =   0.0392157
        k(   26) = (  -0.2121191   0.6060608   0.0000000), wk =   0.0392157
        k(   27) = (  -0.1818164   0.5909093   0.0000000), wk =   0.0392157
        k(   28) = (  -0.1515136   0.5757577   0.0000000), wk =   0.0392157
        k(   29) = (  -0.1212109   0.5606062   0.0000000), wk =   0.0392157
        k(   30) = (  -0.0909082   0.5454546   0.0000000), wk =   0.0392157
        k(   31) = (  -0.0606055   0.5303031   0.0000000), wk =   0.0392157
        k(   32) = (  -0.0303027   0.5151515   0.0000000), wk =   0.0392157
        k(   33) = (   0.0000000   0.5000000   0.0000000), wk =   0.0392157
        k(   34) = (   0.0000000   0.4722222   0.0000000), wk =   0.0392157
        k(   35) = (   0.0000000   0.4444444   0.0000000), wk =   0.0392157
        k(   36) = (   0.0000000   0.4166667   0.0000000), wk =   0.0392157
        k(   37) = (   0.0000000   0.3888889   0.0000000), wk =   0.0392157
        k(   38) = (   0.0000000   0.3611111   0.0000000), wk =   0.0392157
        k(   39) = (   0.0000000   0.3333333   0.0000000), wk =   0.0392157
        k(   40) = (   0.0000000   0.3055556   0.0000000), wk =   0.0392157
        k(   41) = (   0.0000000   0.2777778   0.0000000), wk =   0.0392157
        k(   42) = (   0.0000000   0.2500000   0.0000000), wk =   0.0392157
        k(   43) = (   0.0000000   0.2222222   0.0000000), wk =   0.0392157
        k(   44) = (   0.0000000   0.1944444   0.0000000), wk =   0.0392157
        k(   45) = (   0.0000000   0.1666667   0.0000000), wk =   0.0392157
        k(   46) = (   0.0000000   0.1388889   0.0000000), wk =   0.0392157
        k(   47) = (   0.0000000   0.1111111   0.0000000), wk =   0.0392157
        k(   48) = (   0.0000000   0.0833333   0.0000000), wk =   0.0392157
        k(   49) = (   0.0000000   0.0555556   0.0000000), wk =   0.0392157
        k(   50) = (   0.0000000   0.0277778   0.0000000), wk =   0.0392157
        k(   51) = (   0.0000000   0.0000000   0.0000000), wk =   0.0392157

     Dense  grid:    46381 G-vectors     FFT dimensions: (  24,  24, 192)

     Dynamical RAM for                 wfc:       0.22 MB

     Dynamical RAM for     wfc (w. buffer):       0.22 MB

     Dynamical RAM for           str. fact:       0.18 MB

     Dynamical RAM for           local pot:       0.00 MB

     Dynamical RAM for          nlocal pot:       0.35 MB

     Dynamical RAM for                qrad:       0.71 MB

     Dynamical RAM for          rho,v,vnew:       0.58 MB

     Dynamical RAM for           G-vectors:       0.38 MB

     Dynamical RAM for          h,s,v(r/c):       0.07 MB

     Dynamical RAM for          <psi|beta>:       0.01 MB

     Dynamical RAM for                 psi:       0.44 MB

     Dynamical RAM for                hpsi:       0.44 MB

     Dynamical RAM for      wfcinit/wfcrot:       0.45 MB

     Estimated static dynamical RAM per process >       3.21 MB

     Estimated max dynamical RAM per process >       4.18 MB

     Estimated total dynamical RAM >      33.43 MB

     The potential is recalculated from file :
     ./tmp/BN2L_A1B_PBE_vdW.save/charge-density



     %%%%%%%%%%%%%%%%%%%%%%%%%%%%%%%%%%%%%%%%%%%%%%%%%%%%%%%%%%%%%%%%%%%%%%%%
     %                                                                      %
     % You are using vdW-DF, which was implemented by the Thonhauser group. %
     % Please cite the following two papers that made this development      %
     % possible and the two reviews that describe the various versions:     %
     %                                                                      %
     %   T. Thonhauser et al., PRL 115, 136402 (2015).                      %
     %   T. Thonhauser et al., PRB 76, 125112 (2007).                       %
     %   K. Berland et al., Rep. Prog. Phys. 78, 066501 (2015).             %
     %   D.C. Langreth et al., J. Phys.: Condens. Matter 21, 084203 (2009). %
     %                                                                      %
     % If you are calculating stress with vdW-DF, please also cite:         %
     %                                                                      %
     %   R. Sabatini et al., J. Phys.: Condens. Matter 24, 424209 (2012).   %
     %                                                                      %
     %%%%%%%%%%%%%%%%%%%%%%%%%%%%%%%%%%%%%%%%%%%%%%%%%%%%%%%%%%%%%%%%%%%%%%%%

     %%%%%%%%%%%%%%%%%%%%%%%%%%%%%%%%%%%%%%%%%%%%%%%%%%%%%%%%%%%%%%%%%%%%%%%%
     %                                                                      %
     %  vdW-DF NEWS:                                                        %
     %                                                                      %
     %  * vdW-DF3 is now available. DOI: 10.1021/acs.jctc.0c00471           %
     %    use with input_dft = 'vdW-DF3-opt1' or 'vdW-DF3-opt2'             %
     %                                                                      %
     %  * Unscreened and range-separated hybrid vdW-DF-cx functionals       %
     %    DOI: 10.1063/1.4986522 and 10.1088/1361-648X/ac2ad2               %
     %    use with input_dft = 'vdW-DF-cx0'    and 'vdW-DF-ahcx'            %
     %  * Unscreened and range-separated hybrid vdW-DF2-b86r functionals    %
     %    DOI: 10.1063/1.4986522 and DOI: 10.1103/PhysRevX.12.041003        %
     %    use with input_dft = 'vdW-DF2-br0' and 'vdW-DF2-ahbr'             %
     %                                                                      %
     %%%%%%%%%%%%%%%%%%%%%%%%%%%%%%%%%%%%%%%%%%%%%%%%%%%%%%%%%%%%%%%%%%%%%%%%


     Carrying out vdW-DF run using the following parameters:
     Nqs    =  20  Npoints =  1024  r_max =  100.000
     q_mesh =  0.00001000  0.04494208  0.09755937  0.15916263
               0.23128650  0.31572767  0.41458969  0.53033537
               0.66584808  0.82450364  1.01025438  1.22772762
               1.48234092  1.78043706  2.12944203  2.53805004
               3.01644009  3.57652955  4.23227104  5.00000000


     -----------------------------------------------
     Non-local corr. energy    =       0.20325570 Ry
     -----------------------------------------------

     Starting wfcs are   16 randomized atomic wfcs +    4 random wfcs

     Band Structure Calculation
     Davidson diagonalization with overlap

     Computing kpt #:     1  of    51
     total cpu time spent up to now is       10.6 secs

     Computing kpt #:     2  of    51
     total cpu time spent up to now is       11.0 secs

     Computing kpt #:     3  of    51
     total cpu time spent up to now is       11.3 secs

     Computing kpt #:     4  of    51
     total cpu time spent up to now is       11.7 secs

     Computing kpt #:     5  of    51
     total cpu time spent up to now is       12.2 secs

     Computing kpt #:     6  of    51
     total cpu time spent up to now is       12.7 secs

     Computing kpt #:     7  of    51
     total cpu time spent up to now is       13.1 secs

     Computing kpt #:     8  of    51
     total cpu time spent up to now is       13.5 secs

     Computing kpt #:     9  of    51
     total cpu time spent up to now is       14.0 secs

     Computing kpt #:    10  of    51
     total cpu time spent up to now is       14.4 secs

     Computing kpt #:    11  of    51
     total cpu time spent up to now is       14.7 secs

     Computing kpt #:    12  of    51
     total cpu time spent up to now is       15.1 secs

     Computing kpt #:    13  of    51
     total cpu time spent up to now is       15.5 secs

     Computing kpt #:    14  of    51
     total cpu time spent up to now is       15.9 secs

     Computing kpt #:    15  of    51
     total cpu time spent up to now is       16.3 secs

     Computing kpt #:    16  of    51
     total cpu time spent up to now is       16.6 secs

     Computing kpt #:    17  of    51
     total cpu time spent up to now is       16.9 secs

     Computing kpt #:    18  of    51
     total cpu time spent up to now is       17.2 secs

     Computing kpt #:    19  of    51
     total cpu time spent up to now is       17.6 secs

     Computing kpt #:    20  of    51
     total cpu time spent up to now is       18.0 secs

     Computing kpt #:    21  of    51
     total cpu time spent up to now is       18.4 secs

     Computing kpt #:    22  of    51
     total cpu time spent up to now is       18.9 secs

     Computing kpt #:    23  of    51
     total cpu time spent up to now is       19.2 secs

     Computing kpt #:    24  of    51
     total cpu time spent up to now is       19.5 secs

     Computing kpt #:    25  of    51
     total cpu time spent up to now is       19.8 secs

     Computing kpt #:    26  of    51
     total cpu time spent up to now is       20.1 secs

     Computing kpt #:    27  of    51
     total cpu time spent up to now is       20.3 secs

     Computing kpt #:    28  of    51
     total cpu time spent up to now is       20.6 secs

     Computing kpt #:    29  of    51
     total cpu time spent up to now is       20.9 secs

     Computing kpt #:    30  of    51
     total cpu time spent up to now is       21.2 secs

     Computing kpt #:    31  of    51
     total cpu time spent up to now is       21.4 secs

     Computing kpt #:    32  of    51
     total cpu time spent up to now is       21.7 secs

     Computing kpt #:    33  of    51
     total cpu time spent up to now is       22.0 secs

     Computing kpt #:    34  of    51
     total cpu time spent up to now is       22.3 secs

     Computing kpt #:    35  of    51
     total cpu time spent up to now is       22.5 secs

     Computing kpt #:    36  of    51
     total cpu time spent up to now is       22.9 secs

     Computing kpt #:    37  of    51
     total cpu time spent up to now is       23.1 secs

     Computing kpt #:    38  of    51
     total cpu time spent up to now is       23.4 secs

     Computing kpt #:    39  of    51
     total cpu time spent up to now is       23.7 secs

     Computing kpt #:    40  of    51
     total cpu time spent up to now is       24.0 secs

     Computing kpt #:    41  of    51
     total cpu time spent up to now is       24.4 secs

     Computing kpt #:    42  of    51
     total cpu time spent up to now is       24.9 secs

     Computing kpt #:    43  of    51
     total cpu time spent up to now is       25.4 secs

     Computing kpt #:    44  of    51
     total cpu time spent up to now is       25.8 secs

     Computing kpt #:    45  of    51
     total cpu time spent up to now is       26.4 secs

     Computing kpt #:    46  of    51
     total cpu time spent up to now is       26.9 secs

     Computing kpt #:    47  of    51
     total cpu time spent up to now is       27.4 secs

     Computing kpt #:    48  of    51
     total cpu time spent up to now is       27.7 secs

     Computing kpt #:    49  of    51
     total cpu time spent up to now is       28.2 secs

     Computing kpt #:    50  of    51
     total cpu time spent up to now is       28.5 secs

     Computing kpt #:    51  of    51
     total cpu time spent up to now is       28.9 secs

     ethr =  6.25E-09,  avg # of iterations = 48.6

     total cpu time spent up to now is       28.9 secs

     End of band structure calculation

          k = 0.0000 0.0000 0.0000 (  5727 PWs)   bands (ev):

   -20.1325 -20.0308  -8.1278  -7.2841  -3.8496  -3.8496  -3.8395  -3.8394
     1.9785   2.5399   3.5711   4.5907   4.7062   6.4778   7.3362   9.1897
     9.1897   9.1931   9.2404   9.2404

          k =-0.0159 0.0275 0.0000 (  5747 PWs)   bands (ev):

   -20.1179 -20.0166  -8.1082  -7.2650  -3.9131  -3.9024  -3.8790  -3.8690
     2.0044   2.5635   3.5954   4.6124   4.7300   6.4946   7.3599   9.1755
     9.1822   9.2459   9.2560   9.3049

          k =-0.0317 0.0550 0.0000 (  5755 PWs)   bands (ev):

   -20.0742 -19.9734  -8.0486  -7.2080  -4.0974  -4.0832  -3.9670  -3.9564
     2.0811   2.6338   3.6680   4.6768   4.8012   6.5448   7.4295   9.1463
     9.1587   9.2581   9.4478   9.4825

          k =-0.0476 0.0825 0.0000 (  5749 PWs)   bands (ev):

   -20.0015 -19.9018  -7.9495  -7.1129  -4.3874  -4.3679  -4.1099  -4.0987
     2.2069   2.7502   3.7886   4.7812   4.9192   6.6255   7.5413   9.1184
     9.1342   9.2695   9.7134   9.7461

          k =-0.0635 0.1100 0.0000 (  5751 PWs)   bands (ev):

   -19.9006 -19.8019  -7.8107  -6.9808  -4.7635  -4.7379  -4.3054  -4.2927
     2.3796   2.9117   3.9564   4.9216   5.0831   6.7313   7.6897   9.1092
     9.1194   9.2739   9.8141  10.1196

          k =-0.0794 0.1375 0.0000 (  5752 PWs)   bands (ev):

   -19.7718 -19.6746  -7.6337  -6.8122  -5.2036  -5.1716  -4.5467  -4.5326
     2.5976   3.1171   4.1705   5.0911   5.2919   6.8525   7.8657   9.1133
     9.1275   9.2749   9.5856  10.2936

          k =-0.0952 0.1650 0.0000 (  5768 PWs)   bands (ev):

   -19.6160 -19.5208  -7.4194  -6.6088  -5.6871  -5.6492  -4.8290  -4.8132
     2.8599   3.3651   4.4297   5.2789   5.5439   6.9743   8.0431   9.0985
     9.1558   9.2881   9.3038  10.4989

          k =-0.1111 0.1925 0.0000 (  5758 PWs)   bands (ev):

   -19.4344 -19.3413  -7.1696  -6.3800  -6.1961  -6.1449  -5.1443  -5.1263
     3.1662   3.6534   4.7311   5.4646   5.8356   7.0799   8.1232   8.9922
     9.0833   9.3027   9.3894  10.7207

          k =-0.1270 0.2199 0.0000 (  5758 PWs)   bands (ev):

   -19.2284 -19.1379  -6.9006  -6.7021  -6.6821  -6.0906  -5.4865  -5.4660
     3.5162   3.9781   5.0637   5.6136   6.1575   7.1694   7.9263   9.0410
     9.1229   9.4368   9.5299  10.9579

          k =-0.1429 0.2474 0.0000 (  5786 PWs)   bands (ev):

   -19.0002 -18.9126  -7.2537  -7.1998  -6.5542  -5.8521  -5.8252  -5.7889
     3.9093   4.3299   5.3513   5.7312   6.4720   7.2899   7.5828   9.2636
     9.3063   9.6129   9.7197  11.2120

          k =-0.1587 0.2749 0.0000 (  5774 PWs)   bands (ev):

   -18.7519 -18.6676  -7.7653  -7.7094  -6.2239  -6.2182  -6.1855  -5.4637
     4.3452   4.6856   5.3206   6.0439   6.6007   7.4363   7.5057   9.5100
     9.6596   9.8227   9.9555  11.4862

          k =-0.1746 0.3024 0.0000 (  5786 PWs)   bands (ev):

   -18.4872 -18.4063  -8.2605  -8.2016  -6.6058  -6.5760  -5.8300  -5.1119
     4.8184   4.9688   5.0410   6.4311   6.5098   7.7227   7.8274   9.8407
    10.0518  10.0642  10.2335  11.7839

          k =-0.1905 0.3299 0.0000 (  5790 PWs)   bands (ev):

   -18.2099 -18.1329  -8.7286  -8.6668  -6.9892  -6.9558  -5.4310  -4.7414
     4.6381   4.9865   5.3489   6.4215   7.0406   8.1941   8.2289  10.2276
    10.2988  10.4944  10.5520  12.1083

          k =-0.2063 0.3574 0.0000 (  5808 PWs)   bands (ev):

   -17.9256 -17.8529  -9.1612  -9.0968  -7.3691  -7.3318  -5.0155  -4.3587
     4.2003   4.6863   5.9087   6.7450   7.6203   8.6820   8.7367  10.5370
    10.6358  10.9149  10.9524  12.4473

          k =-0.2222 0.3849 0.0000 (  5812 PWs)   bands (ev):

   -17.6413 -17.5730  -9.5482  -9.4818  -7.7411  -7.7002  -4.5915  -3.9718
     3.7541   4.2623   6.5079   7.2366   8.2413   9.1610   9.3198  10.7574
    11.0220  11.3295  11.4286  12.6816

          k =-0.2381 0.4124 0.0000 (  5826 PWs)   bands (ev):

   -17.3658 -17.3022  -9.8809  -9.8122  -8.1016  -8.0572  -4.1700  -3.5911
     3.3263   3.8209   7.1419   7.7942   8.8893   9.6362   9.9130  10.9645
    11.3674  11.7734  11.9104  12.5135

          k =-0.2540 0.4399 0.0000 (  5816 PWs)   bands (ev):

   -17.1094 -17.0504 -10.1477 -10.0774  -8.4460  -8.3988  -3.7648  -3.2306
     2.9391   3.4040   7.8045   8.3644   9.5085  10.0945  10.4393  11.2176
    11.6997  12.1367  12.1886  12.4838

          k =-0.2698 0.4674 0.0000 (  5810 PWs)   bands (ev):

   -16.8841 -16.8293 -10.3377 -10.2677  -8.7711  -8.7216  -3.3955  -2.9065
     2.6134   3.0339   8.4820   8.8823   9.9053  10.6553  10.7925  11.5347
    12.0745  12.0827  12.5177  12.9515

          k =-0.2857 0.4949 0.0000 (  5794 PWs)   bands (ev):

   -16.7013 -16.6502 -10.4432 -10.3751  -9.0711  -9.0206  -3.0841  -2.6358
     2.3685   2.7252   9.1319   9.2517  10.0309  11.0939  11.3880  11.5600
    12.5259  12.5554  12.7283  13.3645

          k =-0.3016 0.5224 0.0000 (  5796 PWs)   bands (ev):

   -16.5700 -16.5218 -10.4625 -10.4019  -9.3360  -9.2884  -2.8528  -2.4358
     2.2203   2.4872   9.4262   9.5607  10.2162  11.2868  11.7295  12.1716
    12.7204  12.9513  13.2200  13.6005

          k =-0.3175 0.5499 0.0000 (  5792 PWs)   bands (ev):

   -16.4939 -16.4472 -10.4127 -10.3708  -9.5394  -9.5048  -2.7156  -2.3169
     2.1736   2.3208   9.4884   9.5949  10.6816  11.1837  12.3079  12.4482
    13.0436  13.1919  13.2736  14.0141

          k =-0.3333 0.5774 0.0000 (  5814 PWs)   bands (ev):

   -16.4702 -16.4242 -10.3546 -10.3544  -9.6142  -9.6140  -2.6730  -2.2797
     2.2161   2.2165   9.5344   9.5345  11.0265  11.0267  12.3690  12.8154
    13.0112  13.0116  13.9856  13.9864

          k =-0.3030 0.5774 0.0000 (  5792 PWs)   bands (ev):

   -16.4887 -16.4422 -10.4280 -10.3842  -9.5351  -9.4985  -2.7054  -2.3088
     2.1577   2.3149   9.4966   9.6006  10.8652  11.0061  12.4338  12.5198
    12.8244  13.1911  13.5936  13.6736

          k =-0.2727 0.5774 0.0000 (  5788 PWs)   bands (ev):

   -16.5376 -16.4900 -10.5645 -10.4989  -9.2903  -9.2401  -2.7901  -2.3860
     2.1205   2.4386   9.4886   9.6742  10.7152  10.7619  12.1881  12.4010
    12.6015  12.8544  13.2402  13.3488

          k =-0.2424 0.5774 0.0000 (  5788 PWs)   bands (ev):

   -16.6063 -16.5575 -10.7157 -10.6406  -8.9539  -8.9023  -2.9064  -2.4930
     2.0899   2.5611   9.4678   9.6951  10.4772  10.6028  11.9003  12.0990
    12.3143  12.4495  12.9061  13.0257

          k =-0.2121 0.5774 0.0000 (  5796 PWs)   bands (ev):

   -16.6853 -16.6355 -10.8612 -10.7807  -8.5712  -8.5230  -3.0374  -2.6143
     2.0574   2.6646   9.3241   9.5901  10.2932  10.5159  11.5828  11.7301
    11.9086  12.2804  12.6173  12.7115

          k =-0.1818 0.5774 0.0000 (  5788 PWs)   bands (ev):

   -16.7669 -16.7158 -10.9927 -10.9087  -8.1708  -8.1273  -3.1686  -2.7376
     2.0206   2.7413   8.9934   9.3393  10.2614  10.3772  11.1864  11.3745
    11.8133  12.1249  12.3948  12.4310

          k =-0.1515 0.5774 0.0000 (  5794 PWs)   bands (ev):

   -16.8449 -16.7927 -11.1067 -11.0195  -7.7765  -7.7381  -3.2912  -2.8537
     1.9807   2.7917   8.5605   8.9683  10.1805  10.2877  10.8877  11.0681
    11.7943  11.9988  12.2030  12.2767

          k =-0.1212 0.5774 0.0000 (  5800 PWs)   bands (ev):

   -16.9143 -16.8613 -11.2011 -11.1119  -7.4097  -7.3764  -3.3985  -2.9562
     1.9407   2.8207   8.1133   8.5399   9.9957  10.2989  10.6799  10.8278
    11.7192  11.8826  12.0481  12.2676

          k =-0.0909 0.5774 0.0000 (  5794 PWs)   bands (ev):

   -16.9715 -16.9178 -11.2748 -11.1844  -7.0923  -7.0638  -3.4860  -3.0403
     1.9051   2.8348   7.7092   8.1311   9.8544  10.2774  10.5302  10.6581
    11.6178  11.7632  11.9677  12.2874

          k =-0.0606 0.5774 0.0000 (  5794 PWs)   bands (ev):

   -17.0140 -16.9599 -11.3279 -11.2366  -6.8458  -6.8212  -3.5504  -3.1022
     1.8768   2.8397   7.3893   7.8007   9.7568  10.2358  10.4263  10.5530
    11.5324  11.6653  11.9266  12.2955

          k =-0.0303 0.5774 0.0000 (  5788 PWs)   bands (ev):

   -17.0401 -16.9858 -11.3598 -11.2681  -6.6887  -6.6670  -3.5899  -3.1398
     1.8587   2.8407   7.1844   7.5878   9.6996  10.1982  10.3646  10.4981
    11.4780  11.6039  11.9050  12.2946

          k = 0.0000 0.5774 0.0000 (  5812 PWs)   bands (ev):

   -17.0491 -16.9947 -11.3704 -11.2787  -6.6353  -6.6148  -3.6035  -3.1531
     1.8522   2.8405   7.1138   7.5144   9.6807  10.1835  10.3440  10.4811
    11.4595  11.5831  11.8980  12.2930

          k = 0.0000 0.5453 0.0000 (  5818 PWs)   bands (ev):

   -17.0939 -17.0384 -11.3011 -11.2104  -6.6193  -6.5987  -3.6820  -3.2158
     1.9503   2.9251   7.0685   7.5064   9.2610   9.6498  10.5089  10.8683
    11.0903  11.6737  11.7682  12.3131

          k = 0.0000 0.5132 0.0000 (  5824 PWs)   bands (ev):

   -17.2217 -17.1631 -11.0995 -11.0114  -6.5719  -6.5510  -3.8995  -3.3939
     2.2267   3.1651   6.9199   7.4721   8.7211   8.9887   9.9107  10.7127
    11.0024  11.6844  11.9839  12.5849

          k = 0.0000 0.4811 0.0000 (  5816 PWs)   bands (ev):

   -17.4149 -17.3521 -10.7837 -10.6993  -6.4933  -6.4726  -4.2154  -3.6612
     2.6395   3.5270   6.6428   7.3658   8.2748   8.4460   9.2160  10.2532
    10.3079  11.8292  12.3735  12.8956

          k = 0.0000 0.4491 0.0000 (  5808 PWs)   bands (ev):

   -17.6527 -17.5855 -10.3754 -10.2962  -6.3843  -6.3641  -4.5899  -3.9877
     3.1420   3.9668   6.2436   7.1037   7.9077   8.1119   8.6030   9.6345
     9.8043  11.3420  12.2761  13.0848

          k = 0.0000 0.4170 0.0000 (  5822 PWs)   bands (ev):

   -17.9165 -17.8446  -9.8970  -9.8226  -6.2471  -6.2272  -4.9912  -4.3460
     3.6904   4.4288   5.7730   6.7166   7.5161   7.9462   8.1474   9.0533
     9.3913  10.8491  11.7096  13.4298

          k = 0.0000 0.3849 0.0000 (  5814 PWs)   bands (ev):

   -18.1909 -18.1147  -9.3652  -9.2956  -6.0829  -6.0633  -5.3976  -4.7157
     4.2441   4.8116   5.2816   6.3889   7.0318   7.7844   7.8653   8.5975
     9.0696  10.3964  11.1651  13.2672

          k = 0.0000 0.3528 0.0000 (  5800 PWs)   bands (ev):

   -18.4646 -18.3843  -8.7956  -8.7307  -5.8944  -5.8751  -5.7950  -5.0820
     4.7456   4.8076   4.9117   6.3453   6.5308   7.5419   7.6112   8.3613
     8.8493  10.0046  10.6637  12.9289

          k = 0.0000 0.3208 0.0000 (  5792 PWs)   bands (ev):

   -18.7297 -18.6457  -8.2016  -8.1414  -6.1739  -5.6846  -5.6660  -5.4343
     4.3401   4.6859   5.1565   6.0666   6.5403   7.3122   7.3823   8.3020
     8.7116   9.6930  10.2162  12.5855

          k = 0.0000 0.2887 0.0000 (  5802 PWs)   bands (ev):

   -18.9801 -18.8928  -7.5956  -7.5398  -6.5267  -5.7657  -5.4582  -5.4406
     3.9153   4.3468   5.3056   5.7216   6.4725   7.1900   7.4970   8.3057
     8.6339   9.4785   9.8376  12.2789

          k = 0.0000 0.2566 0.0000 (  5764 PWs)   bands (ev):

   -19.2113 -19.1211  -7.0067  -6.9378  -6.8303  -6.0695  -5.2189  -5.2024
     3.5275   3.9978   5.0758   5.5948   6.1724   7.1256   7.8722   8.3367
     8.6178   9.3620   9.5535  12.0240

          k = 0.0000 0.2245 0.0000 (  5762 PWs)   bands (ev):

   -19.4206 -19.3278  -7.1510  -6.4003  -6.3789  -6.2923  -4.9743  -4.9587
     3.1793   3.6715   4.7483   5.4608   5.8520   7.0694   8.0709   8.5061
     8.6723   9.3208   9.4059  11.6956

          k = 0.0000 0.1925 0.0000 (  5740 PWs)   bands (ev):

   -19.6054 -19.5104  -7.4051  -6.5953  -5.8107  -5.7717  -4.7304  -4.7162
     2.8723   3.3799   4.4447   5.2827   5.5582   6.9769   8.0012   8.7485
     8.8030   9.3189   9.4512  11.2970

          k = 0.0000 0.1604 0.0000 (  5732 PWs)   bands (ev):

   -19.7642 -19.6673  -7.6236  -6.8025  -5.2791  -5.2467  -4.4978  -4.4847
     2.6078   3.1281   4.1819   5.0971   5.3028   6.8578   7.8511   8.8712
     8.9539   9.3198   9.6809  10.7462

          k = 0.0000 0.1283 0.0000 (  5750 PWs)   bands (ev):

   -19.8957 -19.7972  -7.8043  -6.9745  -4.8054  -4.7789  -4.2863  -4.2740
     2.3870   2.9191   3.9641   4.9269   5.0905   6.7357   7.6887   8.9720
     9.0471   9.3084   9.9537  10.2103

          k = 0.0000 0.0962 0.0000 (  5752 PWs)   bands (ev):

   -19.9988 -19.8991  -7.9456  -7.1094  -4.4069  -4.3869  -4.1056  -4.0949
     2.2114   2.7545   3.7931   4.7848   4.9235   6.6284   7.5437   9.0555
     9.1169   9.2856   9.7756   9.8269

          k = 0.0000 0.0642 0.0000 (  5753 PWs)   bands (ev):

   -20.0729 -19.9722  -8.0470  -7.2064  -4.1044  -4.0896  -3.9669  -3.9569
     2.0832   2.6357   3.6701   4.6785   4.8031   6.5461   7.4312   9.1221
     9.1658   9.2613   9.4536   9.5051

          k = 0.0000 0.0321 0.0000 (  5747 PWs)   bands (ev):

   -20.1176 -20.0163  -8.1079  -7.2646  -3.9146  -3.9036  -3.8795  -3.8694
     2.0049   2.5639   3.5959   4.6128   4.7305   6.4949   7.3604   9.1697
     9.1879   9.2459   9.2557   9.3073

          k = 0.0000 0.0000 0.0000 (  5727 PWs)   bands (ev):

   -20.1325 -20.0308  -8.1278  -7.2841  -3.8496  -3.8496  -3.8395  -3.8394
     1.9785   2.5399   3.5711   4.5907   4.7062   6.4778   7.3362   9.1897
     9.1897   9.1931   9.2404   9.2404

     Writing all to output data dir ./tmp/BN2L_A1B_PBE_vdW.save/

     init_run     :     10.13s CPU     10.24s WALL (       1 calls)
     electrons    :     19.50s CPU     18.52s WALL (       1 calls)

     Called by init_run:
     wfcinit      :      0.00s CPU      0.00s WALL (       1 calls)
     wfcinit:atom :      0.01s CPU      0.01s WALL (      51 calls)
     wfcinit:wfcr :      0.53s CPU      0.53s WALL (      51 calls)
     potinit      :      9.75s CPU      9.85s WALL (       1 calls)
     hinit0       :      0.35s CPU      0.35s WALL (       1 calls)

     Called by electrons:
     c_bands      :     19.50s CPU     18.52s WALL (       1 calls)
     v_of_rho     :      9.75s CPU      9.85s WALL (       1 calls)
     v_h          :      0.00s CPU      0.00s WALL (       1 calls)
     v_xc         :      9.75s CPU      9.85s WALL (       1 calls)
     vdW_kernel   :      9.71s CPU      9.80s WALL (       1 calls)

     Called by c_bands:
     init_us_2    :      0.01s CPU      0.01s WALL (      51 calls)
     init_us_2:cp :      0.01s CPU      0.01s WALL (      51 calls)
     cegterg      :     18.91s CPU     17.92s WALL (     148 calls)

     Called by sum_band:

     Called by *egterg:
     cdiaghg      :      1.51s CPU      1.54s WALL (    2530 calls)
     cegterg:over :      1.95s CPU      1.53s WALL (    2479 calls)
     cegterg:upda :      1.26s CPU      1.02s WALL (    2479 calls)
     cegterg:last :      2.10s CPU      1.43s WALL (    1281 calls)
     h_psi        :     11.98s CPU     12.20s WALL (    2678 calls)
     g_psi        :      0.11s CPU      0.14s WALL (    2479 calls)

     Called by h_psi:
     h_psi:calbec :      0.90s CPU      0.91s WALL (    2678 calls)
     vloc_psi     :      9.99s CPU     10.38s WALL (    2678 calls)
     add_vuspsi   :      0.98s CPU      0.78s WALL (    2678 calls)

     General routines
     calbec       :      0.90s CPU      0.91s WALL (    2678 calls)
     fft          :      0.28s CPU      0.28s WALL (      61 calls)
     fftw         :      8.95s CPU      9.27s WALL (   50714 calls)
     davcio       :      0.00s CPU      0.01s WALL (     102 calls)

     Parallel routines

     PWSCF        :     29.86s CPU     29.08s WALL


   This run was terminated on:  17:44:50  12Apr2024            

=------------------------------------------------------------------------------=
   JOB DONE.
=------------------------------------------------------------------------------=
