
     Program PWSCF v.7.2 starts on 17Apr2024 at 19:54: 2 

     This program is part of the open-source Quantum ESPRESSO suite
     for quantum simulation of materials; please cite
         "P. Giannozzi et al., J. Phys.:Condens. Matter 21 395502 (2009);
         "P. Giannozzi et al., J. Phys.:Condens. Matter 29 465901 (2017);
         "P. Giannozzi et al., J. Chem. Phys. 152 154105 (2020);
          URL http://www.quantum-espresso.org", 
     in publications or presentations arising from this work. More details at
     http://www.quantum-espresso.org/quote

     Parallel version (MPI & OpenMP), running on       8 processor cores
     Number of MPI processes:                 8
     Threads/MPI process:                     1

     MPI processes distributed on     1 nodes
     0 MiB available memory on the printing compute node when the environment starts

     Waiting for input...
     Reading input from standard input
Warning: card &IONS ignored
Warning: card / ignored
Warning: card &CELL ignored
Warning: card CELL_DOFREE = 'Z' ignored
Warning: card / ignored

     Current dimensions of program PWSCF are:
     Max number of different atomic species (ntypx) = 10
     Max number of k-points (npk) =  40000
     Max angular momentum in pseudopotentials (lmaxx) =  4

     Atomic positions and unit cell read from directory:
     ./tmp/BN2L_A1B_PBE_vdW.save/
     Atomic positions from file used, from input discarded


     IMPORTANT: XC functional enforced from input :
     Exchange-correlation= VDW-DF2-B86R
                           (   1   4  26   0   2   0   0)
     Any further DFT definition will be discarded
     Please, verify this is what you really want


     R & G space division:  proc/nbgrp/npool/nimage =       8
     Subspace diagonalization in iterative solution of the eigenvalue problem:
     a serial algorithm will be used


     Parallelization info
     --------------------
     sticks:   dense  smooth     PW     G-vecs:    dense   smooth      PW
     Min          45      45     14                 5791     5791    1010
     Max          46      46     16                 5824     5824    1027
     Sum         367     367    121                46525    46525    8181

     Using Slab Decomposition



     bravais-lattice index     =            4
     lattice parameter (alat)  =       4.7475  a.u.
     unit-cell volume          =     741.3368 (a.u.)^3
     number of atoms/cell      =            4
     number of atomic types    =            2
     number of electrons       =        16.00
     number of Kohn-Sham states=           20
     kinetic-energy cutoff     =      60.0000  Ry
     charge density cutoff     =     240.0000  Ry
     Exchange-correlation= VDW-DF2-B86R
                           (   1   4  26   0   2   0   0)

     celldm(1)=   4.747500  celldm(2)=   0.000000  celldm(3)=   8.000000
     celldm(4)=   0.000000  celldm(5)=   0.000000  celldm(6)=   0.000000

     crystal axes: (cart. coord. in units of alat)
               a(1) = (   1.000000   0.000000   0.000000 )  
               a(2) = (  -0.500000   0.866025   0.000000 )  
               a(3) = (   0.000000   0.000000   8.000000 )  

     reciprocal axes: (cart. coord. in units 2 pi/alat)
               b(1) = (  1.000000  0.577350 -0.000000 )  
               b(2) = (  0.000000  1.154701  0.000000 )  
               b(3) = (  0.000000 -0.000000  0.125000 )  


     PseudoPot. # 1 for B  read from file:
     ../../../../Pseudo/PBE/B.upf
     MD5 check sum: 72f82fc31bc892420d0cab7e25c88ab8
     Pseudo is Norm-conserving + core correction, Zval =  3.0
     Generated using ONCVPSP code by D. R. Hamann
     Using radial grid of 1534 points,  4 beta functions with: 
                l(1) =   0
                l(2) =   0
                l(3) =   1
                l(4) =   1

     PseudoPot. # 2 for N  read from file:
     ../../../../Pseudo/PBE/N.upf
     MD5 check sum: d34365f73bb0e2ee98afc20ec3e87676
     Pseudo is Norm-conserving + core correction, Zval =  5.0
     Generated using ONCVPSP code by D. R. Hamann
     Using radial grid of 1058 points,  4 beta functions with: 
                l(1) =   0
                l(2) =   0
                l(3) =   1
                l(4) =   1

     atomic species   valence    mass     pseudopotential
        B              3.00    10.00000     B ( 1.00)
        N              5.00    14.01100     N ( 1.00)

      6 Sym. Ops. (no inversion) found


                                    s                        frac. trans.

      isym =  1     identity                                     

 cryst.   s( 1) = (     1          0          0      )
                  (     0          1          0      )
                  (     0          0          1      )

 cart.    s( 1) = (  1.0000000  0.0000000  0.0000000 )
                  (  0.0000000  1.0000000  0.0000000 )
                  (  0.0000000  0.0000000  1.0000000 )


      isym =  2     120 deg rotation - cryst. axis [0,0,1]       

 cryst.   s( 2) = (     0          1          0      )
                  (    -1         -1          0      )
                  (     0          0          1      )

 cart.    s( 2) = ( -0.5000000 -0.8660254  0.0000000 )
                  (  0.8660254 -0.5000000  0.0000000 )
                  (  0.0000000  0.0000000  1.0000000 )


      isym =  3     120 deg rotation - cryst. axis [0,0,-1]      

 cryst.   s( 3) = (    -1         -1          0      )
                  (     1          0          0      )
                  (     0          0          1      )

 cart.    s( 3) = ( -0.5000000  0.8660254  0.0000000 )
                  ( -0.8660254 -0.5000000  0.0000000 )
                  (  0.0000000  0.0000000  1.0000000 )


      isym =  4     inv. 180 deg rotation - cart. axis [1,0,0]   

 cryst.   s( 4) = (    -1          0          0      )
                  (     1          1          0      )
                  (     0          0          1      )

 cart.    s( 4) = ( -1.0000000  0.0000000  0.0000000 )
                  (  0.0000000  1.0000000  0.0000000 )
                  (  0.0000000  0.0000000  1.0000000 )


      isym =  5     inv. 180 deg rotation - cryst. axis [0,1,0]  

 cryst.   s( 5) = (     1          1          0      )
                  (     0         -1          0      )
                  (     0          0          1      )

 cart.    s( 5) = (  0.5000000  0.8660254  0.0000000 )
                  (  0.8660254 -0.5000000  0.0000000 )
                  (  0.0000000  0.0000000  1.0000000 )


      isym =  6     inv. 180 deg rotation - cryst. axis [1,1,0]  

 cryst.   s( 6) = (     0         -1          0      )
                  (    -1          0          0      )
                  (     0          0          1      )

 cart.    s( 6) = (  0.5000000 -0.8660254  0.0000000 )
                  ( -0.8660254 -0.5000000  0.0000000 )
                  (  0.0000000  0.0000000  1.0000000 )


     point group C_3v (3m)  
     there are  3 classes
     the character table:

       E     2C3   3s_v 
A_1    1.00  1.00  1.00
A_2    1.00  1.00 -1.00
E      2.00 -1.00  0.00

     the symmetry operations in each class and the name of the first element:

     E        1
          identity                                               
     2C3      2    3
          120 deg rotation - cryst. axis [0,0,1]                 
     3s_v     4    5    6
          inv. 180 deg rotation - cart. axis [1,0,0]             

   Cartesian axes

     site n.     atom                  positions (alat units)
         1           N   tau(   1) = (   0.0000000   0.0000000   0.0000000  )
         2           B   tau(   2) = (  -0.0000003   0.5773502   0.0000000  )
         3           N   tau(   3) = (   0.0000000   0.0000000   1.3955585  )
         4           B   tau(   4) = (   0.5000005   0.2886748   1.3955585  )

   Crystallographic axes

     site n.     atom                  positions (cryst. coord.)
         1           N   tau(   1) = (  0.0000000  0.0000000  0.0000000  )
         2           B   tau(   2) = (  0.3333330  0.6666666  0.0000000  )
         3           N   tau(   3) = (  0.0000000  0.0000000  0.1744448  )
         4           B   tau(   4) = (  0.6666670  0.3333330  0.1744448  )

     number of k points=    51  Marzari-Vanderbilt smearing, width (Ry)=  0.0050
                       cart. coord. in units 2pi/alat
        k(    1) = (   0.0000000   0.0000000   0.0000000), wk =   0.0392157
        k(    2) = (  -0.0158729   0.0274930   0.0000000), wk =   0.0392157
        k(    3) = (  -0.0317457   0.0549860   0.0000000), wk =   0.0392157
        k(    4) = (  -0.0476186   0.0824789   0.0000000), wk =   0.0392157
        k(    5) = (  -0.0634914   0.1099719   0.0000000), wk =   0.0392157
        k(    6) = (  -0.0793643   0.1374649   0.0000000), wk =   0.0392157
        k(    7) = (  -0.0952371   0.1649579   0.0000000), wk =   0.0392157
        k(    8) = (  -0.1111100   0.1924509   0.0000000), wk =   0.0392157
        k(    9) = (  -0.1269829   0.2199438   0.0000000), wk =   0.0392157
        k(   10) = (  -0.1428557   0.2474368   0.0000000), wk =   0.0392157
        k(   11) = (  -0.1587286   0.2749298   0.0000000), wk =   0.0392157
        k(   12) = (  -0.1746014   0.3024228   0.0000000), wk =   0.0392157
        k(   13) = (  -0.1904743   0.3299158   0.0000000), wk =   0.0392157
        k(   14) = (  -0.2063471   0.3574087   0.0000000), wk =   0.0392157
        k(   15) = (  -0.2222200   0.3849017   0.0000000), wk =   0.0392157
        k(   16) = (  -0.2380929   0.4123947   0.0000000), wk =   0.0392157
        k(   17) = (  -0.2539657   0.4398877   0.0000000), wk =   0.0392157
        k(   18) = (  -0.2698386   0.4673807   0.0000000), wk =   0.0392157
        k(   19) = (  -0.2857114   0.4948736   0.0000000), wk =   0.0392157
        k(   20) = (  -0.3015843   0.5223666   0.0000000), wk =   0.0392157
        k(   21) = (  -0.3174571   0.5498596   0.0000000), wk =   0.0392157
        k(   22) = (  -0.3333300   0.5773526   0.0000000), wk =   0.0392157
        k(   23) = (  -0.3030273   0.5773524   0.0000000), wk =   0.0392157
        k(   24) = (  -0.2727245   0.5773522   0.0000000), wk =   0.0392157
        k(   25) = (  -0.2424218   0.5773519   0.0000000), wk =   0.0392157
        k(   26) = (  -0.2121191   0.5773517   0.0000000), wk =   0.0392157
        k(   27) = (  -0.1818164   0.5773515   0.0000000), wk =   0.0392157
        k(   28) = (  -0.1515136   0.5773513   0.0000000), wk =   0.0392157
        k(   29) = (  -0.1212109   0.5773511   0.0000000), wk =   0.0392157
        k(   30) = (  -0.0909082   0.5773509   0.0000000), wk =   0.0392157
        k(   31) = (  -0.0606055   0.5773507   0.0000000), wk =   0.0392157
        k(   32) = (  -0.0303027   0.5773505   0.0000000), wk =   0.0392157
        k(   33) = (   0.0000000   0.5773503   0.0000000), wk =   0.0392157
        k(   34) = (   0.0000000   0.5452753   0.0000000), wk =   0.0392157
        k(   35) = (   0.0000000   0.5132002   0.0000000), wk =   0.0392157
        k(   36) = (   0.0000000   0.4811252   0.0000000), wk =   0.0392157
        k(   37) = (   0.0000000   0.4490502   0.0000000), wk =   0.0392157
        k(   38) = (   0.0000000   0.4169752   0.0000000), wk =   0.0392157
        k(   39) = (   0.0000000   0.3849002   0.0000000), wk =   0.0392157
        k(   40) = (   0.0000000   0.3528252   0.0000000), wk =   0.0392157
        k(   41) = (   0.0000000   0.3207501   0.0000000), wk =   0.0392157
        k(   42) = (   0.0000000   0.2886751   0.0000000), wk =   0.0392157
        k(   43) = (   0.0000000   0.2566001   0.0000000), wk =   0.0392157
        k(   44) = (   0.0000000   0.2245251   0.0000000), wk =   0.0392157
        k(   45) = (   0.0000000   0.1924501   0.0000000), wk =   0.0392157
        k(   46) = (   0.0000000   0.1603751   0.0000000), wk =   0.0392157
        k(   47) = (   0.0000000   0.1283001   0.0000000), wk =   0.0392157
        k(   48) = (   0.0000000   0.0962250   0.0000000), wk =   0.0392157
        k(   49) = (   0.0000000   0.0641500   0.0000000), wk =   0.0392157
        k(   50) = (   0.0000000   0.0320750   0.0000000), wk =   0.0392157
        k(   51) = (   0.0000000   0.0000000   0.0000000), wk =   0.0392157

                       cryst. coord.
        k(    1) = (   0.0000000   0.0000000   0.0000000), wk =   0.0392157
        k(    2) = (  -0.0158729   0.0317460   0.0000000), wk =   0.0392157
        k(    3) = (  -0.0317457   0.0634921   0.0000000), wk =   0.0392157
        k(    4) = (  -0.0476186   0.0952381   0.0000000), wk =   0.0392157
        k(    5) = (  -0.0634914   0.1269842   0.0000000), wk =   0.0392157
        k(    6) = (  -0.0793643   0.1587302   0.0000000), wk =   0.0392157
        k(    7) = (  -0.0952371   0.1904763   0.0000000), wk =   0.0392157
        k(    8) = (  -0.1111100   0.2222223   0.0000000), wk =   0.0392157
        k(    9) = (  -0.1269829   0.2539684   0.0000000), wk =   0.0392157
        k(   10) = (  -0.1428557   0.2857144   0.0000000), wk =   0.0392157
        k(   11) = (  -0.1587286   0.3174605   0.0000000), wk =   0.0392157
        k(   12) = (  -0.1746014   0.3492065   0.0000000), wk =   0.0392157
        k(   13) = (  -0.1904743   0.3809526   0.0000000), wk =   0.0392157
        k(   14) = (  -0.2063471   0.4126986   0.0000000), wk =   0.0392157
        k(   15) = (  -0.2222200   0.4444447   0.0000000), wk =   0.0392157
        k(   16) = (  -0.2380929   0.4761907   0.0000000), wk =   0.0392157
        k(   17) = (  -0.2539657   0.5079368   0.0000000), wk =   0.0392157
        k(   18) = (  -0.2698386   0.5396828   0.0000000), wk =   0.0392157
        k(   19) = (  -0.2857114   0.5714289   0.0000000), wk =   0.0392157
        k(   20) = (  -0.3015843   0.6031749   0.0000000), wk =   0.0392157
        k(   21) = (  -0.3174571   0.6349210   0.0000000), wk =   0.0392157
        k(   22) = (  -0.3333300   0.6666670   0.0000000), wk =   0.0392157
        k(   23) = (  -0.3030273   0.6515155   0.0000000), wk =   0.0392157
        k(   24) = (  -0.2727245   0.6363639   0.0000000), wk =   0.0392157
        k(   25) = (  -0.2424218   0.6212124   0.0000000), wk =   0.0392157
        k(   26) = (  -0.2121191   0.6060608   0.0000000), wk =   0.0392157
        k(   27) = (  -0.1818164   0.5909093   0.0000000), wk =   0.0392157
        k(   28) = (  -0.1515136   0.5757577   0.0000000), wk =   0.0392157
        k(   29) = (  -0.1212109   0.5606062   0.0000000), wk =   0.0392157
        k(   30) = (  -0.0909082   0.5454546   0.0000000), wk =   0.0392157
        k(   31) = (  -0.0606055   0.5303031   0.0000000), wk =   0.0392157
        k(   32) = (  -0.0303027   0.5151515   0.0000000), wk =   0.0392157
        k(   33) = (   0.0000000   0.5000000   0.0000000), wk =   0.0392157
        k(   34) = (   0.0000000   0.4722222   0.0000000), wk =   0.0392157
        k(   35) = (   0.0000000   0.4444444   0.0000000), wk =   0.0392157
        k(   36) = (   0.0000000   0.4166667   0.0000000), wk =   0.0392157
        k(   37) = (   0.0000000   0.3888889   0.0000000), wk =   0.0392157
        k(   38) = (   0.0000000   0.3611111   0.0000000), wk =   0.0392157
        k(   39) = (   0.0000000   0.3333333   0.0000000), wk =   0.0392157
        k(   40) = (   0.0000000   0.3055556   0.0000000), wk =   0.0392157
        k(   41) = (   0.0000000   0.2777778   0.0000000), wk =   0.0392157
        k(   42) = (   0.0000000   0.2500000   0.0000000), wk =   0.0392157
        k(   43) = (   0.0000000   0.2222222   0.0000000), wk =   0.0392157
        k(   44) = (   0.0000000   0.1944444   0.0000000), wk =   0.0392157
        k(   45) = (   0.0000000   0.1666667   0.0000000), wk =   0.0392157
        k(   46) = (   0.0000000   0.1388889   0.0000000), wk =   0.0392157
        k(   47) = (   0.0000000   0.1111111   0.0000000), wk =   0.0392157
        k(   48) = (   0.0000000   0.0833333   0.0000000), wk =   0.0392157
        k(   49) = (   0.0000000   0.0555556   0.0000000), wk =   0.0392157
        k(   50) = (   0.0000000   0.0277778   0.0000000), wk =   0.0392157
        k(   51) = (   0.0000000   0.0000000   0.0000000), wk =   0.0392157

     Dense  grid:    46525 G-vectors     FFT dimensions: (  24,  24, 192)

     Dynamical RAM for                 wfc:       0.22 MB

     Dynamical RAM for     wfc (w. buffer):       0.22 MB

     Dynamical RAM for           str. fact:       0.18 MB

     Dynamical RAM for           local pot:       0.00 MB

     Dynamical RAM for          nlocal pot:       0.35 MB

     Dynamical RAM for                qrad:       0.71 MB

     Dynamical RAM for          rho,v,vnew:       0.58 MB

     Dynamical RAM for           G-vectors:       0.38 MB

     Dynamical RAM for          h,s,v(r/c):       0.07 MB

     Dynamical RAM for          <psi|beta>:       0.01 MB

     Dynamical RAM for                 psi:       0.44 MB

     Dynamical RAM for                hpsi:       0.44 MB

     Dynamical RAM for      wfcinit/wfcrot:       0.45 MB

     Estimated static dynamical RAM per process >       3.22 MB

     Estimated max dynamical RAM per process >       4.19 MB

     Estimated total dynamical RAM >      33.51 MB

     The potential is recalculated from file :
     ./tmp/BN2L_A1B_PBE_vdW.save/charge-density



     %%%%%%%%%%%%%%%%%%%%%%%%%%%%%%%%%%%%%%%%%%%%%%%%%%%%%%%%%%%%%%%%%%%%%%%%
     %                                                                      %
     % You are using vdW-DF, which was implemented by the Thonhauser group. %
     % Please cite the following two papers that made this development      %
     % possible and the two reviews that describe the various versions:     %
     %                                                                      %
     %   T. Thonhauser et al., PRL 115, 136402 (2015).                      %
     %   T. Thonhauser et al., PRB 76, 125112 (2007).                       %
     %   K. Berland et al., Rep. Prog. Phys. 78, 066501 (2015).             %
     %   D.C. Langreth et al., J. Phys.: Condens. Matter 21, 084203 (2009). %
     %                                                                      %
     % If you are calculating stress with vdW-DF, please also cite:         %
     %                                                                      %
     %   R. Sabatini et al., J. Phys.: Condens. Matter 24, 424209 (2012).   %
     %                                                                      %
     %%%%%%%%%%%%%%%%%%%%%%%%%%%%%%%%%%%%%%%%%%%%%%%%%%%%%%%%%%%%%%%%%%%%%%%%

     %%%%%%%%%%%%%%%%%%%%%%%%%%%%%%%%%%%%%%%%%%%%%%%%%%%%%%%%%%%%%%%%%%%%%%%%
     %                                                                      %
     %  vdW-DF NEWS:                                                        %
     %                                                                      %
     %  * vdW-DF3 is now available. DOI: 10.1021/acs.jctc.0c00471           %
     %    use with input_dft = 'vdW-DF3-opt1' or 'vdW-DF3-opt2'             %
     %                                                                      %
     %  * Unscreened and range-separated hybrid vdW-DF-cx functionals       %
     %    DOI: 10.1063/1.4986522 and 10.1088/1361-648X/ac2ad2               %
     %    use with input_dft = 'vdW-DF-cx0'    and 'vdW-DF-ahcx'            %
     %  * Unscreened and range-separated hybrid vdW-DF2-b86r functionals    %
     %    DOI: 10.1063/1.4986522 and DOI: 10.1103/PhysRevX.12.041003        %
     %    use with input_dft = 'vdW-DF2-br0' and 'vdW-DF2-ahbr'             %
     %                                                                      %
     %%%%%%%%%%%%%%%%%%%%%%%%%%%%%%%%%%%%%%%%%%%%%%%%%%%%%%%%%%%%%%%%%%%%%%%%


     Carrying out vdW-DF run using the following parameters:
     Nqs    =  20  Npoints =  1024  r_max =  100.000
     q_mesh =  0.00001000  0.04494208  0.09755937  0.15916263
               0.23128650  0.31572767  0.41458969  0.53033537
               0.66584808  0.82450364  1.01025438  1.22772762
               1.48234092  1.78043706  2.12944203  2.53805004
               3.01644009  3.57652955  4.23227104  5.00000000


     -----------------------------------------------
     Non-local corr. energy    =       0.20345472 Ry
     -----------------------------------------------

     Starting wfcs are   16 randomized atomic wfcs +    4 random wfcs

     Band Structure Calculation
     Davidson diagonalization with overlap

     Computing kpt #:     1  of    51
     total cpu time spent up to now is        9.7 secs

     Computing kpt #:     2  of    51
     total cpu time spent up to now is       10.0 secs

     Computing kpt #:     3  of    51
     total cpu time spent up to now is       10.4 secs

     Computing kpt #:     4  of    51
     total cpu time spent up to now is       10.7 secs

     Computing kpt #:     5  of    51
     total cpu time spent up to now is       11.2 secs

     Computing kpt #:     6  of    51
     total cpu time spent up to now is       11.7 secs

     Computing kpt #:     7  of    51
     total cpu time spent up to now is       12.1 secs

     Computing kpt #:     8  of    51
     total cpu time spent up to now is       12.4 secs

     Computing kpt #:     9  of    51
     total cpu time spent up to now is       12.8 secs

     Computing kpt #:    10  of    51
     total cpu time spent up to now is       13.1 secs

     Computing kpt #:    11  of    51
     total cpu time spent up to now is       13.4 secs

     Computing kpt #:    12  of    51
     total cpu time spent up to now is       13.7 secs

     Computing kpt #:    13  of    51
     total cpu time spent up to now is       14.0 secs

     Computing kpt #:    14  of    51
     total cpu time spent up to now is       14.3 secs

     Computing kpt #:    15  of    51
     total cpu time spent up to now is       14.6 secs

     Computing kpt #:    16  of    51
     total cpu time spent up to now is       14.9 secs

     Computing kpt #:    17  of    51
     total cpu time spent up to now is       15.2 secs

     Computing kpt #:    18  of    51
     total cpu time spent up to now is       15.4 secs

     Computing kpt #:    19  of    51
     total cpu time spent up to now is       15.8 secs

     Computing kpt #:    20  of    51
     total cpu time spent up to now is       16.2 secs

     Computing kpt #:    21  of    51
     total cpu time spent up to now is       16.6 secs

     Computing kpt #:    22  of    51
     total cpu time spent up to now is       17.0 secs

     Computing kpt #:    23  of    51
     total cpu time spent up to now is       17.4 secs

     Computing kpt #:    24  of    51
     total cpu time spent up to now is       17.7 secs

     Computing kpt #:    25  of    51
     total cpu time spent up to now is       17.9 secs

     Computing kpt #:    26  of    51
     total cpu time spent up to now is       18.2 secs

     Computing kpt #:    27  of    51
     total cpu time spent up to now is       18.4 secs

     Computing kpt #:    28  of    51
     total cpu time spent up to now is       18.7 secs

     Computing kpt #:    29  of    51
     total cpu time spent up to now is       18.9 secs

     Computing kpt #:    30  of    51
     total cpu time spent up to now is       19.2 secs

     Computing kpt #:    31  of    51
     total cpu time spent up to now is       19.5 secs

     Computing kpt #:    32  of    51
     total cpu time spent up to now is       19.8 secs

     Computing kpt #:    33  of    51
     total cpu time spent up to now is       20.0 secs

     Computing kpt #:    34  of    51
     total cpu time spent up to now is       20.3 secs

     Computing kpt #:    35  of    51
     total cpu time spent up to now is       20.6 secs

     Computing kpt #:    36  of    51
     total cpu time spent up to now is       20.9 secs

     Computing kpt #:    37  of    51
     total cpu time spent up to now is       21.1 secs

     Computing kpt #:    38  of    51
     total cpu time spent up to now is       21.4 secs

     Computing kpt #:    39  of    51
     total cpu time spent up to now is       21.7 secs

     Computing kpt #:    40  of    51
     total cpu time spent up to now is       22.0 secs

     Computing kpt #:    41  of    51
     total cpu time spent up to now is       22.4 secs

     Computing kpt #:    42  of    51
     total cpu time spent up to now is       22.7 secs

     Computing kpt #:    43  of    51
     total cpu time spent up to now is       23.1 secs

     Computing kpt #:    44  of    51
     total cpu time spent up to now is       23.5 secs

     Computing kpt #:    45  of    51
     total cpu time spent up to now is       23.9 secs

     Computing kpt #:    46  of    51
     total cpu time spent up to now is       24.3 secs

     Computing kpt #:    47  of    51
     total cpu time spent up to now is       24.7 secs

     Computing kpt #:    48  of    51
     total cpu time spent up to now is       25.0 secs

     Computing kpt #:    49  of    51
     total cpu time spent up to now is       25.3 secs

     Computing kpt #:    50  of    51
     total cpu time spent up to now is       25.6 secs

     Computing kpt #:    51  of    51
     total cpu time spent up to now is       25.8 secs

     ethr =  6.25E-09,  avg # of iterations = 47.3

     total cpu time spent up to now is       25.8 secs

     End of band structure calculation

          k = 0.0000 0.0000 0.0000 (  5775 PWs)   bands (ev):

   -20.1217 -20.0222  -8.1187  -7.2826  -3.8724  -3.8723  -3.8630  -3.8630
     1.9611   2.5249   3.5517   4.5595   4.6849   6.4458   7.2991   9.1299
     9.1299   9.1427   9.1816   9.1816

          k =-0.0159 0.0275 0.0000 (  5783 PWs)   bands (ev):

   -20.1074 -20.0078  -8.0984  -7.2636  -3.9368  -3.9254  -3.9024  -3.8923
     1.9868   2.5483   3.5759   4.5815   4.7086   6.4630   7.3228   9.1170
     9.1290   9.1896   9.1977   9.2455

          k =-0.0317 0.0550 0.0000 (  5783 PWs)   bands (ev):

   -20.0638 -19.9648  -8.0390  -7.2066  -4.1204  -4.1062  -3.9896  -3.9792
     2.0635   2.6185   3.6484   4.6456   4.7796   6.5130   7.3923   9.0869
     9.1021   9.2052   9.3886   9.4218

          k =-0.0476 0.0825 0.0000 (  5773 PWs)   bands (ev):

   -19.9914 -19.8933  -7.9401  -7.1120  -4.4094  -4.3902  -4.1319  -4.1206
     2.1891   2.7345   3.7686   4.7497   4.8973   6.5933   7.5039   9.0589
     9.0760   9.2175   9.6478   9.6855

          k =-0.0635 0.1100 0.0000 (  5767 PWs)   bands (ev):

   -19.8907 -19.7938  -7.8021  -6.9802  -4.7849  -4.7594  -4.3260  -4.3135
     2.3615   2.8956   3.9358   4.8893   5.0608   6.6985   7.6520   9.0493
     9.0607   9.2218   9.7368  10.0568

          k =-0.0794 0.1375 0.0000 (  5770 PWs)   bands (ev):

   -19.7624 -19.6670  -7.6256  -6.8123  -5.2239  -5.1922  -4.5663  -4.5527
     2.5790   3.1004   4.1491   5.0580   5.2690   6.8189   7.8271   9.0555
     9.0669   9.2212   9.5116  10.2285

          k =-0.0952 0.1650 0.0000 (  5772 PWs)   bands (ev):

   -19.6072 -19.5136  -7.4120  -6.6096  -5.7061  -5.6689  -4.8472  -4.8316
     2.8407   3.3475   4.4073   5.2447   5.5201   6.9399   8.0030   9.0444
     9.0887   9.2263   9.2472  10.4307

          k =-0.1111 0.1925 0.0000 (  5772 PWs)   bands (ev):

   -19.4263 -19.3349  -7.1632  -6.3826  -6.2138  -6.1626  -5.1615  -5.1438
     3.1461   3.6347   4.7073   5.4288   5.8107   7.0443   8.0775   8.9278
     9.0327   9.2457   9.3301  10.6504

          k =-0.1270 0.2199 0.0000 (  5786 PWs)   bands (ev):

   -19.2212 -19.1323  -6.8978  -6.7162  -6.6992  -6.0939  -5.5025  -5.4824
     3.4950   3.9579   5.0373   5.5766   6.1309   7.1330   7.8734   8.9862
     9.0757   9.3790   9.4689  10.8862

          k =-0.1429 0.2474 0.0000 (  5804 PWs)   bands (ev):

   -18.9939 -18.9079  -7.2683  -7.2153  -6.5506  -5.8660  -5.8400  -5.7938
     3.8869   4.3080   5.3167   5.6991   6.4421   7.2535   7.5319   9.2190
     9.2535   9.5548   9.6576  11.1397

          k =-0.1587 0.2749 0.0000 (  5802 PWs)   bands (ev):

   -18.7468 -18.6638  -7.7786  -7.7235  -6.2372  -6.2232  -6.1919  -5.4692
     4.3214   4.6610   5.2781   6.0171   6.5612   7.3966   7.4689   9.4669
     9.6051   9.7641   9.8920  11.4140

          k =-0.1746 0.3024 0.0000 (  5808 PWs)   bands (ev):

   -18.4831 -18.4036  -8.2720  -8.2137  -6.6178  -6.5886  -5.8293  -5.1189
     4.7932   4.9387   4.9981   6.3897   6.4821   7.6894   7.7896   9.7982
     9.9878  10.0119  10.1688  11.7129

          k =-0.1905 0.3299 0.0000 (  5826 PWs)   bands (ev):

   -18.2071 -18.1316  -8.7383  -8.6772  -7.0003  -6.9672  -5.4323  -4.7502
     4.5971   4.9478   5.3211   6.3874   7.0111   8.1608   8.1895  10.1847
    10.2377  10.4346  10.4861  12.0388

          k =-0.2063 0.3574 0.0000 (  5836 PWs)   bands (ev):

   -17.9242 -17.8528  -9.1689  -9.1053  -7.3791  -7.3424  -5.0186  -4.3692
     4.1614   4.6446   5.8792   6.7145   7.5888   8.6409   8.7020  10.4755
    10.5910  10.8497  10.8889  12.3802

          k =-0.2222 0.3849 0.0000 (  5854 PWs)   bands (ev):

   -17.6415 -17.5744  -9.5544  -9.4884  -7.7505  -7.7101  -4.5967  -3.9842
     3.7173   4.2208   6.4761   7.2057   8.2074   9.1182   9.2831  10.6956
    10.9735  11.2667  11.3623  12.6172

          k =-0.2381 0.4124 0.0000 (  5854 PWs)   bands (ev):

   -17.3674 -17.3051  -9.8845  -9.8168  -8.1100  -8.0663  -4.1773  -3.6053
     3.2918   3.7816   7.1078   7.7617   8.8526   9.5926   9.8737  10.9043
    11.3171  11.7113  11.8450  12.4529

          k =-0.2540 0.4399 0.0000 (  5854 PWs)   bands (ev):

   -17.1128 -17.0548 -10.1494 -10.0799  -8.4542  -8.4074  -3.7745  -3.2467
     2.9064   3.3666   7.7675   8.3298   9.4677  10.0523  10.3962  11.1609
    11.6499  12.0907  12.1230  12.4039

          k =-0.2698 0.4674 0.0000 (  5838 PWs)   bands (ev):

   -16.8889 -16.8351 -10.3376 -10.2680  -8.7792  -8.7299  -3.4068  -2.9236
     2.5824   2.9985   8.4416   8.8458   9.8625  10.6151  10.7461  11.4805
    12.0252  12.0329  12.4461  12.8753

          k =-0.2857 0.4949 0.0000 (  5832 PWs)   bands (ev):

   -16.7075 -16.6573 -10.4407 -10.3736  -9.0796  -9.0295  -3.0972  -2.6546
     2.3386   2.6914   9.0874   9.2139   9.9911  11.0448  11.3458  11.5080
    12.4747  12.5033  12.6528  13.3103

          k =-0.3016 0.5224 0.0000 (  5806 PWs)   bands (ev):

   -16.5771 -16.5298 -10.4578 -10.3975  -9.3450  -9.2976  -2.8671  -2.4553
     2.1911   2.4551   9.3885   9.5150  10.1765  11.2295  11.6858  12.1259
    12.6637  12.8869  13.1600  13.5463

          k =-0.3175 0.5499 0.0000 (  5824 PWs)   bands (ev):

   -16.5017 -16.4559 -10.4059 -10.3639  -9.5506  -9.5157  -2.7309  -2.3372
     2.1443   2.2898   9.4504   9.5538  10.6346  11.1278  12.2615  12.3995
    12.9816  13.1408  13.2169  13.9584

          k =-0.3333 0.5774 0.0000 (  5826 PWs)   bands (ev):

   -16.4781 -16.4329 -10.3460 -10.3458  -9.6265  -9.6263  -2.6882  -2.2999
     2.1863   2.1865   9.4957   9.4958  10.9740  10.9741  12.3236  12.7702
    12.9522  12.9528  13.9312  13.9325

          k =-0.3030 0.5774 0.0000 (  5824 PWs)   bands (ev):

   -16.4966 -16.4509 -10.4214 -10.3774  -9.5460  -9.5094  -2.7209  -2.3292
     2.1285   2.2840   9.4584   9.5599  10.8154  10.9533  12.3853  12.4715
    12.7703  13.1250  13.5434  13.6239

          k =-0.2727 0.5774 0.0000 (  5812 PWs)   bands (ev):

   -16.5450 -16.4983 -10.5598 -10.4946  -9.2991  -9.2491  -2.8052  -2.4058
     2.0921   2.4067   9.4490   9.6304  10.6690  10.7112  12.1381  12.3502
    12.5483  12.7850  13.1914  13.3006

          k =-0.2424 0.5774 0.0000 (  5808 PWs)   bands (ev):

   -16.6132 -16.5653 -10.7124 -10.6380  -8.9616  -8.9106  -2.9209  -2.5122
     2.0623   2.5283   9.4238   9.6471  10.4296  10.5599  11.8436  12.0488
    12.2519  12.3960  12.8584  12.9780

          k =-0.2121 0.5774 0.0000 (  5836 PWs)   bands (ev):

   -16.6919 -16.6428 -10.8589 -10.7795  -8.5790  -8.5315  -3.0511  -2.6333
     2.0305   2.6311   9.2722   9.5373  10.2504  10.4743  11.5122  11.6803
    11.8634  12.2281  12.5706  12.6649

          k =-0.1818 0.5774 0.0000 (  5824 PWs)   bands (ev):

   -16.7728 -16.7226 -10.9909 -10.9078  -8.1792  -8.1361  -3.1815  -2.7559
     1.9946   2.7076   8.9357   9.2818  10.2212  10.3342  11.1239  11.3261
    11.7673  12.0732  12.3485  12.3860

          k =-0.1515 0.5774 0.0000 (  5814 PWs)   bands (ev):

   -16.8501 -16.7989 -11.1048 -11.0191  -7.7853  -7.7472  -3.3036  -2.8713
     1.9554   2.7580   8.5000   8.9063  10.1360  10.2478  10.8357  11.0213
    11.7470  11.9469  12.1593  12.2293

          k =-0.1212 0.5774 0.0000 (  5836 PWs)   bands (ev):

   -16.9191 -16.8671 -11.1995 -11.1118  -7.4191  -7.3862  -3.4108  -2.9739
     1.9162   2.7868   8.0511   8.4746   9.9516  10.2588  10.6339  10.7824
    11.6729  11.8318  12.0034  12.2183

          k =-0.0909 0.5774 0.0000 (  5832 PWs)   bands (ev):

   -16.9759 -16.9233 -11.2734 -11.1843  -7.1022  -7.0739  -3.4980  -3.0574
     1.8808   2.8009   7.6462   8.0641   9.8111  10.2377  10.4873  10.6135
    11.5724  11.7152  11.9200  12.2371

          k =-0.0606 0.5774 0.0000 (  5820 PWs)   bands (ev):

   -17.0182 -16.9650 -11.3266 -11.2365  -6.8560  -6.8318  -3.5615  -3.1188
     1.8532   2.8065   7.3259   7.7333   9.7142  10.1967  10.3849  10.5091
    11.4876  11.6190  11.8771  12.2453

          k =-0.0303 0.5774 0.0000 (  5810 PWs)   bands (ev):

   -17.0441 -16.9907 -11.3583 -11.2680  -6.6992  -6.6779  -3.6006  -3.1563
     1.8353   2.8076   7.1210   7.5203   9.6575  10.1593  10.3240  10.4546
    11.4336  11.5584  11.8547  12.2446

          k = 0.0000 0.5774 0.0000 (  5820 PWs)   bands (ev):

   -17.0529 -16.9995 -11.3690 -11.2784  -6.6458  -6.6254  -3.6141  -3.1691
     1.8290   2.8075   7.0504   7.4469   9.6387  10.1448  10.3037  10.4378
    11.4152  11.5379  11.8475  12.2431

          k = 0.0000 0.5453 0.0000 (  5846 PWs)   bands (ev):

   -17.0975 -17.0431 -11.3002 -11.2109  -6.6298  -6.6096  -3.6923  -3.2317
     1.9265   2.8913   7.0065   7.4393   9.2199   9.6111  10.4661  10.8268
    11.0440  11.6269  11.7225  12.2648

          k = 0.0000 0.5132 0.0000 (  5846 PWs)   bands (ev):

   -17.2244 -17.1669 -11.0997 -11.0127  -6.5825  -6.5623  -3.9086  -3.4091
     2.2010   3.1301   6.8629   7.4074   8.6788   8.9501   9.8711  10.6643
    10.9616  11.6357  11.9396  12.5351

          k = 0.0000 0.4811 0.0000 (  5836 PWs)   bands (ev):

   -17.4163 -17.3547 -10.7853 -10.7022  -6.5043  -6.4838  -4.2228  -3.6752
     2.6115   3.4903   6.5936   7.3080   8.2303   8.4022   9.1779  10.2072
    10.2665  11.7829  12.3222  12.8462

          k = 0.0000 0.4491 0.0000 (  5854 PWs)   bands (ev):

   -17.6530 -17.5869 -10.3794 -10.3010  -6.3963  -6.3761  -4.5953  -4.0000
     3.1105   3.9278   6.2024   7.0586   7.8629   8.0585   8.5634   9.5971
     9.7558  11.2962  12.2292  13.0285

          k = 0.0000 0.4170 0.0000 (  5844 PWs)   bands (ev):

   -17.9152 -17.8445  -9.9026  -9.8290  -6.2595  -6.2396  -4.9944  -4.3568
     3.6564   4.3886   5.7380   6.6805   7.4776   7.8887   8.1020   9.0156
     9.3422  10.8041  11.6653  13.3706

          k = 0.0000 0.3849 0.0000 (  5834 PWs)   bands (ev):

   -18.1882 -18.1133  -9.3729  -9.3042  -6.0958  -6.0763  -5.3989  -4.7247
     4.2070   4.7728   5.2509   6.3539   6.9997   7.7350   7.8145   8.5542
     9.0186  10.3516  11.1225  13.2136

          k = 0.0000 0.3528 0.0000 (  5824 PWs)   bands (ev):

   -18.4607 -18.3818  -8.8053  -8.7412  -5.9081  -5.8889  -5.7949  -5.0893
     4.7088   4.7769   4.8800   6.3052   6.5020   7.4988   7.5675   8.3065
     8.7958   9.9593  10.6221  12.8779

          k = 0.0000 0.3208 0.0000 (  5818 PWs)   bands (ev):

   -18.7245 -18.6420  -8.2131  -8.1537  -6.1719  -5.6992  -5.6811  -5.4403
     4.3151   4.6601   5.1145   6.0397   6.4995   7.2715   7.3404   8.2413
     8.6569   9.6466  10.1751  12.5361

          k = 0.0000 0.2887 0.0000 (  5810 PWs)   bands (ev):

   -18.9738 -18.8880  -7.6089  -7.5539  -6.5230  -5.7700  -5.4734  -5.4562
     3.8922   4.3244   5.2688   5.6919   6.4417   7.1515   7.4455   8.2436
     8.5787   9.4304   9.7957  12.2300

          k = 0.0000 0.2566 0.0000 (  5786 PWs)   bands (ev):

   -19.2042 -19.1155  -7.0193  -6.9537  -6.8282  -6.0728  -5.2355  -5.2190
     3.5059   3.9774   5.0486   5.5586   6.1454   7.0881   7.8186   8.2730
     8.5613   9.3122   9.5090  11.9731

          k = 0.0000 0.2245 0.0000 (  5786 PWs)   bands (ev):

   -19.4126 -19.3215  -7.1451  -6.4107  -6.3953  -6.3025  -4.9919  -4.9765
     3.1589   3.6526   4.7242   5.4248   5.8267   7.0331   8.0237   8.4387
     8.6140   9.2700   9.3559  11.6262

          k = 0.0000 0.1925 0.0000 (  5770 PWs)   bands (ev):

   -19.5968 -19.5034  -7.3978  -6.5965  -5.8293  -5.7911  -4.7498  -4.7353
     2.8529   3.3621   4.4222   5.2483   5.5341   6.9421   7.9581   8.6876
     8.7386   9.2678   9.3916  11.2260

          k = 0.0000 0.1604 0.0000 (  5768 PWs)   bands (ev):

   -19.7550 -19.6597  -7.6156  -6.8030  -5.2996  -5.2672  -4.5182  -4.5048
     2.5891   3.1113   4.1604   5.0640   5.2798   6.8243   7.8111   8.8117
     8.8903   9.2691   9.6118  10.6803

          k = 0.0000 0.1283 0.0000 (  5780 PWs)   bands (ev):

   -19.8860 -19.7892  -7.7954  -6.9740  -4.8266  -4.8005  -4.3080  -4.2961
     2.3688   2.9029   3.9434   4.8947   5.0682   6.7031   7.6505   8.9129
     8.9851   9.2583   9.8778  10.1472

          k = 0.0000 0.0962 0.0000 (  5778 PWs)   bands (ev):

   -19.9887 -19.8907  -7.9363  -7.1085  -4.4288  -4.4093  -4.1279  -4.1172
     2.1936   2.7388   3.7730   4.7533   4.9016   6.5963   7.5062   8.9969
     9.0562   9.2354   9.7144   9.7652

          k = 0.0000 0.0642 0.0000 (  5785 PWs)   bands (ev):

   -20.0625 -19.9636  -8.0374  -7.2051  -4.1275  -4.1129  -3.9897  -3.9798
     2.0656   2.6204   3.6504   4.6474   4.7816   6.5144   7.3940   9.0638
     9.1071   9.2096   9.3941   9.4449

          k = 0.0000 0.0321 0.0000 (  5775 PWs)   bands (ev):

   -20.1070 -20.0075  -8.0980  -7.2631  -3.9378  -3.9269  -3.9023  -3.8927
     1.9874   2.5488   3.5764   4.5819   4.7091   6.4634   7.3232   9.1125
     9.1334   9.1904   9.1972   9.2481

          k = 0.0000 0.0000 0.0000 (  5775 PWs)   bands (ev):

   -20.1217 -20.0222  -8.1187  -7.2826  -3.8724  -3.8723  -3.8630  -3.8630
     1.9611   2.5249   3.5517   4.5595   4.6849   6.4458   7.2991   9.1299
     9.1299   9.1427   9.1816   9.1816

     Writing all to output data dir ./tmp/BN2L_A1B_PBE_vdW.save/

     init_run     :      9.22s CPU      9.25s WALL (       1 calls)
     electrons    :     17.65s CPU     16.49s WALL (       1 calls)

     Called by init_run:
     wfcinit      :      0.00s CPU      0.00s WALL (       1 calls)
     wfcinit:atom :      0.01s CPU      0.01s WALL (      51 calls)
     wfcinit:wfcr :      0.43s CPU      0.43s WALL (      51 calls)
     potinit      :      8.85s CPU      8.87s WALL (       1 calls)
     hinit0       :      0.34s CPU      0.34s WALL (       1 calls)

     Called by electrons:
     c_bands      :     17.65s CPU     16.49s WALL (       1 calls)
     v_of_rho     :      8.85s CPU      8.86s WALL (       1 calls)
     v_h          :      0.00s CPU      0.00s WALL (       1 calls)
     v_xc         :      8.85s CPU      8.86s WALL (       1 calls)
     vdW_kernel   :      8.81s CPU      8.82s WALL (       1 calls)

     Called by c_bands:
     init_us_2    :      0.01s CPU      0.01s WALL (      51 calls)
     init_us_2:cp :      0.01s CPU      0.01s WALL (      51 calls)
     cegterg      :     17.16s CPU     15.99s WALL (     146 calls)

     Called by sum_band:

     Called by *egterg:
     cdiaghg      :      1.45s CPU      1.46s WALL (    2461 calls)
     cegterg:over :      1.82s CPU      1.37s WALL (    2410 calls)
     cegterg:upda :      1.20s CPU      0.94s WALL (    2410 calls)
     cegterg:last :      1.97s CPU      1.30s WALL (    1275 calls)
     h_psi        :     10.53s CPU     10.63s WALL (    2607 calls)
     g_psi        :      0.10s CPU      0.14s WALL (    2410 calls)

     Called by h_psi:
     h_psi:calbec :      0.74s CPU      0.75s WALL (    2607 calls)
     vloc_psi     :      8.80s CPU      9.06s WALL (    2607 calls)
     add_vuspsi   :      0.92s CPU      0.72s WALL (    2607 calls)

     General routines
     calbec       :      0.73s CPU      0.74s WALL (    2607 calls)
     fft          :      0.28s CPU      0.28s WALL (      61 calls)
     fftw         :      7.87s CPU      8.07s WALL (   50296 calls)
     davcio       :      0.00s CPU      0.01s WALL (     102 calls)

     Parallel routines

     PWSCF        :     27.08s CPU     26.02s WALL


   This run was terminated on:  19:54:28  17Apr2024            

=------------------------------------------------------------------------------=
   JOB DONE.
=------------------------------------------------------------------------------=
