
     Program BANDS v.6.7MaX starts on 14Feb2024 at 17:22:19 

     This program is part of the open-source Quantum ESPRESSO suite
     for quantum simulation of materials; please cite
         "P. Giannozzi et al., J. Phys.:Condens. Matter 21 395502 (2009);
         "P. Giannozzi et al., J. Phys.:Condens. Matter 29 465901 (2017);
          URL http://www.quantum-espresso.org", 
     in publications or presentations arising from this work. More details at
     http://www.quantum-espresso.org/quote

     Parallel version (MPI), running on     1 processors

     MPI processes distributed on     1 nodes

     Reading xml data from directory:

     ./tmp/graphene.save/
     Message from routine read_pp_mesh:
     mesh size missing, using the one in header

     IMPORTANT: XC functional enforced from input :
     Exchange-correlation= PZ
                           (   1   1   0   0   0   0   0)
     Any further DFT definition will be discarded
     Please, verify this is what you really want


     G-vector sticks info
     --------------------
     sticks:   dense  smooth     PW     G-vecs:    dense   smooth      PW
     Sum         361     361    109                32201    32201    5621

     Reading collected, re-writing distributed wavefunctions
     high-symmetry point:  0.0000 0.0000 0.0000   x coordinate   0.0000
     high-symmetry point: -0.3333 0.5774 0.0000   x coordinate   0.6667
     high-symmetry point:  0.0000 0.5774 0.0000   x coordinate   1.0000
     high-symmetry point:  0.0000 0.0000 0.0000   x coordinate   1.5773

     Plottable bands (eV) written to file graphene_LDA.dat.gnu
     Bands written to file graphene_LDA.dat

 **************************************************************************

                    xk=(   0.00000,   0.00000,   0.00000  )

     point group D_6h(6/mmm)
     there are 12 classes
     the character table:

       E     2C6   2C3   C2    3C2'  3C2'' i     2S3   2S6   s_h   3s_d  3s_v 
A_1g   1.00  1.00  1.00  1.00  1.00  1.00  1.00  1.00  1.00  1.00  1.00  1.00
A_2g   1.00  1.00  1.00  1.00 -1.00 -1.00  1.00  1.00  1.00  1.00 -1.00 -1.00
B_1g   1.00 -1.00  1.00 -1.00  1.00 -1.00  1.00 -1.00  1.00 -1.00  1.00 -1.00
B_2g   1.00 -1.00  1.00 -1.00 -1.00  1.00  1.00 -1.00  1.00 -1.00 -1.00  1.00
E_1g   2.00  1.00 -1.00 -2.00  0.00  0.00  2.00  1.00 -1.00 -2.00  0.00  0.00
E_2g   2.00 -1.00 -1.00  2.00  0.00  0.00  2.00 -1.00 -1.00  2.00  0.00  0.00
A_1u   1.00  1.00  1.00  1.00  1.00  1.00 -1.00 -1.00 -1.00 -1.00 -1.00 -1.00
A_2u   1.00  1.00  1.00  1.00 -1.00 -1.00 -1.00 -1.00 -1.00 -1.00  1.00  1.00
B_1u   1.00 -1.00  1.00 -1.00  1.00 -1.00 -1.00  1.00 -1.00  1.00 -1.00  1.00
B_2u   1.00 -1.00  1.00 -1.00 -1.00  1.00 -1.00  1.00 -1.00  1.00  1.00 -1.00
E_1u   2.00  1.00 -1.00 -2.00  0.00  0.00 -2.00 -1.00  1.00  2.00  0.00  0.00
E_2u   2.00 -1.00 -1.00  2.00  0.00  0.00 -2.00  1.00  1.00 -2.00  0.00  0.00

     the symmetry operations in each class and the name of the first element:

     E        1
                                                                 
     2C6      5    6
                                                                 
     2C3      7    8
                                                                 
     C2       2
                                                                 
     3C2'     4   12   11
                                                                 
     3C2''    3    9   10
                                                                 
     i       13
                                                                 
     2S3     17   18
                                                                 
     2S6     19   20
                                                                 
     s_h     14
                                                                 
     3s_d    16   24   23
                                                                 
     3s_v    15   21   22
                                                                 

     Band symmetry, D_6h(6/mmm) point group:

     e(  1 -  1) =    -21.38825  eV     1   --> A_1g           
     e(  2 -  2) =     -9.68436  eV     1   --> A_2u           
     e(  3 -  4) =     -4.85990  eV     2   --> E_2g           
     e(  5 -  5) =      1.46708  eV     1   --> A_1g           
     e(  6 -  6) =      2.52863  eV     1   --> A_2u           
     e(  7 -  7) =      3.02545  eV     1   --> A_1g           
     e(  8 -  8) =      4.96721  eV     1   --> A_2u           

 **************************************************************************

 **************************************************************************

                    xk=(  -0.01587,   0.02749,   0.00000  )

     point group C_2v (mm2) 
     there are  4 classes
     the character table:

       E     C2    s_v   s_v' 
A_1    1.00  1.00  1.00  1.00
A_2    1.00  1.00 -1.00 -1.00
B_1    1.00 -1.00  1.00 -1.00
B_2    1.00 -1.00 -1.00  1.00

     the symmetry operations in each class and the name of the first element:

     E        1
                                                                 
     C2       2
                                                                 
     s_v      4
                                                                 
     s_v'     3
                                                                 

     Band symmetry, C_2v (mm2)  point group:

     e(  1 -  1) =    -21.37038  eV     1   --> A_1  D_1  S_1  
     e(  2 -  2) =     -9.66317  eV     1   --> B_1  D_3  S_3  
     e(  3 -  3) =     -4.93449  eV     1   --> B_2  D_4  S_4  
     e(  4 -  4) =     -4.90177  eV     1   --> A_1  D_1  S_1  
     e(  5 -  5) =      1.49156  eV     1   --> A_1  D_1  S_1  
     e(  6 -  6) =      2.55335  eV     1   --> B_1  D_3  S_3  
     e(  7 -  7) =      3.05056  eV     1   --> A_1  D_1  S_1  
     e(  8 -  8) =      4.99172  eV     1   --> B_1  D_3  S_3  

 **************************************************************************

 **************************************************************************

                    xk=(  -0.03174,   0.05499,   0.00000  )

     Band symmetry, C_2v (mm2)  point group:

     e(  1 -  1) =    -21.31626  eV     1   --> A_1  D_1  S_1  
     e(  2 -  2) =     -9.59708  eV     1   --> B_1  D_3  S_3  
     e(  3 -  3) =     -5.14699  eV     1   --> B_2  D_4  S_4  
     e(  4 -  4) =     -5.02302  eV     1   --> A_1  D_1  S_1  
     e(  5 -  5) =      1.56504  eV     1   --> A_1  D_1  S_1  
     e(  6 -  6) =      2.62780  eV     1   --> B_1  D_3  S_3  
     e(  7 -  7) =      3.12589  eV     1   --> A_1  D_1  S_1  
     e(  8 -  8) =      5.06565  eV     1   --> B_1  D_3  S_3  

 **************************************************************************

 **************************************************************************

                    xk=(  -0.04761,   0.08248,   0.00000  )

     Band symmetry, C_2v (mm2)  point group:

     e(  1 -  1) =    -21.22629  eV     1   --> A_1  D_1  S_1  
     e(  2 -  2) =     -9.48783  eV     1   --> B_1  D_3  S_3  
     e(  3 -  3) =     -5.47974  eV     1   --> B_2  D_4  S_4  
     e(  4 -  4) =     -5.22090  eV     1   --> A_1  D_1  S_1  
     e(  5 -  5) =      1.68755  eV     1   --> A_1  D_1  S_1  
     e(  6 -  6) =      2.75174  eV     1   --> B_1  D_3  S_3  
     e(  7 -  7) =      3.25147  eV     1   --> A_1  D_1  S_1  
     e(  8 -  8) =      5.18865  eV     1   --> B_1  D_3  S_3  

 **************************************************************************

 **************************************************************************

                    xk=(  -0.06349,   0.10998,   0.00000  )

     point group C_s (m)    
     there are  2 classes
     the character table:

       E     s    
A'     1.00  1.00
A''    1.00 -1.00

     the symmetry operations in each class and the name of the first element:

     E        1
                                                                 
     s        2
                                                                 

     Band symmetry, C_s (m)     point group:

     e(  1 -  1) =    -21.10050  eV     1   --> A'             
     e(  2 -  2) =     -9.33513  eV     1   --> A''            
     e(  3 -  3) =     -5.90728  eV     1   --> A'             
     e(  4 -  4) =     -5.48919  eV     1   --> A'             
     e(  5 -  5) =      1.85912  eV     1   --> A'             
     e(  6 -  6) =      2.92514  eV     1   --> A''            
     e(  7 -  7) =      3.42730  eV     1   --> A'             
     e(  8 -  8) =      5.36069  eV     1   --> A''            

 **************************************************************************

 **************************************************************************

                    xk=(  -0.07936,   0.13747,   0.00000  )

     Band symmetry, C_s (m)     point group:

     e(  1 -  1) =    -20.93906  eV     1   --> A'             
     e(  2 -  2) =     -9.13987  eV     1   --> A''            
     e(  3 -  3) =     -6.40310  eV     1   --> A'             
     e(  4 -  4) =     -5.82037  eV     1   --> A'             
     e(  5 -  5) =      2.07978  eV     1   --> A'             
     e(  6 -  6) =      3.14778  eV     1   --> A''            
     e(  7 -  7) =      3.65343  eV     1   --> A'             
     e(  8 -  8) =      5.58145  eV     1   --> A''            

 **************************************************************************

 **************************************************************************

                    xk=(  -0.09523,   0.16496,   0.00000  )

     Band symmetry, C_s (m)     point group:

     e(  1 -  1) =    -20.74203  eV     1   --> A'             
     e(  2 -  2) =     -8.90208  eV     1   --> A''            
     e(  3 -  3) =     -6.94468  eV     1   --> A'             
     e(  4 -  4) =     -6.20418  eV     1   --> A'             
     e(  5 -  5) =      2.34950  eV     1   --> A'             
     e(  6 -  6) =      3.41951  eV     1   --> A''            
     e(  7 -  7) =      3.92987  eV     1   --> A'             
     e(  8 -  8) =      5.85069  eV     1   --> A''            

 **************************************************************************

 **************************************************************************

                    xk=(  -0.11110,   0.19246,   0.00000  )

     Band symmetry, C_s (m)     point group:

     e(  1 -  1) =    -20.50964  eV     1   --> A'             
     e(  2 -  2) =     -8.62247  eV     1   --> A''            
     e(  3 -  3) =     -7.51436  eV     1   --> A'             
     e(  4 -  4) =     -6.63139  eV     1   --> A'             
     e(  5 -  5) =      2.66823  eV     1   --> A'             
     e(  6 -  6) =      3.74002  eV     1   --> A''            
     e(  7 -  7) =      4.25662  eV     1   --> A'             
     e(  8 -  8) =      6.16791  eV     1   --> A''            

 **************************************************************************

 **************************************************************************

                    xk=(  -0.12697,   0.21995,   0.00000  )

     Band symmetry, C_s (m)     point group:

     e(  1 -  1) =    -20.24251  eV     1   --> A'             
     e(  2 -  2) =     -8.30321  eV     1   --> A''            
     e(  3 -  3) =     -8.09835  eV     1   --> A'             
     e(  4 -  4) =     -7.09376  eV     1   --> A'             
     e(  5 -  5) =      3.03579  eV     1   --> A'             
     e(  6 -  6) =      4.10866  eV     1   --> A''            
     e(  7 -  7) =      4.63365  eV     1   --> A'             
     e(  8 -  8) =      6.43153  eV     1   --> A''            

 **************************************************************************

 **************************************************************************

                    xk=(  -0.14284,   0.24744,   0.00000  )

     Band symmetry, C_s (m)     point group:

     e(  1 -  1) =    -19.94070  eV     1   --> A'             
     e(  2 -  2) =     -8.68549  eV     1   --> A'             
     e(  3 -  3) =     -7.94377  eV     1   --> A''            
     e(  4 -  4) =     -7.58015  eV     1   --> A'             
     e(  5 -  5) =      3.45202  eV     1   --> A'             
     e(  6 -  6) =      4.52498  eV     1   --> A''            
     e(  7 -  7) =      5.06094  eV     1   --> A'             
     e(  8 -  8) =      5.73106  eV     1   --> A''            

 **************************************************************************

 **************************************************************************

                    xk=(  -0.15871,   0.27494,   0.00000  )

     Band symmetry, C_s (m)     point group:

     e(  1 -  1) =    -19.60499  eV     1   --> A'             
     e(  2 -  2) =     -9.26842  eV     1   --> A'             
     e(  3 -  3) =     -8.08356  eV     1   --> A'             
     e(  4 -  4) =     -7.54702  eV     1   --> A''            
     e(  5 -  5) =      3.91659  eV     1   --> A'             
     e(  6 -  6) =      4.98771  eV     1   --> A''            
     e(  7 -  7) =      5.01378  eV     1   --> A''            
     e(  8 -  8) =      5.53843  eV     1   --> A'             

 **************************************************************************

 **************************************************************************

                    xk=(  -0.17459,   0.30243,   0.00000  )

     Band symmetry, C_s (m)     point group:

     e(  1 -  1) =    -19.23590  eV     1   --> A'             
     e(  2 -  2) =     -9.84062  eV     1   --> A'             
     e(  3 -  3) =     -8.59558  eV     1   --> A'             
     e(  4 -  4) =     -7.11447  eV     1   --> A''            
     e(  5 -  5) =      4.29118  eV     1   --> A''            
     e(  6 -  6) =      4.42912  eV     1   --> A'             
     e(  7 -  7) =      5.49517  eV     1   --> A''            
     e(  8 -  8) =      6.06604  eV     1   --> A'             

 **************************************************************************

 **************************************************************************

                    xk=(  -0.19046,   0.32993,   0.00000  )

     Band symmetry, C_s (m)     point group:

     e(  1 -  1) =    -18.83407  eV     1   --> A'             
     e(  2 -  2) =    -10.39674  eV     1   --> A'             
     e(  3 -  3) =     -9.10838  eV     1   --> A'             
     e(  4 -  4) =     -6.64835  eV     1   --> A''            
     e(  5 -  5) =      3.57336  eV     1   --> A''            
     e(  6 -  6) =      4.98906  eV     1   --> A'             
     e(  7 -  7) =      6.04444  eV     1   --> A''            
     e(  8 -  8) =      6.64365  eV     1   --> A'             

 **************************************************************************

 **************************************************************************

                    xk=(  -0.20633,   0.35742,   0.00000  )

     Band symmetry, C_s (m)     point group:

     e(  1 -  1) =    -18.40054  eV     1   --> A'             
     e(  2 -  2) =    -10.93499  eV     1   --> A'             
     e(  3 -  3) =     -9.61705  eV     1   --> A'             
     e(  4 -  4) =     -6.15173  eV     1   --> A''            
     e(  5 -  5) =      2.86564  eV     1   --> A''            
     e(  6 -  6) =      5.59559  eV     1   --> A'             
     e(  7 -  7) =      6.63000  eV     1   --> A''            
     e(  8 -  8) =      7.27107  eV     1   --> A'             

 **************************************************************************

 **************************************************************************

                    xk=(  -0.22220,   0.38491,   0.00000  )

     Band symmetry, C_s (m)     point group:

     e(  1 -  1) =    -17.93680  eV     1   --> A'             
     e(  2 -  2) =    -11.45124  eV     1   --> A'             
     e(  3 -  3) =    -10.11523  eV     1   --> A'             
     e(  4 -  4) =     -5.62871  eV     1   --> A''            
     e(  5 -  5) =      2.17594  eV     1   --> A''            
     e(  6 -  6) =      6.24748  eV     1   --> A'             
     e(  7 -  7) =      7.24060  eV     1   --> A''            
     e(  8 -  8) =      7.94801  eV     1   --> A'             

 **************************************************************************

 **************************************************************************

                    xk=(  -0.23807,   0.41241,   0.00000  )

     Band symmetry, C_s (m)     point group:

     e(  1 -  1) =    -17.44470  eV     1   --> A'             
     e(  2 -  2) =    -11.94386  eV     1   --> A'             
     e(  3 -  3) =    -10.59843  eV     1   --> A'             
     e(  4 -  4) =     -5.08437  eV     1   --> A''            
     e(  5 -  5) =      1.50860  eV     1   --> A''            
     e(  6 -  6) =      6.94281  eV     1   --> A'             
     e(  7 -  7) =      7.85029  eV     1   --> A''            
     e(  8 -  8) =      8.67397  eV     1   --> A'             

 **************************************************************************

 **************************************************************************

                    xk=(  -0.25394,   0.43990,   0.00000  )

     Band symmetry, C_s (m)     point group:

     e(  1 -  1) =    -16.92718  eV     1   --> A'             
     e(  2 -  2) =    -12.41189  eV     1   --> A'             
     e(  3 -  3) =    -11.06135  eV     1   --> A'             
     e(  4 -  4) =     -4.52579  eV     1   --> A''            
     e(  5 -  5) =      0.86610  eV     1   --> A''            
     e(  6 -  6) =      7.67838  eV     1   --> A'             
     e(  7 -  7) =      8.39434  eV     1   --> A''            
     e(  8 -  8) =      9.44801  eV     1   --> A'             

 **************************************************************************

 **************************************************************************

                    xk=(  -0.26981,   0.46739,   0.00000  )

     Band symmetry, C_s (m)     point group:

     e(  1 -  1) =    -16.38783  eV     1   --> A'             
     e(  2 -  2) =    -12.85355  eV     1   --> A'             
     e(  3 -  3) =    -11.49762  eV     1   --> A'             
     e(  4 -  4) =     -3.96064  eV     1   --> A''            
     e(  5 -  5) =      0.25393  eV     1   --> A''            
     e(  6 -  6) =      8.44871  eV     1   --> A'             
     e(  7 -  7) =      8.74206  eV     1   --> A''            
     e(  8 -  8) =     10.26787  eV     1   --> A'             

 **************************************************************************

 **************************************************************************

                    xk=(  -0.28569,   0.49489,   0.00000  )

     Band symmetry, C_s (m)     point group:

     e(  1 -  1) =    -15.83386  eV     1   --> A'             
     e(  2 -  2) =    -13.26791  eV     1   --> A'             
     e(  3 -  3) =    -11.90049  eV     1   --> A'             
     e(  4 -  4) =     -3.39769  eV     1   --> A''            
     e(  5 -  5) =     -0.32673  eV     1   --> A''            
     e(  6 -  6) =      8.81694  eV     1   --> A''            
     e(  7 -  7) =      9.24262  eV     1   --> A'             
     e(  8 -  8) =     11.12062  eV     1   --> A'             

 **************************************************************************

 **************************************************************************

                    xk=(  -0.30156,   0.52238,   0.00000  )

     Band symmetry, C_s (m)     point group:

     e(  1 -  1) =    -15.27913  eV     1   --> A'             
     e(  2 -  2) =    -13.65430  eV     1   --> A'             
     e(  3 -  3) =    -12.25533  eV     1   --> A'             
     e(  4 -  4) =     -2.84901  eV     1   --> A''            
     e(  5 -  5) =     -0.87199  eV     1   --> A''            
     e(  6 -  6) =      8.73899  eV     1   --> A''            
     e(  7 -  7) =     10.03533  eV     1   --> A'             
     e(  8 -  8) =     11.43498  eV     1   --> A'             

 **************************************************************************

 **************************************************************************

                    xk=(  -0.31743,   0.54988,   0.00000  )

     Band symmetry, C_s (m)     point group:

     e(  1 -  1) =    -14.75514  eV     1   --> A'             
     e(  2 -  2) =    -14.01195  eV     1   --> A'             
     e(  3 -  3) =    -12.53162  eV     1   --> A'             
     e(  4 -  4) =     -2.32861  eV     1   --> A''            
     e(  5 -  5) =     -1.38006  eV     1   --> A''            
     e(  6 -  6) =      8.64441  eV     1   --> A''            
     e(  7 -  7) =     10.76186  eV     1   --> A'             
     e(  8 -  8) =     11.36651  eV     1   --> A'             

 **************************************************************************

 **************************************************************************

                    xk=(  -0.33330,   0.57737,   0.00000  )

     Band symmetry, C_s (m)     point group:

     e(  1 -  1) =    -14.34070  eV     1   --> A'             
     e(  2 -  2) =    -14.33993  eV     1   --> A'             
     e(  3 -  3) =    -12.65254  eV     1   --> A'             
     e(  4 -  4) =     -1.85036  eV     1   --> A''            
     e(  5 -  5) =     -1.84926  eV     1   --> A''            
     e(  6 -  6) =      8.60417  eV     1   --> A''            
     e(  7 -  7) =     11.21819  eV     1   --> A'             
     e(  8 -  8) =     11.21864  eV     1   --> A'             

 **************************************************************************

 **************************************************************************

                    xk=(  -0.30300,   0.57737,   0.00000  )

     Band symmetry, C_s (m)     point group:

     e(  1 -  1) =    -14.62796  eV     1   --> A'             
     e(  2 -  2) =    -14.16706  eV     1   --> A'             
     e(  3 -  3) =    -12.50815  eV     1   --> A'             
     e(  4 -  4) =     -2.26421  eV     1   --> A''            
     e(  5 -  5) =     -1.44703  eV     1   --> A''            
     e(  6 -  6) =      8.64717  eV     1   --> A''            
     e(  7 -  7) =     11.01656  eV     1   --> A'             
     e(  8 -  8) =     11.16367  eV     1   --> A'             

 **************************************************************************

 **************************************************************************

                    xk=(  -0.27270,   0.57737,   0.00000  )

     Band symmetry, C_s (m)     point group:

     e(  1 -  1) =    -14.88808  eV     1   --> A'             
     e(  2 -  2) =    -14.21168  eV     1   --> A'             
     e(  3 -  3) =    -12.11144  eV     1   --> A'             
     e(  4 -  4) =     -2.63984  eV     1   --> A''            
     e(  5 -  5) =     -1.10562  eV     1   --> A''            
     e(  6 -  6) =      8.78034  eV     1   --> A''            
     e(  7 -  7) =     10.78314  eV     1   --> A'             
     e(  8 -  8) =     10.89926  eV     1   --> A'             

 **************************************************************************

 **************************************************************************

                    xk=(  -0.24240,   0.57736,   0.00000  )

     Band symmetry, C_s (m)     point group:

     e(  1 -  1) =    -15.12097  eV     1   --> A'             
     e(  2 -  2) =    -14.35645  eV     1   --> A'             
     e(  3 -  3) =    -11.58672  eV     1   --> A'             
     e(  4 -  4) =     -2.97745  eV     1   --> A''            
     e(  5 -  5) =     -0.82861  eV     1   --> A''            
     e(  6 -  6) =      8.99911  eV     1   --> A''            
     e(  7 -  7) =     10.40026  eV     1   --> A'             
     e(  8 -  8) =     10.53954  eV     1   --> A'             

 **************************************************************************

 **************************************************************************

                    xk=(  -0.21210,   0.57736,   0.00000  )

     Band symmetry, C_s (m)     point group:

     e(  1 -  1) =    -15.32667  eV     1   --> A'             
     e(  2 -  2) =    -14.52652  eV     1   --> A'             
     e(  3 -  3) =    -11.01754  eV     1   --> A'             
     e(  4 -  4) =     -3.27671  eV     1   --> A''            
     e(  5 -  5) =     -0.61584  eV     1   --> A''            
     e(  6 -  6) =      9.28309  eV     1   --> A''            
     e(  7 -  7) =      9.64022  eV     1   --> A'             
     e(  8 -  8) =     10.30238  eV     1   --> A'             

 **************************************************************************

 **************************************************************************

                    xk=(  -0.18180,   0.57736,   0.00000  )

     Band symmetry, C_s (m)     point group:

     e(  1 -  1) =    -15.50508  eV     1   --> A'             
     e(  2 -  2) =    -14.69196  eV     1   --> A'             
     e(  3 -  3) =    -10.44531  eV     1   --> A'             
     e(  4 -  4) =     -3.53709  eV     1   --> A''            
     e(  5 -  5) =     -0.46058  eV     1   --> A''            
     e(  6 -  6) =      8.83313  eV     1   --> A'             
     e(  7 -  7) =      9.59566  eV     1   --> A''            
     e(  8 -  8) =     10.08311  eV     1   --> A'             

 **************************************************************************

 **************************************************************************

                    xk=(  -0.15150,   0.57736,   0.00000  )

     Band symmetry, C_s (m)     point group:

     e(  1 -  1) =    -15.65629  eV     1   --> A'             
     e(  2 -  2) =    -14.84045  eV     1   --> A'             
     e(  3 -  3) =     -9.89549  eV     1   --> A'             
     e(  4 -  4) =     -3.75817  eV     1   --> A''            
     e(  5 -  5) =     -0.35286  eV     1   --> A''            
     e(  6 -  6) =      8.05589  eV     1   --> A'             
     e(  7 -  7) =      9.88806  eV     1   --> A''            
     e(  8 -  8) =      9.88948  eV     1   --> A'             

 **************************************************************************

 **************************************************************************

                    xk=(  -0.12120,   0.57736,   0.00000  )

     Band symmetry, C_s (m)     point group:

     e(  1 -  1) =    -15.78003  eV     1   --> A'             
     e(  2 -  2) =    -14.96628  eV     1   --> A'             
     e(  3 -  3) =     -9.39359  eV     1   --> A'             
     e(  4 -  4) =     -3.93992  eV     1   --> A''            
     e(  5 -  5) =     -0.28283  eV     1   --> A''            
     e(  6 -  6) =      7.35116  eV     1   --> A'             
     e(  7 -  7) =      9.72643  eV     1   --> A'             
     e(  8 -  8) =      9.83161  eV     1   --> A'             

 **************************************************************************

 **************************************************************************

                    xk=(  -0.09090,   0.57736,   0.00000  )

     zone border point and non-symmorphic group 
     symmetry decomposition not available

 **************************************************************************

 **************************************************************************

                    xk=(  -0.06060,   0.57735,   0.00000  )

     zone border point and non-symmorphic group 
     symmetry decomposition not available

 **************************************************************************

 **************************************************************************

                    xk=(  -0.03030,   0.57735,   0.00000  )

     zone border point and non-symmorphic group 
     symmetry decomposition not available

 **************************************************************************

 **************************************************************************

                    xk=(   0.00000,   0.57735,   0.00000  )

     zone border point and non-symmorphic group 
     symmetry decomposition not available

 **************************************************************************

 **************************************************************************

                    xk=(   0.00000,   0.54528,   0.00000  )

     point group C_2v (mm2) 
     there are  4 classes
     the character table:

       E     C2    s_v   s_v' 
A_1    1.00  1.00  1.00  1.00
A_2    1.00  1.00 -1.00 -1.00
B_1    1.00 -1.00  1.00 -1.00
B_2    1.00 -1.00 -1.00  1.00

     the symmetry operations in each class and the name of the first element:

     E        1
                                                                 
     C2       2
                                                                 
     s_v      3
                                                                 
     s_v'     4
                                                                 

     Band symmetry, C_2v (mm2)  point group:

     e(  1 -  1) =    -16.31990  eV     1   --> A_1  D_1  S_1  
     e(  2 -  2) =    -14.84866  eV     1   --> A_1  D_1  S_1  
     e(  3 -  3) =     -8.32786  eV     1   --> B_1  D_3  S_3  
     e(  4 -  4) =     -4.38484  eV     1   --> B_2  D_4  S_4  
     e(  5 -  5) =     -0.04824  eV     1   --> B_2  D_4  S_4  
     e(  6 -  6) =      5.92539  eV     1   --> A_1  D_1  S_1  
     e(  7 -  7) =      8.63078  eV     1   --> A_1  D_1  S_1  
     e(  8 -  8) =      9.71163  eV     1   --> B_2  D_4  S_4  

 **************************************************************************

 **************************************************************************

                    xk=(   0.00000,   0.51320,   0.00000  )

     Band symmetry, C_2v (mm2)  point group:

     e(  1 -  1) =    -16.83813  eV     1   --> A_1  D_1  S_1  
     e(  2 -  2) =    -14.24875  eV     1   --> A_1  D_1  S_1  
     e(  3 -  3) =     -8.27206  eV     1   --> B_1  D_3  S_3  
     e(  4 -  4) =     -4.70601  eV     1   --> B_2  D_4  S_4  
     e(  5 -  5) =      0.35945  eV     1   --> B_2  D_4  S_4  
     e(  6 -  6) =      5.94913  eV     1   --> A_1  D_1  S_1  
     e(  7 -  7) =      7.83348  eV     1   --> A_1  D_1  S_1  
     e(  8 -  8) =      8.92925  eV     1   --> B_2  D_4  S_4  

 **************************************************************************

 **************************************************************************

                    xk=(   0.00000,   0.48113,   0.00000  )

     Band symmetry, C_2v (mm2)  point group:

     e(  1 -  1) =    -17.36104  eV     1   --> A_1  D_1  S_1  
     e(  2 -  2) =    -13.59077  eV     1   --> A_1  D_1  S_1  
     e(  3 -  3) =     -8.17933  eV     1   --> B_1  D_3  S_3  
     e(  4 -  4) =     -5.14065  eV     1   --> B_2  D_4  S_4  
     e(  5 -  5) =      0.93787  eV     1   --> B_2  D_4  S_4  
     e(  6 -  6) =      5.98522  eV     1   --> A_1  D_1  S_1  
     e(  7 -  7) =      7.08222  eV     1   --> A_1  D_1  S_1  
     e(  8 -  8) =      8.17713  eV     1   --> B_2  D_4  S_4  

 **************************************************************************

 **************************************************************************

                    xk=(   0.00000,   0.44905,   0.00000  )

     Band symmetry, C_2v (mm2)  point group:

     e(  1 -  1) =    -17.86265  eV     1   --> A_1  D_1  S_1  
     e(  2 -  2) =    -12.90184  eV     1   --> A_1  D_1  S_1  
     e(  3 -  3) =     -8.05108  eV     1   --> B_1  D_3  S_3  
     e(  4 -  4) =     -5.62457  eV     1   --> B_2  D_4  S_4  
     e(  5 -  5) =      1.61821  eV     1   --> B_2  D_4  S_4  
     e(  6 -  6) =      6.00891  eV     1   --> A_1  D_1  S_1  
     e(  7 -  7) =      6.40315  eV     1   --> A_1  D_1  S_1  
     e(  8 -  8) =      7.46535  eV     1   --> B_2  D_4  S_4  

 **************************************************************************

 **************************************************************************

                    xk=(   0.00000,   0.41698,   0.00000  )

     Band symmetry, C_2v (mm2)  point group:

     e(  1 -  1) =    -18.33655  eV     1   --> A_1  D_1  S_1  
     e(  2 -  2) =    -12.19153  eV     1   --> A_1  D_1  S_1  
     e(  3 -  3) =     -7.88844  eV     1   --> B_1  D_3  S_3  
     e(  4 -  4) =     -6.12109  eV     1   --> B_2  D_4  S_4  
     e(  5 -  5) =      2.35888  eV     1   --> B_2  D_4  S_4  
     e(  6 -  6) =      5.64952  eV     1   --> A_1  D_1  S_1  
     e(  7 -  7) =      6.16574  eV     1   --> A_1  D_1  S_1  
     e(  8 -  8) =      6.79810  eV     1   --> B_2  D_4  S_4  

 **************************************************************************

 **************************************************************************

                    xk=(   0.00000,   0.38490,   0.00000  )

     Band symmetry, C_2v (mm2)  point group:

     e(  1 -  1) =    -18.77970  eV     1   --> A_1  D_1  S_1  
     e(  2 -  2) =    -11.46498  eV     1   --> A_1  D_1  S_1  
     e(  3 -  3) =     -7.69304  eV     1   --> B_1  D_3  S_3  
     e(  4 -  4) =     -6.60770  eV     1   --> B_2  D_4  S_4  
     e(  5 -  5) =      3.13257  eV     1   --> B_2  D_4  S_4  
     e(  6 -  6) =      5.05067  eV     1   --> A_1  D_1  S_1  
     e(  7 -  7) =      6.17885  eV     1   --> B_2  D_4  S_4  
     e(  8 -  8) =      6.22022  eV     1   --> A_1  D_1  S_1  

 **************************************************************************

 **************************************************************************

                    xk=(   0.00000,   0.35283,   0.00000  )

     Band symmetry, C_2v (mm2)  point group:

     e(  1 -  1) =    -19.18990  eV     1   --> A_1  D_1  S_1  
     e(  2 -  2) =    -10.72769  eV     1   --> A_1  D_1  S_1  
     e(  3 -  3) =     -7.46708  eV     1   --> B_1  D_3  S_3  
     e(  4 -  4) =     -7.07227  eV     1   --> B_2  D_4  S_4  
     e(  5 -  5) =      3.91600  eV     1   --> B_2  D_4  S_4  
     e(  6 -  6) =      4.48438  eV     1   --> A_1  D_1  S_1  
     e(  7 -  7) =      5.61347  eV     1   --> B_2  D_4  S_4  
     e(  8 -  8) =      6.10366  eV     1   --> A_1  D_1  S_1  

 **************************************************************************

 **************************************************************************

                    xk=(   0.00000,   0.32075,   0.00000  )

     Band symmetry, C_2v (mm2)  point group:

     e(  1 -  1) =    -19.56730  eV     1   --> A_1  D_1  S_1  
     e(  2 -  2) =     -9.98626  eV     1   --> A_1  D_1  S_1  
     e(  3 -  3) =     -7.50818  eV     1   --> B_2  D_4  S_4  
     e(  4 -  4) =     -7.21398  eV     1   --> B_1  D_3  S_3  
     e(  5 -  5) =      3.96358  eV     1   --> A_1  D_1  S_1  
     e(  6 -  6) =      4.64115  eV     1   --> B_2  D_4  S_4  
     e(  7 -  7) =      5.15492  eV     1   --> B_2  D_4  S_4  
     e(  8 -  8) =      5.58558  eV     1   --> A_1  D_1  S_1  

 **************************************************************************

 **************************************************************************

                    xk=(   0.00000,   0.28868,   0.00000  )

     Band symmetry, C_2v (mm2)  point group:

     e(  1 -  1) =    -19.91037  eV     1   --> A_1  D_1  S_1  
     e(  2 -  2) =     -9.24686  eV     1   --> A_1  D_1  S_1  
     e(  3 -  3) =     -7.91006  eV     1   --> B_2  D_4  S_4  
     e(  4 -  4) =     -6.93733  eV     1   --> B_1  D_3  S_3  
     e(  5 -  5) =      3.49081  eV     1   --> A_1  D_1  S_1  
     e(  6 -  6) =      4.54402  eV     1   --> B_2  D_4  S_4  
     e(  7 -  7) =      5.10110  eV     1   --> A_1  D_1  S_1  
     e(  8 -  8) =      5.55336  eV     1   --> B_2  D_4  S_4  

 **************************************************************************

 **************************************************************************

                    xk=(   0.00000,   0.25660,   0.00000  )

     Band symmetry, C_2v (mm2)  point group:

     e(  1 -  1) =    -20.21846  eV     1   --> A_1  D_1  S_1  
     e(  2 -  2) =     -8.51943  eV     1   --> A_1  D_1  S_1  
     e(  3 -  3) =     -8.27504  eV     1   --> B_2  D_4  S_4  
     e(  4 -  4) =     -6.64331  eV     1   --> B_1  D_3  S_3  
     e(  5 -  5) =      3.06693  eV     1   --> A_1  D_1  S_1  
     e(  6 -  6) =      4.13688  eV     1   --> B_2  D_4  S_4  
     e(  7 -  7) =      4.66605  eV     1   --> A_1  D_1  S_1  
     e(  8 -  8) =      6.25194  eV     1   --> B_2  D_4  S_4  

 **************************************************************************

 **************************************************************************

                    xk=(   0.00000,   0.22453,   0.00000  )

     Band symmetry, C_2v (mm2)  point group:

     e(  1 -  1) =    -20.49139  eV     1   --> A_1  D_1  S_1  
     e(  2 -  2) =     -8.60108  eV     1   --> B_2  D_4  S_4  
     e(  3 -  3) =     -7.81351  eV     1   --> A_1  D_1  S_1  
     e(  4 -  4) =     -6.33786  eV     1   --> B_1  D_3  S_3  
     e(  5 -  5) =      2.69237  eV     1   --> A_1  D_1  S_1  
     e(  6 -  6) =      3.76387  eV     1   --> B_2  D_4  S_4  
     e(  7 -  7) =      4.28172  eV     1   --> A_1  D_1  S_1  
     e(  8 -  8) =      6.18353  eV     1   --> B_2  D_4  S_4  

 **************************************************************************

 **************************************************************************

                    xk=(   0.00000,   0.19245,   0.00000  )

     Band symmetry, C_2v (mm2)  point group:

     e(  1 -  1) =    -20.72855  eV     1   --> A_1  D_1  S_1  
     e(  2 -  2) =     -8.88583  eV     1   --> B_2  D_4  S_4  
     e(  3 -  3) =     -7.14322  eV     1   --> A_1  D_1  S_1  
     e(  4 -  4) =     -6.03025  eV     1   --> B_1  D_3  S_3  
     e(  5 -  5) =      2.36745  eV     1   --> A_1  D_1  S_1  
     e(  6 -  6) =      3.43769  eV     1   --> B_2  D_4  S_4  
     e(  7 -  7) =      3.94846  eV     1   --> A_1  D_1  S_1  
     e(  8 -  8) =      5.86748  eV     1   --> B_2  D_4  S_4  

 **************************************************************************

 **************************************************************************

                    xk=(   0.00000,   0.16038,   0.00000  )

     Band symmetry, C_2v (mm2)  point group:

     e(  1 -  1) =    -20.92966  eV     1   --> A_1  D_1  S_1  
     e(  2 -  2) =     -9.12844  eV     1   --> B_2  D_4  S_4  
     e(  3 -  3) =     -6.52249  eV     1   --> A_1  D_1  S_1  
     e(  4 -  4) =     -5.73091  eV     1   --> B_1  D_3  S_3  
     e(  5 -  5) =      2.09236  eV     1   --> A_1  D_1  S_1  
     e(  6 -  6) =      3.16059  eV     1   --> B_2  D_4  S_4  
     e(  7 -  7) =      3.66642  eV     1   --> A_1  D_1  S_1  
     e(  8 -  8) =      5.59391  eV     1   --> B_2  D_4  S_4  

 **************************************************************************

 **************************************************************************

                    xk=(   0.00000,   0.12830,   0.00000  )

     Band symmetry, C_2v (mm2)  point group:

     e(  1 -  1) =    -21.09449  eV     1   --> A_1  D_1  S_1  
     e(  2 -  2) =     -9.32766  eV     1   --> B_2  D_4  S_4  
     e(  3 -  3) =     -5.97031  eV     1   --> A_1  D_1  S_1  
     e(  4 -  4) =     -5.45271  eV     1   --> B_1  D_3  S_3  
     e(  5 -  5) =      1.86723  eV     1   --> A_1  D_1  S_1  
     e(  6 -  6) =      2.93340  eV     1   --> B_2  D_4  S_4  
     e(  7 -  7) =      3.43565  eV     1   --> A_1  D_1  S_1  
     e(  8 -  8) =      5.36884  eV     1   --> B_2  D_4  S_4  

 **************************************************************************

 **************************************************************************

                    xk=(   0.00000,   0.09623,   0.00000  )

     Band symmetry, C_2v (mm2)  point group:

     e(  1 -  1) =    -21.22290  eV     1   --> A_1  D_1  S_1  
     e(  2 -  2) =     -9.48335  eV     1   --> B_2  D_4  S_4  
     e(  3 -  3) =     -5.50726  eV     1   --> A_1  D_1  S_1  
     e(  4 -  4) =     -5.21130  eV     1   --> B_1  D_3  S_3  
     e(  5 -  5) =      1.69214  eV     1   --> A_1  D_1  S_1  
     e(  6 -  6) =      2.75643  eV     1   --> B_2  D_4  S_4  
     e(  7 -  7) =      3.25617  eV     1   --> A_1  D_1  S_1  
     e(  8 -  8) =      5.19332  eV     1   --> B_2  D_4  S_4  

 **************************************************************************

 **************************************************************************

                    xk=(   0.00000,   0.06415,   0.00000  )

     Band symmetry, C_2v (mm2)  point group:

     e(  1 -  1) =    -21.31473  eV     1   --> A_1  D_1  S_1  
     e(  2 -  2) =     -9.59495  eV     1   --> B_2  D_4  S_4  
     e(  3 -  3) =     -5.15625  eV     1   --> A_1  D_1  S_1  
     e(  4 -  4) =     -5.02321  eV     1   --> B_1  D_3  S_3  
     e(  5 -  5) =      1.56709  eV     1   --> A_1  D_1  S_1  
     e(  6 -  6) =      2.62991  eV     1   --> B_2  D_4  S_4  
     e(  7 -  7) =      3.12798  eV     1   --> A_1  D_1  S_1  
     e(  8 -  8) =      5.06774  eV     1   --> B_2  D_4  S_4  

 **************************************************************************

 **************************************************************************

                    xk=(   0.00000,   0.03208,   0.00000  )

     Band symmetry, C_2v (mm2)  point group:

     e(  1 -  1) =    -21.36994  eV     1   --> A_1  D_1  S_1  
     e(  2 -  2) =     -9.66238  eV     1   --> B_2  D_4  S_4  
     e(  3 -  3) =     -4.93623  eV     1   --> A_1  D_1  S_1  
     e(  4 -  4) =     -4.90266  eV     1   --> B_1  D_3  S_3  
     e(  5 -  5) =      1.49207  eV     1   --> A_1  D_1  S_1  
     e(  6 -  6) =      2.55390  eV     1   --> B_2  D_4  S_4  
     e(  7 -  7) =      3.05108  eV     1   --> A_1  D_1  S_1  
     e(  8 -  8) =      4.99229  eV     1   --> B_2  D_4  S_4  

 **************************************************************************

 **************************************************************************

                    xk=(   0.00000,   0.00000,   0.00000  )

     point group D_6h(6/mmm)
     there are 12 classes
     the character table:

       E     2C6   2C3   C2    3C2'  3C2'' i     2S3   2S6   s_h   3s_d  3s_v 
A_1g   1.00  1.00  1.00  1.00  1.00  1.00  1.00  1.00  1.00  1.00  1.00  1.00
A_2g   1.00  1.00  1.00  1.00 -1.00 -1.00  1.00  1.00  1.00  1.00 -1.00 -1.00
B_1g   1.00 -1.00  1.00 -1.00  1.00 -1.00  1.00 -1.00  1.00 -1.00  1.00 -1.00
B_2g   1.00 -1.00  1.00 -1.00 -1.00  1.00  1.00 -1.00  1.00 -1.00 -1.00  1.00
E_1g   2.00  1.00 -1.00 -2.00  0.00  0.00  2.00  1.00 -1.00 -2.00  0.00  0.00
E_2g   2.00 -1.00 -1.00  2.00  0.00  0.00  2.00 -1.00 -1.00  2.00  0.00  0.00
A_1u   1.00  1.00  1.00  1.00  1.00  1.00 -1.00 -1.00 -1.00 -1.00 -1.00 -1.00
A_2u   1.00  1.00  1.00  1.00 -1.00 -1.00 -1.00 -1.00 -1.00 -1.00  1.00  1.00
B_1u   1.00 -1.00  1.00 -1.00  1.00 -1.00 -1.00  1.00 -1.00  1.00 -1.00  1.00
B_2u   1.00 -1.00  1.00 -1.00 -1.00  1.00 -1.00  1.00 -1.00  1.00  1.00 -1.00
E_1u   2.00  1.00 -1.00 -2.00  0.00  0.00 -2.00 -1.00  1.00  2.00  0.00  0.00
E_2u   2.00 -1.00 -1.00  2.00  0.00  0.00 -2.00  1.00  1.00 -2.00  0.00  0.00

     the symmetry operations in each class and the name of the first element:

     E        1
                                                                 
     2C6      5    6
                                                                 
     2C3      7    8
                                                                 
     C2       2
                                                                 
     3C2'     4   12   11
                                                                 
     3C2''    3    9   10
                                                                 
     i       13
                                                                 
     2S3     17   18
                                                                 
     2S6     19   20
                                                                 
     s_h     14
                                                                 
     3s_d    16   24   23
                                                                 
     3s_v    15   21   22
                                                                 

     Band symmetry, D_6h(6/mmm) point group:

     e(  1 -  1) =    -21.38825  eV     1   --> A_1g           
     e(  2 -  2) =     -9.68436  eV     1   --> A_2u           
     e(  3 -  4) =     -4.85990  eV     2   --> E_2g           
     e(  5 -  5) =      1.46708  eV     1   --> A_1g           
     e(  6 -  6) =      2.52863  eV     1   --> A_2u           
     e(  7 -  7) =      3.02545  eV     1   --> A_1g           
     e(  8 -  8) =      4.96721  eV     1   --> A_2u           

 **************************************************************************

     BANDS        :      3.05s CPU      2.74s WALL


   This run was terminated on:  17:22:21  14Feb2024            

=------------------------------------------------------------------------------=
   JOB DONE.
=------------------------------------------------------------------------------=
