
     Program PWSCF v.6.7MaX starts on 14Feb2024 at 17:20:21 

     This program is part of the open-source Quantum ESPRESSO suite
     for quantum simulation of materials; please cite
         "P. Giannozzi et al., J. Phys.:Condens. Matter 21 395502 (2009);
         "P. Giannozzi et al., J. Phys.:Condens. Matter 29 465901 (2017);
          URL http://www.quantum-espresso.org", 
     in publications or presentations arising from this work. More details at
     http://www.quantum-espresso.org/quote

     Parallel version (MPI), running on     1 processors

     MPI processes distributed on     1 nodes
     Waiting for input...
     Reading input from standard input

     Current dimensions of program PWSCF are:
     Max number of different atomic species (ntypx) = 10
     Max number of k-points (npk) =  40000
     Max angular momentum in pseudopotentials (lmaxx) =  3

     Atomic positions and unit cell read from directory:
     ./tmp/graphene.save/
     Atomic positions from file used, from input discarded

     Message from routine read_pp_mesh:
     mesh size missing, using the one in header

     Subspace diagonalization in iterative solution of the eigenvalue problem:
     a serial algorithm will be used


     G-vector sticks info
     --------------------
     sticks:   dense  smooth     PW     G-vecs:    dense   smooth      PW
     Sum         361     361    109                32201    32201    5621



     bravais-lattice index     =            4
     lattice parameter (alat)  =       4.6203  a.u.
     unit-cell volume          =     512.4983 (a.u.)^3
     number of atoms/cell      =            2
     number of atomic types    =            1
     number of electrons       =         8.00
     number of Kohn-Sham states=            8
     kinetic-energy cutoff     =      60.0000  Ry
     charge density cutoff     =     240.0000  Ry
     Exchange-correlation= PZ
                           (   1   1   0   0   0   0   0)

     celldm(1)=   4.620300  celldm(2)=   0.000000  celldm(3)=   6.000000
     celldm(4)=   0.000000  celldm(5)=   0.000000  celldm(6)=   0.000000

     crystal axes: (cart. coord. in units of alat)
               a(1) = (   1.000000   0.000000   0.000000 )  
               a(2) = (  -0.500000   0.866025   0.000000 )  
               a(3) = (   0.000000   0.000000   6.000000 )  

     reciprocal axes: (cart. coord. in units 2 pi/alat)
               b(1) = (  1.000000  0.577350 -0.000000 )  
               b(2) = (  0.000000  1.154701  0.000000 )  
               b(3) = (  0.000000 -0.000000  0.166667 )  


     PseudoPot. # 1 for C  read from file:
     ../../../Pseudo/LDA/C.upf
     MD5 check sum: 9ef9f0a1c6c947210c7947280cfb54e2
     Pseudo is Norm-conserving + core correction, Zval =  4.0
     Generated using ONCVPSP code by D. R. Hamann
     Using radial grid of 1230 points,  4 beta functions with: 
                l(1) =   0
                l(2) =   0
                l(3) =   1
                l(4) =   1

     atomic species   valence    mass     pseudopotential
        C              4.00    12.01100     C ( 1.00)

     24 Sym. Ops., with inversion, found (12 have fractional translation)


                                    s                        frac. trans.

      isym =  1     identity                                     

 cryst.   s( 1) = (     1          0          0      )
                  (     0          1          0      )
                  (     0          0          1      )

 cart.    s( 1) = (  1.0000000  0.0000000  0.0000000 )
                  (  0.0000000  1.0000000  0.0000000 )
                  (  0.0000000  0.0000000  1.0000000 )


      isym =  2     180 deg rotation - cart. axis [0,0,1]        

 cryst.   s( 2) = (    -1          0          0      )    f =( -0.3333333 )
                  (     0         -1          0      )       (  0.3333333 )
                  (     0          0          1      )       (  0.0000000 )

 cart.    s( 2) = ( -1.0000000  0.0000000  0.0000000 )    f =( -0.5000000 )
                  (  0.0000000 -1.0000000  0.0000000 )       (  0.2886751 )
                  (  0.0000000  0.0000000  1.0000000 )       (  0.0000000 )


      isym =  3     180 deg rotation - cart. axis [0,1,0]        

 cryst.   s( 3) = (    -1          0          0      )
                  (     1          1          0      )
                  (     0          0         -1      )

 cart.    s( 3) = ( -1.0000000  0.0000000  0.0000000 )
                  (  0.0000000  1.0000000  0.0000000 )
                  (  0.0000000  0.0000000 -1.0000000 )


      isym =  4     180 deg rotation - cart. axis [1,0,0]        

 cryst.   s( 4) = (     1          0          0      )    f =( -0.3333333 )
                  (    -1         -1          0      )       (  0.3333333 )
                  (     0          0         -1      )       (  0.0000000 )

 cart.    s( 4) = (  1.0000000  0.0000000  0.0000000 )    f =( -0.5000000 )
                  (  0.0000000 -1.0000000  0.0000000 )       (  0.2886751 )
                  (  0.0000000  0.0000000 -1.0000000 )       (  0.0000000 )


      isym =  5      60 deg rotation - cryst. axis [0,0,1]       

 cryst.   s( 5) = (     1          1          0      )    f =( -0.3333333 )
                  (    -1          0          0      )       (  0.3333333 )
                  (     0          0          1      )       (  0.0000000 )

 cart.    s( 5) = (  0.5000000 -0.8660254  0.0000000 )    f =( -0.5000000 )
                  (  0.8660254  0.5000000  0.0000000 )       (  0.2886751 )
                  (  0.0000000  0.0000000  1.0000000 )       (  0.0000000 )


      isym =  6      60 deg rotation - cryst. axis [0,0,-1]      

 cryst.   s( 6) = (     0         -1          0      )    f =( -0.3333333 )
                  (     1          1          0      )       (  0.3333333 )
                  (     0          0          1      )       (  0.0000000 )

 cart.    s( 6) = (  0.5000000  0.8660254  0.0000000 )    f =( -0.5000000 )
                  ( -0.8660254  0.5000000  0.0000000 )       (  0.2886751 )
                  (  0.0000000  0.0000000  1.0000000 )       (  0.0000000 )


      isym =  7     120 deg rotation - cryst. axis [0,0,1]       

 cryst.   s( 7) = (     0          1          0      )
                  (    -1         -1          0      )
                  (     0          0          1      )

 cart.    s( 7) = ( -0.5000000 -0.8660254  0.0000000 )
                  (  0.8660254 -0.5000000  0.0000000 )
                  (  0.0000000  0.0000000  1.0000000 )


      isym =  8     120 deg rotation - cryst. axis [0,0,-1]      

 cryst.   s( 8) = (    -1         -1          0      )
                  (     1          0          0      )
                  (     0          0          1      )

 cart.    s( 8) = ( -0.5000000  0.8660254  0.0000000 )
                  ( -0.8660254 -0.5000000  0.0000000 )
                  (  0.0000000  0.0000000  1.0000000 )


      isym =  9     180 deg rotation - cryst. axis [1,-1,0]      

 cryst.   s( 9) = (     0         -1          0      )
                  (    -1          0          0      )
                  (     0          0         -1      )

 cart.    s( 9) = (  0.5000000 -0.8660254  0.0000000 )
                  ( -0.8660254 -0.5000000  0.0000000 )
                  (  0.0000000  0.0000000 -1.0000000 )


      isym = 10     180 deg rotation - cryst. axis [2,1,0]       

 cryst.   s(10) = (     1          1          0      )
                  (     0         -1          0      )
                  (     0          0         -1      )

 cart.    s(10) = (  0.5000000  0.8660254  0.0000000 )
                  (  0.8660254 -0.5000000  0.0000000 )
                  (  0.0000000  0.0000000 -1.0000000 )


      isym = 11     180 deg rotation - cryst. axis [0,1,0]       

 cryst.   s(11) = (    -1         -1          0      )    f =( -0.3333333 )
                  (     0          1          0      )       (  0.3333333 )
                  (     0          0         -1      )       (  0.0000000 )

 cart.    s(11) = ( -0.5000000 -0.8660254  0.0000000 )    f =( -0.5000000 )
                  ( -0.8660254  0.5000000  0.0000000 )       (  0.2886751 )
                  (  0.0000000  0.0000000 -1.0000000 )       (  0.0000000 )


      isym = 12     180 deg rotation - cryst. axis [1,1,0]       

 cryst.   s(12) = (     0          1          0      )    f =( -0.3333333 )
                  (     1          0          0      )       (  0.3333333 )
                  (     0          0         -1      )       (  0.0000000 )

 cart.    s(12) = ( -0.5000000  0.8660254  0.0000000 )    f =( -0.5000000 )
                  (  0.8660254  0.5000000  0.0000000 )       (  0.2886751 )
                  (  0.0000000  0.0000000 -1.0000000 )       (  0.0000000 )


      isym = 13     inversion                                    

 cryst.   s(13) = (    -1          0          0      )    f =( -0.3333333 )
                  (     0         -1          0      )       (  0.3333333 )
                  (     0          0         -1      )       (  0.0000000 )

 cart.    s(13) = ( -1.0000000  0.0000000  0.0000000 )    f =( -0.5000000 )
                  (  0.0000000 -1.0000000  0.0000000 )       (  0.2886751 )
                  (  0.0000000  0.0000000 -1.0000000 )       (  0.0000000 )


      isym = 14     inv. 180 deg rotation - cart. axis [0,0,1]   

 cryst.   s(14) = (     1          0          0      )
                  (     0          1          0      )
                  (     0          0         -1      )

 cart.    s(14) = (  1.0000000  0.0000000  0.0000000 )
                  (  0.0000000  1.0000000  0.0000000 )
                  (  0.0000000  0.0000000 -1.0000000 )


      isym = 15     inv. 180 deg rotation - cart. axis [0,1,0]   

 cryst.   s(15) = (     1          0          0      )    f =( -0.3333333 )
                  (    -1         -1          0      )       (  0.3333333 )
                  (     0          0          1      )       (  0.0000000 )

 cart.    s(15) = (  1.0000000  0.0000000  0.0000000 )    f =( -0.5000000 )
                  (  0.0000000 -1.0000000  0.0000000 )       (  0.2886751 )
                  (  0.0000000  0.0000000  1.0000000 )       (  0.0000000 )


      isym = 16     inv. 180 deg rotation - cart. axis [1,0,0]   

 cryst.   s(16) = (    -1          0          0      )
                  (     1          1          0      )
                  (     0          0          1      )

 cart.    s(16) = ( -1.0000000  0.0000000  0.0000000 )
                  (  0.0000000  1.0000000  0.0000000 )
                  (  0.0000000  0.0000000  1.0000000 )


      isym = 17     inv.  60 deg rotation - cryst. axis [0,0,1]  

 cryst.   s(17) = (    -1         -1          0      )
                  (     1          0          0      )
                  (     0          0         -1      )

 cart.    s(17) = ( -0.5000000  0.8660254  0.0000000 )
                  ( -0.8660254 -0.5000000  0.0000000 )
                  (  0.0000000  0.0000000 -1.0000000 )


      isym = 18     inv.  60 deg rotation - cryst. axis [0,0,-1] 

 cryst.   s(18) = (     0          1          0      )
                  (    -1         -1          0      )
                  (     0          0         -1      )

 cart.    s(18) = ( -0.5000000 -0.8660254  0.0000000 )
                  (  0.8660254 -0.5000000  0.0000000 )
                  (  0.0000000  0.0000000 -1.0000000 )


      isym = 19     inv. 120 deg rotation - cryst. axis [0,0,1]  

 cryst.   s(19) = (     0         -1          0      )    f =( -0.3333333 )
                  (     1          1          0      )       (  0.3333333 )
                  (     0          0         -1      )       (  0.0000000 )

 cart.    s(19) = (  0.5000000  0.8660254  0.0000000 )    f =( -0.5000000 )
                  ( -0.8660254  0.5000000  0.0000000 )       (  0.2886751 )
                  (  0.0000000  0.0000000 -1.0000000 )       (  0.0000000 )


      isym = 20     inv. 120 deg rotation - cryst. axis [0,0,-1] 

 cryst.   s(20) = (     1          1          0      )    f =( -0.3333333 )
                  (    -1          0          0      )       (  0.3333333 )
                  (     0          0         -1      )       (  0.0000000 )

 cart.    s(20) = (  0.5000000 -0.8660254  0.0000000 )    f =( -0.5000000 )
                  (  0.8660254  0.5000000  0.0000000 )       (  0.2886751 )
                  (  0.0000000  0.0000000 -1.0000000 )       (  0.0000000 )


      isym = 21     inv. 180 deg rotation - cryst. axis [1,-1,0] 

 cryst.   s(21) = (     0          1          0      )    f =( -0.3333333 )
                  (     1          0          0      )       (  0.3333333 )
                  (     0          0          1      )       (  0.0000000 )

 cart.    s(21) = ( -0.5000000  0.8660254  0.0000000 )    f =( -0.5000000 )
                  (  0.8660254  0.5000000  0.0000000 )       (  0.2886751 )
                  (  0.0000000  0.0000000  1.0000000 )       (  0.0000000 )


      isym = 22     inv. 180 deg rotation - cryst. axis [2,1,0]  

 cryst.   s(22) = (    -1         -1          0      )    f =( -0.3333333 )
                  (     0          1          0      )       (  0.3333333 )
                  (     0          0          1      )       (  0.0000000 )

 cart.    s(22) = ( -0.5000000 -0.8660254  0.0000000 )    f =( -0.5000000 )
                  ( -0.8660254  0.5000000  0.0000000 )       (  0.2886751 )
                  (  0.0000000  0.0000000  1.0000000 )       (  0.0000000 )


      isym = 23     inv. 180 deg rotation - cryst. axis [0,1,0]  

 cryst.   s(23) = (     1          1          0      )
                  (     0         -1          0      )
                  (     0          0          1      )

 cart.    s(23) = (  0.5000000  0.8660254  0.0000000 )
                  (  0.8660254 -0.5000000  0.0000000 )
                  (  0.0000000  0.0000000  1.0000000 )


      isym = 24     inv. 180 deg rotation - cryst. axis [1,1,0]  

 cryst.   s(24) = (     0         -1          0      )
                  (    -1          0          0      )
                  (     0          0          1      )

 cart.    s(24) = (  0.5000000 -0.8660254  0.0000000 )
                  ( -0.8660254 -0.5000000  0.0000000 )
                  (  0.0000000  0.0000000  1.0000000 )


     point group D_6h(6/mmm)
     there are 12 classes
     the character table:

       E     2C6   2C3   C2    3C2'  3C2'' i     2S3   2S6   s_h   3s_d  3s_v 
A_1g   1.00  1.00  1.00  1.00  1.00  1.00  1.00  1.00  1.00  1.00  1.00  1.00
A_2g   1.00  1.00  1.00  1.00 -1.00 -1.00  1.00  1.00  1.00  1.00 -1.00 -1.00
B_1g   1.00 -1.00  1.00 -1.00  1.00 -1.00  1.00 -1.00  1.00 -1.00  1.00 -1.00
B_2g   1.00 -1.00  1.00 -1.00 -1.00  1.00  1.00 -1.00  1.00 -1.00 -1.00  1.00
E_1g   2.00  1.00 -1.00 -2.00  0.00  0.00  2.00  1.00 -1.00 -2.00  0.00  0.00
E_2g   2.00 -1.00 -1.00  2.00  0.00  0.00  2.00 -1.00 -1.00  2.00  0.00  0.00
A_1u   1.00  1.00  1.00  1.00  1.00  1.00 -1.00 -1.00 -1.00 -1.00 -1.00 -1.00
A_2u   1.00  1.00  1.00  1.00 -1.00 -1.00 -1.00 -1.00 -1.00 -1.00  1.00  1.00
B_1u   1.00 -1.00  1.00 -1.00  1.00 -1.00 -1.00  1.00 -1.00  1.00 -1.00  1.00
B_2u   1.00 -1.00  1.00 -1.00 -1.00  1.00 -1.00  1.00 -1.00  1.00  1.00 -1.00
E_1u   2.00  1.00 -1.00 -2.00  0.00  0.00 -2.00 -1.00  1.00  2.00  0.00  0.00
E_2u   2.00 -1.00 -1.00  2.00  0.00  0.00 -2.00  1.00  1.00 -2.00  0.00  0.00

     the symmetry operations in each class and the name of the first element:

     E        1
          identity                                               
     2C6      5    6
           60 deg rotation - cryst. axis [0,0,1]                 
     2C3      7    8
          120 deg rotation - cryst. axis [0,0,1]                 
     C2       2
          180 deg rotation - cart. axis [0,0,1]                  
     3C2'     4   12   11
          180 deg rotation - cart. axis [1,0,0]                  
     3C2''    3    9   10
          180 deg rotation - cart. axis [0,1,0]                  
     i       13
          inversion                                              
     2S3     17   18
          inv.  60 deg rotation - cryst. axis [0,0,1]            
     2S6     19   20
          inv. 120 deg rotation - cryst. axis [0,0,1]            
     s_h     14
          inv. 180 deg rotation - cart. axis [0,0,1]             
     3s_d    16   24   23
          inv. 180 deg rotation - cart. axis [1,0,0]             
     3s_v    15   21   22
          inv. 180 deg rotation - cart. axis [0,1,0]             

   Cartesian axes

     site n.     atom                  positions (alat units)
         1           C   tau(   1) = (   0.0000000   0.0000000   0.0000000  )
         2           C   tau(   2) = (  -0.0000000   0.5773503   0.0000000  )

   Crystallographic axes

     site n.     atom                  positions (cryst. coord.)
         1           C   tau(   1) = (  0.0000000  0.0000000  0.0000000  )
         2           C   tau(   2) = (  0.3333333  0.6666667  0.0000000  )

     number of k points=    51  Marzari-Vanderbilt smearing, width (Ry)=  0.0100
                       cart. coord. in units 2pi/alat
        k(    1) = (   0.0000000   0.0000000   0.0000000), wk =   0.0392157
        k(    2) = (  -0.0158714   0.0274938   0.0000000), wk =   0.0392157
        k(    3) = (  -0.0317429   0.0549876   0.0000000), wk =   0.0392157
        k(    4) = (  -0.0476143   0.0824814   0.0000000), wk =   0.0392157
        k(    5) = (  -0.0634857   0.1099752   0.0000000), wk =   0.0392157
        k(    6) = (  -0.0793571   0.1374690   0.0000000), wk =   0.0392157
        k(    7) = (  -0.0952286   0.1649628   0.0000000), wk =   0.0392157
        k(    8) = (  -0.1111000   0.1924566   0.0000000), wk =   0.0392157
        k(    9) = (  -0.1269714   0.2199504   0.0000000), wk =   0.0392157
        k(   10) = (  -0.1428429   0.2474442   0.0000000), wk =   0.0392157
        k(   11) = (  -0.1587143   0.2749380   0.0000000), wk =   0.0392157
        k(   12) = (  -0.1745857   0.3024319   0.0000000), wk =   0.0392157
        k(   13) = (  -0.1904571   0.3299257   0.0000000), wk =   0.0392157
        k(   14) = (  -0.2063286   0.3574195   0.0000000), wk =   0.0392157
        k(   15) = (  -0.2222000   0.3849133   0.0000000), wk =   0.0392157
        k(   16) = (  -0.2380714   0.4124071   0.0000000), wk =   0.0392157
        k(   17) = (  -0.2539429   0.4399009   0.0000000), wk =   0.0392157
        k(   18) = (  -0.2698143   0.4673947   0.0000000), wk =   0.0392157
        k(   19) = (  -0.2856857   0.4948885   0.0000000), wk =   0.0392157
        k(   20) = (  -0.3015571   0.5223823   0.0000000), wk =   0.0392157
        k(   21) = (  -0.3174286   0.5498761   0.0000000), wk =   0.0392157
        k(   22) = (  -0.3333000   0.5773699   0.0000000), wk =   0.0392157
        k(   23) = (  -0.3030000   0.5773681   0.0000000), wk =   0.0392157
        k(   24) = (  -0.2727000   0.5773663   0.0000000), wk =   0.0392157
        k(   25) = (  -0.2424000   0.5773645   0.0000000), wk =   0.0392157
        k(   26) = (  -0.2121000   0.5773628   0.0000000), wk =   0.0392157
        k(   27) = (  -0.1818000   0.5773610   0.0000000), wk =   0.0392157
        k(   28) = (  -0.1515000   0.5773592   0.0000000), wk =   0.0392157
        k(   29) = (  -0.1212000   0.5773574   0.0000000), wk =   0.0392157
        k(   30) = (  -0.0909000   0.5773556   0.0000000), wk =   0.0392157
        k(   31) = (  -0.0606000   0.5773538   0.0000000), wk =   0.0392157
        k(   32) = (  -0.0303000   0.5773521   0.0000000), wk =   0.0392157
        k(   33) = (   0.0000000   0.5773503   0.0000000), wk =   0.0392157
        k(   34) = (   0.0000000   0.5452753   0.0000000), wk =   0.0392157
        k(   35) = (   0.0000000   0.5132002   0.0000000), wk =   0.0392157
        k(   36) = (   0.0000000   0.4811252   0.0000000), wk =   0.0392157
        k(   37) = (   0.0000000   0.4490502   0.0000000), wk =   0.0392157
        k(   38) = (   0.0000000   0.4169752   0.0000000), wk =   0.0392157
        k(   39) = (   0.0000000   0.3849002   0.0000000), wk =   0.0392157
        k(   40) = (   0.0000000   0.3528252   0.0000000), wk =   0.0392157
        k(   41) = (   0.0000000   0.3207501   0.0000000), wk =   0.0392157
        k(   42) = (   0.0000000   0.2886751   0.0000000), wk =   0.0392157
        k(   43) = (   0.0000000   0.2566001   0.0000000), wk =   0.0392157
        k(   44) = (   0.0000000   0.2245251   0.0000000), wk =   0.0392157
        k(   45) = (   0.0000000   0.1924501   0.0000000), wk =   0.0392157
        k(   46) = (   0.0000000   0.1603751   0.0000000), wk =   0.0392157
        k(   47) = (   0.0000000   0.1283001   0.0000000), wk =   0.0392157
        k(   48) = (   0.0000000   0.0962250   0.0000000), wk =   0.0392157
        k(   49) = (   0.0000000   0.0641500   0.0000000), wk =   0.0392157
        k(   50) = (   0.0000000   0.0320750   0.0000000), wk =   0.0392157
        k(   51) = (   0.0000000   0.0000000   0.0000000), wk =   0.0392157

                       cryst. coord.
        k(    1) = (   0.0000000   0.0000000   0.0000000), wk =   0.0392157
        k(    2) = (  -0.0158714   0.0317460   0.0000000), wk =   0.0392157
        k(    3) = (  -0.0317429   0.0634921   0.0000000), wk =   0.0392157
        k(    4) = (  -0.0476143   0.0952381   0.0000000), wk =   0.0392157
        k(    5) = (  -0.0634857   0.1269842   0.0000000), wk =   0.0392157
        k(    6) = (  -0.0793571   0.1587302   0.0000000), wk =   0.0392157
        k(    7) = (  -0.0952286   0.1904763   0.0000000), wk =   0.0392157
        k(    8) = (  -0.1111000   0.2222223   0.0000000), wk =   0.0392157
        k(    9) = (  -0.1269714   0.2539684   0.0000000), wk =   0.0392157
        k(   10) = (  -0.1428429   0.2857144   0.0000000), wk =   0.0392157
        k(   11) = (  -0.1587143   0.3174605   0.0000000), wk =   0.0392157
        k(   12) = (  -0.1745857   0.3492065   0.0000000), wk =   0.0392157
        k(   13) = (  -0.1904571   0.3809526   0.0000000), wk =   0.0392157
        k(   14) = (  -0.2063286   0.4126986   0.0000000), wk =   0.0392157
        k(   15) = (  -0.2222000   0.4444447   0.0000000), wk =   0.0392157
        k(   16) = (  -0.2380714   0.4761907   0.0000000), wk =   0.0392157
        k(   17) = (  -0.2539429   0.5079368   0.0000000), wk =   0.0392157
        k(   18) = (  -0.2698143   0.5396828   0.0000000), wk =   0.0392157
        k(   19) = (  -0.2856857   0.5714289   0.0000000), wk =   0.0392157
        k(   20) = (  -0.3015571   0.6031749   0.0000000), wk =   0.0392157
        k(   21) = (  -0.3174286   0.6349210   0.0000000), wk =   0.0392157
        k(   22) = (  -0.3333000   0.6666670   0.0000000), wk =   0.0392157
        k(   23) = (  -0.3030000   0.6515155   0.0000000), wk =   0.0392157
        k(   24) = (  -0.2727000   0.6363639   0.0000000), wk =   0.0392157
        k(   25) = (  -0.2424000   0.6212124   0.0000000), wk =   0.0392157
        k(   26) = (  -0.2121000   0.6060608   0.0000000), wk =   0.0392157
        k(   27) = (  -0.1818000   0.5909093   0.0000000), wk =   0.0392157
        k(   28) = (  -0.1515000   0.5757577   0.0000000), wk =   0.0392157
        k(   29) = (  -0.1212000   0.5606062   0.0000000), wk =   0.0392157
        k(   30) = (  -0.0909000   0.5454546   0.0000000), wk =   0.0392157
        k(   31) = (  -0.0606000   0.5303031   0.0000000), wk =   0.0392157
        k(   32) = (  -0.0303000   0.5151515   0.0000000), wk =   0.0392157
        k(   33) = (   0.0000000   0.5000000   0.0000000), wk =   0.0392157
        k(   34) = (   0.0000000   0.4722222   0.0000000), wk =   0.0392157
        k(   35) = (   0.0000000   0.4444444   0.0000000), wk =   0.0392157
        k(   36) = (   0.0000000   0.4166667   0.0000000), wk =   0.0392157
        k(   37) = (   0.0000000   0.3888889   0.0000000), wk =   0.0392157
        k(   38) = (   0.0000000   0.3611111   0.0000000), wk =   0.0392157
        k(   39) = (   0.0000000   0.3333333   0.0000000), wk =   0.0392157
        k(   40) = (   0.0000000   0.3055556   0.0000000), wk =   0.0392157
        k(   41) = (   0.0000000   0.2777778   0.0000000), wk =   0.0392157
        k(   42) = (   0.0000000   0.2500000   0.0000000), wk =   0.0392157
        k(   43) = (   0.0000000   0.2222222   0.0000000), wk =   0.0392157
        k(   44) = (   0.0000000   0.1944444   0.0000000), wk =   0.0392157
        k(   45) = (   0.0000000   0.1666667   0.0000000), wk =   0.0392157
        k(   46) = (   0.0000000   0.1388889   0.0000000), wk =   0.0392157
        k(   47) = (   0.0000000   0.1111111   0.0000000), wk =   0.0392157
        k(   48) = (   0.0000000   0.0833333   0.0000000), wk =   0.0392157
        k(   49) = (   0.0000000   0.0555556   0.0000000), wk =   0.0392157
        k(   50) = (   0.0000000   0.0277778   0.0000000), wk =   0.0392157
        k(   51) = (   0.0000000   0.0000000   0.0000000), wk =   0.0392157

     Dense  grid:    32201 G-vectors     FFT dimensions: (  24,  24, 144)

     Dynamical RAM for                 wfc:       0.49 MB

     Dynamical RAM for     wfc (w. buffer):       0.49 MB

     Dynamical RAM for           str. fact:       0.49 MB

     Dynamical RAM for           local pot:       0.00 MB

     Dynamical RAM for          nlocal pot:       0.98 MB

     Dynamical RAM for                qrad:       0.36 MB

     Dynamical RAM for          rho,v,vnew:       3.37 MB

     Dynamical RAM for           G-vectors:       2.09 MB

     Dynamical RAM for          h,s,v(r/c):       0.01 MB

     Dynamical RAM for          <psi|beta>:       0.00 MB

     Dynamical RAM for                 psi:       0.98 MB

     Dynamical RAM for                hpsi:       0.98 MB

     Dynamical RAM for      wfcinit/wfcrot:       0.98 MB

     Estimated static dynamical RAM per process >      11.93 MB

     Estimated max dynamical RAM per process >      13.90 MB

     The potential is recalculated from file :
     ./tmp/graphene.save/charge-density

     Starting wfcs are    8 randomized atomic wfcs

     Band Structure Calculation
     Davidson diagonalization with overlap

     Computing kpt #:     1  of    51
     total cpu time spent up to now is        0.9 secs

     Computing kpt #:     2  of    51
     total cpu time spent up to now is        1.2 secs

     Computing kpt #:     3  of    51
     total cpu time spent up to now is        1.5 secs

     Computing kpt #:     4  of    51
     total cpu time spent up to now is        1.9 secs

     Computing kpt #:     5  of    51
     total cpu time spent up to now is        2.3 secs

     Computing kpt #:     6  of    51
     total cpu time spent up to now is        2.6 secs

     Computing kpt #:     7  of    51
     total cpu time spent up to now is        3.0 secs

     Computing kpt #:     8  of    51
     total cpu time spent up to now is        3.3 secs

     Computing kpt #:     9  of    51
     total cpu time spent up to now is        3.7 secs

     Computing kpt #:    10  of    51
     total cpu time spent up to now is        4.0 secs

     Computing kpt #:    11  of    51
     total cpu time spent up to now is        4.5 secs

     Computing kpt #:    12  of    51
     total cpu time spent up to now is        4.8 secs

     Computing kpt #:    13  of    51
     total cpu time spent up to now is        5.1 secs

     Computing kpt #:    14  of    51
     total cpu time spent up to now is        5.7 secs

     Computing kpt #:    15  of    51
     total cpu time spent up to now is        6.4 secs

     Computing kpt #:    16  of    51
     total cpu time spent up to now is        7.3 secs

     Computing kpt #:    17  of    51
     total cpu time spent up to now is        8.1 secs

     Computing kpt #:    18  of    51
     total cpu time spent up to now is        9.1 secs

     Computing kpt #:    19  of    51
     total cpu time spent up to now is       11.1 secs

     Computing kpt #:    20  of    51
     total cpu time spent up to now is       12.1 secs

     Computing kpt #:    21  of    51
     total cpu time spent up to now is       12.9 secs

     Computing kpt #:    22  of    51
     total cpu time spent up to now is       13.6 secs

     Computing kpt #:    23  of    51
     total cpu time spent up to now is       14.7 secs

     Computing kpt #:    24  of    51
     total cpu time spent up to now is       16.2 secs

     Computing kpt #:    25  of    51
     total cpu time spent up to now is       16.9 secs

     Computing kpt #:    26  of    51
     total cpu time spent up to now is       17.9 secs

     Computing kpt #:    27  of    51
     total cpu time spent up to now is       18.9 secs

     Computing kpt #:    28  of    51
     total cpu time spent up to now is       20.5 secs

     Computing kpt #:    29  of    51
     total cpu time spent up to now is       21.3 secs

     Computing kpt #:    30  of    51
     total cpu time spent up to now is       22.2 secs

     Computing kpt #:    31  of    51
     total cpu time spent up to now is       22.9 secs

     Computing kpt #:    32  of    51
     total cpu time spent up to now is       23.6 secs

     Computing kpt #:    33  of    51
     total cpu time spent up to now is       24.3 secs

     Computing kpt #:    34  of    51
     total cpu time spent up to now is       25.3 secs

     Computing kpt #:    35  of    51
     total cpu time spent up to now is       26.3 secs

     Computing kpt #:    36  of    51
     total cpu time spent up to now is       26.9 secs

     Computing kpt #:    37  of    51
     total cpu time spent up to now is       27.7 secs

     Computing kpt #:    38  of    51
     total cpu time spent up to now is       28.6 secs

     Computing kpt #:    39  of    51
     total cpu time spent up to now is       29.4 secs

     Computing kpt #:    40  of    51
     total cpu time spent up to now is       30.6 secs

     Computing kpt #:    41  of    51
     total cpu time spent up to now is       31.5 secs

     Computing kpt #:    42  of    51
     total cpu time spent up to now is       32.4 secs

     Computing kpt #:    43  of    51
     total cpu time spent up to now is       33.8 secs

     Computing kpt #:    44  of    51
     total cpu time spent up to now is       35.5 secs

     Computing kpt #:    45  of    51
     total cpu time spent up to now is       36.4 secs

     Computing kpt #:    46  of    51
     total cpu time spent up to now is       37.2 secs

     Computing kpt #:    47  of    51
     total cpu time spent up to now is       38.1 secs

     Computing kpt #:    48  of    51
     total cpu time spent up to now is       39.0 secs

     Computing kpt #:    49  of    51
     total cpu time spent up to now is       40.1 secs

     Computing kpt #:    50  of    51
     total cpu time spent up to now is       40.9 secs

     Computing kpt #:    51  of    51
     total cpu time spent up to now is       41.7 secs

     ethr =  1.25E-08,  avg # of iterations = 37.9

     total cpu time spent up to now is       41.7 secs

     End of band structure calculation

          k = 0.0000 0.0000 0.0000 (  4005 PWs)   bands (ev):

   -21.3883  -9.6844  -4.8599  -4.8599   1.4671   2.5286   3.0255   4.9672

          k =-0.0159 0.0275 0.0000 (  4035 PWs)   bands (ev):

   -21.3704  -9.6632  -4.9345  -4.9018   1.4916   2.5533   3.0506   4.9917

          k =-0.0317 0.0550 0.0000 (  4021 PWs)   bands (ev):

   -21.3163  -9.5971  -5.1470  -5.0230   1.5650   2.6278   3.1259   5.0656

          k =-0.0476 0.0825 0.0000 (  4027 PWs)   bands (ev):

   -21.2263  -9.4878  -5.4797  -5.2209   1.6876   2.7517   3.2515   5.1887

          k =-0.0635 0.1100 0.0000 (  4033 PWs)   bands (ev):

   -21.1005  -9.3351  -5.9073  -5.4892   1.8591   2.9251   3.4273   5.3607

          k =-0.0794 0.1375 0.0000 (  4049 PWs)   bands (ev):

   -20.9391  -9.1399  -6.4031  -5.8204   2.0798   3.1478   3.6534   5.5815

          k =-0.0952 0.1650 0.0000 (  4045 PWs)   bands (ev):

   -20.7420  -8.9021  -6.9447  -6.2042   2.3495   3.4195   3.9299   5.8507

          k =-0.1111 0.1925 0.0000 (  4027 PWs)   bands (ev):

   -20.5096  -8.6225  -7.5144  -6.6314   2.6682   3.7400   4.2566   6.1679

          k =-0.1270 0.2200 0.0000 (  4043 PWs)   bands (ev):

   -20.2425  -8.3032  -8.0983  -7.0938   3.0358   4.1087   4.6336   6.4315

          k =-0.1428 0.2474 0.0000 (  4027 PWs)   bands (ev):

   -19.9407  -8.6855  -7.9438  -7.5802   3.4520   4.5250   5.0609   5.7311

          k =-0.1587 0.2749 0.0000 (  4034 PWs)   bands (ev):

   -19.6050  -9.2684  -8.0836  -7.5470   3.9166   4.9877   5.0138   5.5384

          k =-0.1746 0.3024 0.0000 (  4042 PWs)   bands (ev):

   -19.2359  -9.8406  -8.5956  -7.1145   4.2912   4.4291   5.4952   6.0660

          k =-0.1905 0.3299 0.0000 (  4022 PWs)   bands (ev):

   -18.8341 -10.3967  -9.1084  -6.6483   3.5734   4.9891   6.0444   6.6437

          k =-0.2063 0.3574 0.0000 (  4014 PWs)   bands (ev):

   -18.4005 -10.9350  -9.6170  -6.1517   2.8656   5.5956   6.6300   7.2711

          k =-0.2222 0.3849 0.0000 (  3996 PWs)   bands (ev):

   -17.9368 -11.4512 -10.1152  -5.6287   2.1759   6.2475   7.2406   7.9480

          k =-0.2381 0.4124 0.0000 (  3986 PWs)   bands (ev):

   -17.4447 -11.9439 -10.5984  -5.0844   1.5086   6.9428   7.8503   8.6740

          k =-0.2539 0.4399 0.0000 (  3994 PWs)   bands (ev):

   -16.9272 -12.4119 -11.0614  -4.5258   0.8661   7.6784   8.3943   9.4480

          k =-0.2698 0.4674 0.0000 (  3996 PWs)   bands (ev):

   -16.3878 -12.8536 -11.4976  -3.9606   0.2539   8.4487   8.7421  10.2679

          k =-0.2857 0.4949 0.0000 (  4002 PWs)   bands (ev):

   -15.8339 -13.2679 -11.9005  -3.3977  -0.3267   8.8169   9.2426  11.1206

          k =-0.3016 0.5224 0.0000 (  4004 PWs)   bands (ev):

   -15.2791 -13.6543 -12.2553  -2.8490  -0.8720   8.7390  10.0353  11.4350

          k =-0.3174 0.5499 0.0000 (  3988 PWs)   bands (ev):

   -14.7551 -14.0119 -12.5316  -2.3286  -1.3801   8.6444  10.7619  11.3665

          k =-0.3333 0.5774 0.0000 (  3942 PWs)   bands (ev):

   -14.3407 -14.3399 -12.6525  -1.8504  -1.8493   8.6042  11.2182  11.2186

          k =-0.3030 0.5774 0.0000 (  3992 PWs)   bands (ev):

   -14.6280 -14.1671 -12.5081  -2.2642  -1.4470   8.6472  11.0166  11.1637

          k =-0.2727 0.5774 0.0000 (  4004 PWs)   bands (ev):

   -14.8881 -14.2117 -12.1114  -2.6398  -1.1056   8.7803  10.7831  10.8993

          k =-0.2424 0.5774 0.0000 (  4004 PWs)   bands (ev):

   -15.1210 -14.3564 -11.5867  -2.9775  -0.8286   8.9991  10.4003  10.5395

          k =-0.2121 0.5774 0.0000 (  4008 PWs)   bands (ev):

   -15.3267 -14.5265 -11.0175  -3.2767  -0.6158   9.2831   9.6402  10.3024

          k =-0.1818 0.5774 0.0000 (  4020 PWs)   bands (ev):

   -15.5051 -14.6920 -10.4453  -3.5371  -0.4606   8.8331   9.5957  10.0831

          k =-0.1515 0.5774 0.0000 (  4022 PWs)   bands (ev):

   -15.6563 -14.8404  -9.8955  -3.7582  -0.3529   8.0559   9.8881   9.8895

          k =-0.1212 0.5774 0.0000 (  4038 PWs)   bands (ev):

   -15.7800 -14.9663  -9.3936  -3.9399  -0.2828   7.3512   9.7264   9.8316

          k =-0.0909 0.5774 0.0000 (  4032 PWs)   bands (ev):

   -15.8761 -15.0656  -8.9634  -4.0808  -0.2400   6.7555   9.5971   9.6925

          k =-0.0606 0.5774 0.0000 (  4020 PWs)   bands (ev):

   -15.9448 -15.1376  -8.6303  -4.1811  -0.2150   6.3010   9.5035   9.5922

          k =-0.0303 0.5774 0.0000 (  4028 PWs)   bands (ev):

   -15.9862 -15.1814  -8.4191  -4.2419  -0.2028   6.0150   9.4468   9.5316

          k = 0.0000 0.5774 0.0000 (  4024 PWs)   bands (ev):

   -15.9999 -15.1958  -8.3460  -4.2623  -0.1992   5.9174   9.4278   9.5114

          k = 0.0000 0.5453 0.0000 (  4036 PWs)   bands (ev):

   -16.3199 -14.8487  -8.3279  -4.3848  -0.0482   5.9254   8.6308   9.7116

          k = 0.0000 0.5132 0.0000 (  4040 PWs)   bands (ev):

   -16.8381 -14.2487  -8.2721  -4.7060   0.3595   5.9491   7.8335   8.9292

          k = 0.0000 0.4811 0.0000 (  4028 PWs)   bands (ev):

   -17.3610 -13.5908  -8.1793  -5.1407   0.9379   5.9852   7.0822   8.1771

          k = 0.0000 0.4491 0.0000 (  4018 PWs)   bands (ev):

   -17.8627 -12.9018  -8.0511  -5.6246   1.6182   6.0089   6.4032   7.4654

          k = 0.0000 0.4170 0.0000 (  4026 PWs)   bands (ev):

   -18.3365 -12.1915  -7.8884  -6.1211   2.3589   5.6495   6.1657   6.7981

          k = 0.0000 0.3849 0.0000 (  4040 PWs)   bands (ev):

   -18.7797 -11.4650  -7.6930  -6.6077   3.1326   5.0507   6.1788   6.2202

          k = 0.0000 0.3528 0.0000 (  4024 PWs)   bands (ev):

   -19.1899 -10.7277  -7.4671  -7.0723   3.9160   4.4844   5.6135   6.1037

          k = 0.0000 0.3208 0.0000 (  4030 PWs)   bands (ev):

   -19.5673  -9.9863  -7.5082  -7.2140   3.9636   4.6412   5.1549   5.5856

          k = 0.0000 0.2887 0.0000 (  4016 PWs)   bands (ev):

   -19.9104  -9.2469  -7.9101  -6.9373   3.4908   4.5440   5.1011   5.5534

          k = 0.0000 0.2566 0.0000 (  4020 PWs)   bands (ev):

   -20.2185  -8.5194  -8.2750  -6.6433   3.0669   4.1369   4.6660   6.2519

          k = 0.0000 0.2245 0.0000 (  4028 PWs)   bands (ev):

   -20.4914  -8.6011  -7.8135  -6.3379   2.6924   3.7639   4.2817   6.1835

          k = 0.0000 0.1925 0.0000 (  4038 PWs)   bands (ev):

   -20.7286  -8.8858  -7.1432  -6.0303   2.3674   3.4377   3.9485   5.8675

          k = 0.0000 0.1604 0.0000 (  4036 PWs)   bands (ev):

   -20.9297  -9.1284  -6.5225  -5.7309   2.0924   3.1606   3.6664   5.5939

          k = 0.0000 0.1283 0.0000 (  4028 PWs)   bands (ev):

   -21.0945  -9.3277  -5.9703  -5.4527   1.8672   2.9334   3.4356   5.3688

          k = 0.0000 0.0962 0.0000 (  4020 PWs)   bands (ev):

   -21.2229  -9.4834  -5.5073  -5.2113   1.6921   2.7564   3.2562   5.1933

          k = 0.0000 0.0642 0.0000 (  4021 PWs)   bands (ev):

   -21.3147  -9.5950  -5.1562  -5.0232   1.5671   2.6299   3.1280   5.0677

          k = 0.0000 0.0321 0.0000 (  4029 PWs)   bands (ev):

   -21.3699  -9.6624  -4.9362  -4.9027   1.4921   2.5539   3.0511   4.9923

          k = 0.0000 0.0000 0.0000 (  4005 PWs)   bands (ev):

   -21.3883  -9.6844  -4.8599  -4.8599   1.4671   2.5286   3.0255   4.9672

     Writing output data file ./tmp/graphene.save/

     init_run     :      0.11s CPU      0.12s WALL (       1 calls)
     electrons    :     95.72s CPU     41.46s WALL (       1 calls)

     Called by init_run:
     wfcinit      :      0.00s CPU      0.00s WALL (       1 calls)
     wfcinit:atom :      0.15s CPU      0.07s WALL (      51 calls)
     wfcinit:wfcr :      3.70s CPU      1.62s WALL (      51 calls)
     potinit      :      0.01s CPU      0.01s WALL (       1 calls)
     hinit0       :      0.07s CPU      0.07s WALL (       1 calls)

     Called by electrons:
     c_bands      :     95.72s CPU     41.46s WALL (       1 calls)
     v_of_rho     :      0.01s CPU      0.01s WALL (       1 calls)
     v_h          :      0.00s CPU      0.00s WALL (       1 calls)
     v_xc         :      0.00s CPU      0.00s WALL (       1 calls)

     Called by c_bands:
     init_us_2    :      0.19s CPU      0.07s WALL (      51 calls)
     cegterg      :     90.66s CPU     39.27s WALL (     117 calls)

     Called by sum_band:

     Called by *egterg:
     cdiaghg      :      1.24s CPU      0.40s WALL (    1985 calls)
     cegterg:over :      2.92s CPU      1.18s WALL (    1934 calls)
     cegterg:upda :      2.25s CPU      1.04s WALL (    1934 calls)
     cegterg:last :      2.27s CPU      0.89s WALL (    1086 calls)
     h_psi        :     82.96s CPU     36.58s WALL (    2102 calls)
     g_psi        :      1.43s CPU      0.38s WALL (    1934 calls)

     Called by h_psi:
     h_psi:calbec :      7.02s CPU      5.33s WALL (    2102 calls)
     vloc_psi     :     73.71s CPU     30.33s WALL (    2102 calls)
     add_vuspsi   :      1.46s CPU      0.66s WALL (    2102 calls)

     General routines
     calbec       :      7.00s CPU      5.33s WALL (    2102 calls)
     fft          :      0.01s CPU      0.02s WALL (       4 calls)
     fftw         :     63.04s CPU     25.93s WALL (   17992 calls)
     davcio       :      0.15s CPU      0.07s WALL (     102 calls)

     Parallel routines

     PWSCF        :   1m36.11s CPU     41.82s WALL


   This run was terminated on:  17:21: 3  14Feb2024            

=------------------------------------------------------------------------------=
   JOB DONE.
=------------------------------------------------------------------------------=
