
     Program PROJWFC v.7.2 starts on 15Apr2024 at 17:33:41 

     This program is part of the open-source Quantum ESPRESSO suite
     for quantum simulation of materials; please cite
         "P. Giannozzi et al., J. Phys.:Condens. Matter 21 395502 (2009);
         "P. Giannozzi et al., J. Phys.:Condens. Matter 29 465901 (2017);
         "P. Giannozzi et al., J. Chem. Phys. 152 154105 (2020);
          URL http://www.quantum-espresso.org", 
     in publications or presentations arising from this work. More details at
     http://www.quantum-espresso.org/quote

     Parallel version (MPI & OpenMP), running on       8 processor cores
     Number of MPI processes:                 8
     Threads/MPI process:                     1

     MPI processes distributed on     1 nodes
     R & G space division:  proc/nbgrp/npool/nimage =       8
     0 MiB available memory on the printing compute node when the environment starts


     Reading xml data from directory:

     ./tmp/C2L_AB_PBE_vdW.save/

     IMPORTANT: XC functional enforced from input :
     Exchange-correlation= VDW-DF2-B86R
                           (   1   4  26   0   2   0   0)
     Any further DFT definition will be discarded
     Please, verify this is what you really want


     Parallelization info
     --------------------
     sticks:   dense  smooth     PW     G-vecs:    dense   smooth      PW
     Min          45      45     13                 5519     5519     941
     Max          46      46     14                 5546     5546     968
     Sum         361     361    109                44285    44285    7663

     Using Slab Decomposition



     %%%%%%%%%%%%%%%%%%%%%%%%%%%%%%%%%%%%%%%%%%%%%%%%%%%%%%%%%%%%%%%%%%%%%%%%
     %                                                                      %
     % You are using vdW-DF, which was implemented by the Thonhauser group. %
     % Please cite the following two papers that made this development      %
     % possible and the two reviews that describe the various versions:     %
     %                                                                      %
     %   T. Thonhauser et al., PRL 115, 136402 (2015).                      %
     %   T. Thonhauser et al., PRB 76, 125112 (2007).                       %
     %   K. Berland et al., Rep. Prog. Phys. 78, 066501 (2015).             %
     %   D.C. Langreth et al., J. Phys.: Condens. Matter 21, 084203 (2009). %
     %                                                                      %
     % If you are calculating stress with vdW-DF, please also cite:         %
     %                                                                      %
     %   R. Sabatini et al., J. Phys.: Condens. Matter 24, 424209 (2012).   %
     %                                                                      %
     %%%%%%%%%%%%%%%%%%%%%%%%%%%%%%%%%%%%%%%%%%%%%%%%%%%%%%%%%%%%%%%%%%%%%%%%

     %%%%%%%%%%%%%%%%%%%%%%%%%%%%%%%%%%%%%%%%%%%%%%%%%%%%%%%%%%%%%%%%%%%%%%%%
     %                                                                      %
     %  vdW-DF NEWS:                                                        %
     %                                                                      %
     %  * vdW-DF3 is now available. DOI: 10.1021/acs.jctc.0c00471           %
     %    use with input_dft = 'vdW-DF3-opt1' or 'vdW-DF3-opt2'             %
     %                                                                      %
     %  * Unscreened and range-separated hybrid vdW-DF-cx functionals       %
     %    DOI: 10.1063/1.4986522 and 10.1088/1361-648X/ac2ad2               %
     %    use with input_dft = 'vdW-DF-cx0'    and 'vdW-DF-ahcx'            %
     %  * Unscreened and range-separated hybrid vdW-DF2-b86r functionals    %
     %    DOI: 10.1063/1.4986522 and DOI: 10.1103/PhysRevX.12.041003        %
     %    use with input_dft = 'vdW-DF2-br0' and 'vdW-DF2-ahbr'             %
     %                                                                      %
     %%%%%%%%%%%%%%%%%%%%%%%%%%%%%%%%%%%%%%%%%%%%%%%%%%%%%%%%%%%%%%%%%%%%%%%%



     Gaussian broadening (read from file): ngauss,degauss=  -1    0.005000


     Calling projwave .... 
     Subspace diagonalization in iterative solution of the eigenvalue problem:
     one sub-group per band group will be used
     ELPA distributed-memory algorithm (size of sub-group:  2*  2 procs)

     linear algebra parallelized on   4 procs

  Problem Sizes 
  natomwfc =           16
  nx       =            8
  nbnd     =           16
  nkstot   =          331
  npwx     =          726
  nkb      =           32


     Atomic states used for projection
     (read from pseudopotential files):

     state #   1: atom   1 (C  ), wfc  1 (l=0 m= 1)
     state #   2: atom   1 (C  ), wfc  2 (l=1 m= 1)
     state #   3: atom   1 (C  ), wfc  2 (l=1 m= 2)
     state #   4: atom   1 (C  ), wfc  2 (l=1 m= 3)
     state #   5: atom   2 (C  ), wfc  1 (l=0 m= 1)
     state #   6: atom   2 (C  ), wfc  2 (l=1 m= 1)
     state #   7: atom   2 (C  ), wfc  2 (l=1 m= 2)
     state #   8: atom   2 (C  ), wfc  2 (l=1 m= 3)
     state #   9: atom   3 (C  ), wfc  1 (l=0 m= 1)
     state #  10: atom   3 (C  ), wfc  2 (l=1 m= 1)
     state #  11: atom   3 (C  ), wfc  2 (l=1 m= 2)
     state #  12: atom   3 (C  ), wfc  2 (l=1 m= 3)
     state #  13: atom   4 (C  ), wfc  1 (l=0 m= 1)
     state #  14: atom   4 (C  ), wfc  2 (l=1 m= 1)
     state #  15: atom   4 (C  ), wfc  2 (l=1 m= 2)
     state #  16: atom   4 (C  ), wfc  2 (l=1 m= 3)

 k =   0.0000000000  0.0000000000  0.0000000000
==== e(   1) =   -20.15420 eV ==== 
     psi = 0.272*[#   1]+0.272*[#   9]+0.219*[#   5]+0.218*[#  13]
    |psi|^2 = 0.983
==== e(   2) =   -19.98018 eV ==== 
     psi = 0.273*[#   5]+0.273*[#  13]+0.220*[#   1]+0.220*[#   9]
    |psi|^2 = 0.989
==== e(   3) =    -8.72403 eV ==== 
     psi = 0.243*[#   2]+0.242*[#  10]+0.235*[#   6]+0.234*[#  14]
    |psi|^2 = 0.956
==== e(   4) =    -7.64835 eV ==== 
     psi = 0.245*[#  14]+0.245*[#   6]+0.237*[#  10]+0.237*[#   2]
    |psi|^2 = 0.968
==== e(   5) =    -3.64262 eV ==== 
     psi = 0.234*[#   3]+0.234*[#   4]+0.234*[#  11]+0.234*[#  12]+0.015*[#   7]
          +0.015*[#   8]+0.015*[#  15]+0.015*[#  16]
    |psi|^2 = 0.997
==== e(   6) =    -3.64256 eV ==== 
     psi = 0.234*[#   3]+0.234*[#   4]+0.234*[#  11]+0.234*[#  12]+0.015*[#   7]
          +0.015*[#   8]+0.015*[#  15]+0.015*[#  16]
    |psi|^2 = 0.997
==== e(   7) =    -3.62026 eV ==== 
     psi = 0.234*[#   7]+0.234*[#   8]+0.234*[#  15]+0.234*[#  16]+0.015*[#  11]
          +0.015*[#  12]+0.015*[#   3]+0.015*[#   4]
    |psi|^2 = 0.997
==== e(   8) =    -3.62020 eV ==== 
     psi = 0.234*[#   7]+0.234*[#   8]+0.234*[#  15]+0.234*[#  16]+0.015*[#  11]
          +0.015*[#  12]+0.015*[#   3]+0.015*[#   4]
    |psi|^2 = 0.997
==== e(   9) =     2.56222 eV ==== 
     psi = 0.002*[#   1]+0.002*[#   5]+0.002*[#   9]+0.002*[#  13]+0.002*[#   2]
          +0.002*[#  10]+0.001*[#   6]+0.001*[#  14]
    |psi|^2 = 0.014
==== e(  10) =     2.98456 eV ==== 
     psi = 0.005*[#   6]+0.005*[#   2]+0.005*[#  14]+0.005*[#  10]
    |psi|^2 = 0.023
==== e(  11) =     4.05121 eV ==== 

    |psi|^2 = 0.001
==== e(  12) =     5.19380 eV ==== 
     psi = 0.001*[#   2]+0.001*[#   6]+0.001*[#  10]+0.001*[#  14]
    |psi|^2 = 0.005
==== e(  13) =     5.64326 eV ==== 
     psi = 0.002*[#   2]+0.002*[#   6]+0.002*[#  10]+0.002*[#  14]+0.001*[#   1]
          +0.001*[#   5]
    |psi|^2 = 0.012
==== e(  14) =     7.48109 eV ==== 
     psi = 0.005*[#  10]+0.005*[#  14]+0.004*[#   2]+0.004*[#   6]
    |psi|^2 = 0.019
==== e(  15) =     7.82205 eV ==== 
     psi = 0.185*[#   3]+0.185*[#   4]+0.185*[#  11]+0.185*[#  12]+0.053*[#   7]
          +0.053*[#   8]+0.053*[#  15]+0.053*[#  16]
    |psi|^2 = 0.951
==== e(  16) =     7.82212 eV ==== 
     psi = 0.185*[#   3]+0.185*[#   4]+0.184*[#  11]+0.184*[#  12]+0.053*[#   7]
          +0.053*[#   8]+0.053*[#  15]+0.053*[#  16]
    |psi|^2 = 0.951

 k =   0.0000000000  0.0192450090  0.0000000000
==== e(   1) =   -20.14751 eV ==== 
     psi = 0.271*[#   1]+0.271*[#   9]+0.218*[#   5]+0.218*[#  13]
    |psi|^2 = 0.983
==== e(   2) =   -19.97362 eV ==== 
     psi = 0.273*[#   5]+0.273*[#  13]+0.219*[#   1]+0.219*[#   9]
    |psi|^2 = 0.989
==== e(   3) =    -8.71586 eV ==== 
     psi = 0.243*[#   2]+0.242*[#  10]+0.235*[#   6]+0.234*[#  14]
    |psi|^2 = 0.956
==== e(   4) =    -7.64052 eV ==== 
     psi = 0.245*[#  14]+0.245*[#   6]+0.237*[#  10]+0.237*[#   2]
    |psi|^2 = 0.968
==== e(   5) =    -3.66986 eV ==== 
     psi = 0.233*[#   3]+0.233*[#   4]+0.233*[#  11]+0.233*[#  12]+0.016*[#   7]
          +0.016*[#   8]+0.016*[#  15]+0.016*[#  16]
    |psi|^2 = 0.997
==== e(   6) =    -3.65711 eV ==== 
     psi = 0.234*[#   3]+0.234*[#   4]+0.233*[#  11]+0.233*[#  12]+0.016*[#   7]
          +0.016*[#   8]+0.016*[#  15]+0.016*[#  16]
    |psi|^2 = 0.997
==== e(   7) =    -3.64734 eV ==== 
     psi = 0.233*[#   7]+0.233*[#   8]+0.233*[#  15]+0.233*[#  16]+0.016*[#  11]
          +0.016*[#  12]+0.016*[#   3]+0.016*[#   4]
    |psi|^2 = 0.997
==== e(   8) =    -3.63462 eV ==== 
     psi = 0.233*[#   7]+0.233*[#   8]+0.233*[#  15]+0.233*[#  16]+0.016*[#  11]
          +0.016*[#  12]+0.016*[#   3]+0.016*[#   4]
    |psi|^2 = 0.997
==== e(   9) =     2.57103 eV ==== 
     psi = 0.002*[#   1]+0.002*[#   5]+0.002*[#   9]+0.002*[#  13]+0.002*[#   2]
          +0.002*[#  10]+0.001*[#   6]+0.001*[#  14]
    |psi|^2 = 0.014
==== e(  10) =     2.99345 eV ==== 
     psi = 0.005*[#   6]+0.005*[#   2]+0.005*[#  14]+0.005*[#  10]
    |psi|^2 = 0.023
==== e(  11) =     4.06027 eV ==== 

    |psi|^2 = 0.001
==== e(  12) =     5.20280 eV ==== 
     psi = 0.001*[#   2]+0.001*[#   6]+0.001*[#  10]+0.001*[#  14]
    |psi|^2 = 0.005
==== e(  13) =     5.65167 eV ==== 
     psi = 0.002*[#   2]+0.002*[#   6]+0.002*[#  10]+0.002*[#  14]+0.001*[#   1]
          +0.001*[#   5]
    |psi|^2 = 0.012
==== e(  14) =     7.48902 eV ==== 
     psi = 0.005*[#  10]+0.005*[#  14]+0.004*[#   2]+0.004*[#   6]
    |psi|^2 = 0.019
==== e(  15) =     7.82618 eV ==== 
     psi = 0.175*[#   3]+0.175*[#   4]+0.174*[#  11]+0.174*[#  12]+0.062*[#   7]
          +0.062*[#   8]+0.062*[#  15]+0.062*[#  16]
    |psi|^2 = 0.948
==== e(  16) =     7.85109 eV ==== 
     psi = 0.182*[#   3]+0.182*[#   4]+0.182*[#  11]+0.182*[#  12]+0.056*[#   7]
          +0.056*[#   8]+0.055*[#  15]+0.055*[#  16]
    |psi|^2 = 0.951

 k =   0.0000000000  0.0384900179  0.0000000000
==== e(   1) =   -20.12779 eV ==== 
     psi = 0.269*[#   1]+0.269*[#   9]+0.216*[#   5]+0.216*[#  13]+0.001*[#   3]
          +0.001*[#   4]+0.001*[#  11]+0.001*[#  12]+0.001*[#   7]+0.001*[#   8]
          +0.001*[#  15]+0.001*[#  16]
    |psi|^2 = 0.983
==== e(   2) =   -19.95409 eV ==== 
     psi = 0.271*[#   5]+0.271*[#  13]+0.218*[#   1]+0.218*[#   9]+0.001*[#   7]
          +0.001*[#   8]+0.001*[#  15]+0.001*[#  16]+0.001*[#   3]+0.001*[#   4]
          +0.001*[#  11]+0.001*[#  12]
    |psi|^2 = 0.989
==== e(   3) =    -8.69192 eV ==== 
     psi = 0.243*[#   2]+0.242*[#  10]+0.235*[#   6]+0.234*[#  14]
    |psi|^2 = 0.957
==== e(   4) =    -7.61746 eV ==== 
     psi = 0.245*[#  14]+0.245*[#   6]+0.238*[#  10]+0.237*[#   2]
    |psi|^2 = 0.968
==== e(   5) =    -3.75183 eV ==== 
     psi = 0.229*[#   3]+0.229*[#   4]+0.229*[#  11]+0.229*[#  12]+0.019*[#   7]
          +0.019*[#   8]+0.019*[#  15]+0.019*[#  16]+0.003*[#   1]+0.003*[#   9]
          
    |psi|^2 = 0.997
==== e(   6) =    -3.72868 eV ==== 
     psi = 0.229*[#   7]+0.229*[#   8]+0.229*[#  15]+0.229*[#  16]+0.019*[#  11]
          +0.019*[#  12]+0.019*[#   3]+0.019*[#   4]+0.003*[#   5]+0.003*[#  13]
          
    |psi|^2 = 0.997
==== e(   7) =    -3.70008 eV ==== 
     psi = 0.232*[#   3]+0.232*[#   4]+0.232*[#  11]+0.232*[#  12]+0.018*[#   7]
          +0.018*[#   8]+0.017*[#  15]+0.017*[#  16]
    |psi|^2 = 0.997
==== e(   8) =    -3.67726 eV ==== 
     psi = 0.232*[#   7]+0.232*[#   8]+0.232*[#  15]+0.232*[#  16]+0.018*[#  11]
          +0.018*[#  12]+0.017*[#   3]+0.017*[#   4]
    |psi|^2 = 0.997
==== e(   9) =     2.59745 eV ==== 
     psi = 0.002*[#   1]+0.002*[#   5]+0.002*[#   9]+0.002*[#   2]+0.002*[#  10]
          +0.002*[#  13]+0.001*[#   6]+0.001*[#  14]
    |psi|^2 = 0.016
==== e(  10) =     3.02008 eV ==== 
     psi = 0.005*[#   6]+0.005*[#   2]+0.005*[#  14]+0.005*[#  10]
    |psi|^2 = 0.023
==== e(  11) =     4.08742 eV ==== 

    |psi|^2 = 0.002
==== e(  12) =     5.22974 eV ==== 
     psi = 0.001*[#   2]+0.001*[#   6]+0.001*[#  10]+0.001*[#  14]
    |psi|^2 = 0.005
==== e(  13) =     5.67683 eV ==== 
     psi = 0.002*[#   2]+0.002*[#   6]+0.002*[#  10]+0.002*[#  14]
    |psi|^2 = 0.012
==== e(  14) =     7.51286 eV ==== 
     psi = 0.005*[#  14]+0.004*[#   2]+0.004*[#  10]+0.004*[#   6]
    |psi|^2 = 0.022
==== e(  15) =     7.83545 eV ==== 
     psi = 0.168*[#   3]+0.168*[#   4]+0.168*[#  11]+0.168*[#  12]+0.065*[#   7]
          +0.065*[#   8]+0.065*[#  15]+0.065*[#  16]+0.004*[#   9]+0.004*[#   1]
          +0.002*[#  13]+0.001*[#   5]
    |psi|^2 = 0.942
==== e(  16) =     7.87886 eV ==== 
     psi = 0.167*[#  15]+0.167*[#  16]+0.166*[#   7]+0.166*[#   8]+0.068*[#  11]
          +0.068*[#  12]+0.067*[#   3]+0.067*[#   4]+0.004*[#   5]+0.004*[#  13]
          +0.002*[#   1]+0.001*[#   9]
    |psi|^2 = 0.944

 k =   0.0000000000  0.0577350269  0.0000000000
==== e(   1) =   -20.09495 eV ==== 
     psi = 0.266*[#   1]+0.265*[#   9]+0.213*[#   5]+0.213*[#  13]+0.003*[#   3]
          +0.003*[#   4]+0.003*[#  11]+0.003*[#  12]+0.003*[#   7]+0.003*[#   8]
          +0.003*[#  15]+0.003*[#  16]
    |psi|^2 = 0.983
==== e(   2) =   -19.92157 eV ==== 
     psi = 0.268*[#   5]+0.268*[#  13]+0.215*[#   1]+0.215*[#   9]+0.003*[#   7]
          +0.003*[#   8]+0.003*[#  15]+0.003*[#  16]+0.002*[#   3]+0.002*[#   4]
          +0.002*[#  11]+0.002*[#  12]
    |psi|^2 = 0.989
==== e(   3) =    -8.65199 eV ==== 
     psi = 0.243*[#   2]+0.242*[#  10]+0.235*[#   6]+0.234*[#  14]
    |psi|^2 = 0.957
==== e(   4) =    -7.57875 eV ==== 
     psi = 0.245*[#  14]+0.245*[#   6]+0.238*[#  10]+0.237*[#   2]
    |psi|^2 = 0.969
==== e(   5) =    -3.88617 eV ==== 
     psi = 0.223*[#   3]+0.223*[#   4]+0.223*[#  11]+0.223*[#  12]+0.023*[#   7]
          +0.023*[#   8]+0.023*[#  15]+0.023*[#  16]+0.006*[#   1]+0.006*[#   9]
          
    |psi|^2 = 0.997
==== e(   6) =    -3.86204 eV ==== 
     psi = 0.223*[#   7]+0.223*[#   8]+0.223*[#  15]+0.223*[#  16]+0.023*[#  11]
          +0.023*[#  12]+0.023*[#   3]+0.023*[#   4]+0.006*[#   5]+0.006*[#  13]
          
    |psi|^2 = 0.997
==== e(   7) =    -3.77087 eV ==== 
     psi = 0.229*[#   3]+0.229*[#   4]+0.229*[#  11]+0.229*[#  12]+0.021*[#   7]
          +0.021*[#   8]+0.020*[#  15]+0.020*[#  16]
    |psi|^2 = 0.997
==== e(   8) =    -3.74740 eV ==== 
     psi = 0.229*[#   7]+0.229*[#   8]+0.229*[#  15]+0.229*[#  16]+0.021*[#  11]
          +0.021*[#  12]+0.020*[#   3]+0.020*[#   4]
    |psi|^2 = 0.997
==== e(   9) =     2.64146 eV ==== 
     psi = 0.002*[#  10]+0.001*[#   1]+0.002*[#   2]+0.001*[#   5]+0.001*[#   9]
          +0.001*[#   6]+0.001*[#  13]+0.001*[#  14]
    |psi|^2 = 0.019
==== e(  10) =     3.06448 eV ==== 
     psi = 0.005*[#   6]+0.005*[#   2]+0.005*[#  14]+0.005*[#  10]
    |psi|^2 = 0.023
==== e(  11) =     4.13268 eV ==== 

    |psi|^2 = 0.002
==== e(  12) =     5.27466 eV ==== 
     psi = 0.001*[#   2]+0.001*[#   6]
    |psi|^2 = 0.005
==== e(  13) =     5.71877 eV ==== 
     psi = 0.002*[#   2]+0.002*[#   6]+0.002*[#  10]+0.002*[#  14]
    |psi|^2 = 0.012
==== e(  14) =     7.55152 eV ==== 
     psi = 0.004*[#  10]+0.004*[#   6]+0.004*[#  14]+0.004*[#   2]
    |psi|^2 = 0.026
==== e(  15) =     7.84830 eV ==== 
     psi = 0.157*[#   3]+0.157*[#   4]+0.156*[#  11]+0.156*[#  12]+0.071*[#   7]
          +0.071*[#   8]+0.070*[#  15]+0.070*[#  16]+0.008*[#   9]+0.008*[#   1]
          +0.004*[#  13]+0.003*[#   5]
    |psi|^2 = 0.932
==== e(  16) =     7.89834 eV ==== 
     psi = 0.157*[#  15]+0.157*[#  16]+0.156*[#   7]+0.156*[#   8]+0.071*[#  11]
          +0.071*[#  12]+0.070*[#   3]+0.070*[#   4]+0.009*[#   5]+0.008*[#  13]
          +0.004*[#   1]+0.004*[#   9]
    |psi|^2 = 0.935

 k =   0.0000000000  0.0769800359  0.0000000000
==== e(   1) =   -20.04893 eV ==== 
     psi = 0.261*[#   1]+0.261*[#   9]+0.209*[#   5]+0.209*[#  13]+0.006*[#   3]
          +0.006*[#   4]+0.006*[#  11]+0.006*[#  12]+0.004*[#   7]+0.004*[#   8]
          +0.004*[#  15]+0.004*[#  16]
    |psi|^2 = 0.983
==== e(   2) =   -19.87601 eV ==== 
     psi = 0.263*[#   5]+0.263*[#  13]+0.212*[#   1]+0.212*[#   9]+0.005*[#   7]
          +0.005*[#   8]+0.005*[#  15]+0.005*[#  16]+0.004*[#   3]+0.004*[#   4]
          +0.004*[#  11]+0.004*[#  12]
    |psi|^2 = 0.989
==== e(   3) =    -8.59600 eV ==== 
     psi = 0.243*[#   2]+0.242*[#  10]+0.236*[#   6]+0.235*[#  14]
    |psi|^2 = 0.958
==== e(   4) =    -7.52464 eV ==== 
     psi = 0.246*[#  14]+0.245*[#   6]+0.238*[#  10]+0.238*[#   2]
    |psi|^2 = 0.970
==== e(   5) =    -4.06910 eV ==== 
     psi = 0.215*[#   3]+0.215*[#   4]+0.214*[#  11]+0.214*[#  12]+0.029*[#   7]
          +0.029*[#   8]+0.029*[#  15]+0.029*[#  16]+0.009*[#   1]+0.009*[#   9]
          +0.001*[#   5]+0.001*[#  13]
    |psi|^2 = 0.997
==== e(   6) =    -4.04333 eV ==== 
     psi = 0.215*[#   7]+0.215*[#   8]+0.215*[#  15]+0.215*[#  16]+0.029*[#   3]
          +0.029*[#   4]+0.029*[#  11]+0.029*[#  12]+0.009*[#   5]+0.009*[#  13]
          +0.001*[#   1]+0.001*[#   9]
    |psi|^2 = 0.997
==== e(   7) =    -3.86571 eV ==== 
     psi = 0.225*[#   3]+0.225*[#   4]+0.225*[#  11]+0.225*[#  12]+0.024*[#   7]
          +0.024*[#   8]+0.024*[#  15]+0.024*[#  16]
    |psi|^2 = 0.997
==== e(   8) =    -3.84138 eV ==== 
     psi = 0.225*[#   7]+0.225*[#   8]+0.225*[#  15]+0.225*[#  16]+0.024*[#  11]
          +0.024*[#  12]+0.024*[#   3]+0.024*[#   4]
    |psi|^2 = 0.997
==== e(   9) =     2.70310 eV ==== 
     psi = 0.002*[#   3]+0.002*[#   4]+0.002*[#  11]+0.002*[#   2]+0.002*[#   7]
          +0.002*[#   8]+0.002*[#  10]+0.002*[#  12]+0.002*[#  15]+0.002*[#  16]
          +0.001*[#   6]+0.001*[#  14]+0.001*[#   1]+0.001*[#   5]+0.001*[#   9]
          +0.001*[#  13]
    |psi|^2 = 0.023
==== e(  10) =     3.12664 eV ==== 
     psi = 0.005*[#   6]+0.005*[#   2]+0.005*[#  14]+0.005*[#  10]
    |psi|^2 = 0.024
==== e(  11) =     4.19607 eV ==== 

    |psi|^2 = 0.002
==== e(  12) =     5.33756 eV ==== 
     psi = 0.001*[#   2]+0.001*[#   6]
    |psi|^2 = 0.005
==== e(  13) =     5.77751 eV ==== 
     psi = 0.002*[#   2]+0.002*[#   6]+0.002*[#  10]+0.002*[#  14]
    |psi|^2 = 0.012
==== e(  14) =     7.60581 eV ==== 
     psi = 0.004*[#  10]+0.004*[#   6]+0.004*[#  14]+0.004*[#   2]+0.002*[#   3]
          +0.002*[#   4]+0.002*[#  11]+0.002*[#  12]+0.002*[#   7]+0.002*[#   8]
          +0.002*[#  15]+0.002*[#  16]
    |psi|^2 = 0.035
==== e(  15) =     7.86171 eV ==== 
     psi = 0.144*[#   3]+0.144*[#   4]+0.143*[#  11]+0.143*[#  12]+0.076*[#   7]
          +0.076*[#   8]+0.076*[#  15]+0.076*[#  16]+0.014*[#   9]+0.014*[#   1]
          +0.008*[#  13]+0.007*[#   5]
    |psi|^2 = 0.922
==== e(  16) =     7.92252 eV ==== 
     psi = 0.144*[#  15]+0.144*[#  16]+0.143*[#   7]+0.143*[#   8]+0.076*[#  11]
          +0.076*[#  12]+0.075*[#   3]+0.075*[#   4]+0.015*[#   5]+0.014*[#  13]
          +0.008*[#   1]+0.007*[#   9]
    |psi|^2 = 0.920

 k =   0.0000000000  0.0962250449  0.0000000000
==== e(   1) =   -19.98986 eV ==== 
     psi = 0.256*[#   1]+0.255*[#   9]+0.205*[#   5]+0.205*[#  13]+0.008*[#   3]
          +0.008*[#   4]+0.008*[#  11]+0.008*[#  12]+0.007*[#   7]+0.007*[#   8]
          +0.007*[#  15]+0.007*[#  16]
    |psi|^2 = 0.983
==== e(   2) =   -19.81750 eV ==== 
     psi = 0.258*[#   5]+0.258*[#  13]+0.208*[#   1]+0.207*[#   9]+0.008*[#   7]
          +0.008*[#   8]+0.008*[#  15]+0.008*[#  16]+0.006*[#   3]+0.006*[#   4]
          +0.006*[#  11]+0.006*[#  12]
    |psi|^2 = 0.989
==== e(   3) =    -8.52447 eV ==== 
     psi = 0.244*[#   2]+0.243*[#  10]+0.236*[#   6]+0.235*[#  14]
    |psi|^2 = 0.960
==== e(   4) =    -7.45569 eV ==== 
     psi = 0.246*[#  14]+0.246*[#   6]+0.238*[#  10]+0.238*[#   2]
    |psi|^2 = 0.971
==== e(   5) =    -4.29564 eV ==== 
     psi = 0.207*[#   3]+0.207*[#   4]+0.207*[#  11]+0.207*[#  12]+0.034*[#   7]
          +0.034*[#   8]+0.034*[#  15]+0.034*[#  16]+0.014*[#   1]+0.014*[#   9]
          +0.002*[#   5]+0.002*[#  13]
    |psi|^2 = 0.997
==== e(   6) =    -4.26825 eV ==== 
     psi = 0.207*[#   7]+0.207*[#   8]+0.206*[#  15]+0.206*[#  16]+0.034*[#   3]
          +0.034*[#   4]+0.034*[#  11]+0.034*[#  12]+0.014*[#  13]+0.014*[#   5]
          +0.002*[#   9]+0.002*[#   1]
    |psi|^2 = 0.997
==== e(   7) =    -3.98235 eV ==== 
     psi = 0.221*[#   3]+0.221*[#   4]+0.221*[#  11]+0.221*[#  12]+0.029*[#   7]
          +0.029*[#   8]+0.028*[#  15]+0.028*[#  16]
    |psi|^2 = 0.997
==== e(   8) =    -3.95695 eV ==== 
     psi = 0.221*[#   7]+0.221*[#   8]+0.221*[#  15]+0.221*[#  16]+0.029*[#  11]
          +0.029*[#  12]+0.028*[#   3]+0.028*[#   4]
    |psi|^2 = 0.997
==== e(   9) =     2.78234 eV ==== 
     psi = 0.002*[#   3]+0.002*[#   4]+0.002*[#   7]+0.002*[#   8]+0.002*[#  11]
          +0.002*[#  12]+0.002*[#  15]+0.002*[#  16]+0.002*[#  10]+0.001*[#   2]
          +0.001*[#  14]+0.001*[#   6]
    |psi|^2 = 0.027
==== e(  10) =     3.20648 eV ==== 
     psi = 0.005*[#   6]+0.005*[#   2]+0.005*[#  14]+0.004*[#  10]
    |psi|^2 = 0.025
==== e(  11) =     4.27754 eV ==== 

    |psi|^2 = 0.003
==== e(  12) =     5.41837 eV ==== 

    |psi|^2 = 0.005
==== e(  13) =     5.85296 eV ==== 
     psi = 0.002*[#   2]+0.002*[#   6]+0.002*[#  10]+0.002*[#  14]
    |psi|^2 = 0.012
==== e(  14) =     7.67414 eV ==== 
     psi = 0.005*[#   3]+0.005*[#   4]+0.005*[#  11]+0.005*[#  12]+0.004*[#  14]
          +0.004*[#   2]+0.004*[#  10]+0.004*[#   6]+0.004*[#   7]+0.004*[#   8]
          +0.004*[#  15]+0.004*[#  16]+0.002*[#   1]+0.002*[#   9]+0.001*[#   5]
          +0.001*[#  13]
    |psi|^2 = 0.055
==== e(  15) =     7.87238 eV ==== 
     psi = 0.131*[#   3]+0.131*[#   4]+0.130*[#  11]+0.130*[#  12]+0.081*[#   7]
          +0.081*[#   8]+0.080*[#  15]+0.080*[#  16]+0.021*[#   9]+0.020*[#   1]
          +0.013*[#  13]+0.012*[#   5]
    |psi|^2 = 0.913
==== e(  16) =     7.94798 eV ==== 
     psi = 0.130*[#  15]+0.130*[#  16]+0.128*[#   7]+0.128*[#   8]+0.078*[#  11]
          +0.078*[#  12]+0.077*[#   3]+0.077*[#   4]+0.021*[#   5]+0.020*[#  13]
          +0.013*[#   1]+0.012*[#   9]
    |psi|^2 = 0.895

 k =   0.0000000000  0.1154700538  0.0000000000
==== e(   1) =   -19.91765 eV ==== 
     psi = 0.249*[#   1]+0.249*[#   9]+0.200*[#   5]+0.199*[#  13]+0.011*[#   3]
          +0.011*[#   4]+0.011*[#  11]+0.011*[#  12]+0.009*[#   7]+0.009*[#   8]
          +0.009*[#  15]+0.009*[#  16]
    |psi|^2 = 0.983
==== e(   2) =   -19.74605 eV ==== 
     psi = 0.252*[#   5]+0.252*[#  13]+0.203*[#   1]+0.203*[#   9]+0.011*[#   7]
          +0.011*[#   8]+0.011*[#  15]+0.011*[#  16]+0.008*[#   3]+0.008*[#   4]
          +0.008*[#  11]+0.008*[#  12]
    |psi|^2 = 0.989
==== e(   3) =    -8.43712 eV ==== 
     psi = 0.244*[#   2]+0.243*[#  10]+0.236*[#   6]+0.235*[#  14]
    |psi|^2 = 0.961
==== e(   4) =    -7.37135 eV ==== 
     psi = 0.247*[#  14]+0.246*[#   6]+0.239*[#  10]+0.238*[#   2]
    |psi|^2 = 0.973
==== e(   5) =    -4.56280 eV ==== 
     psi = 0.196*[#   3]+0.196*[#   4]+0.196*[#  11]+0.196*[#  12]+0.042*[#  15]
          +0.042*[#  16]+0.042*[#   7]+0.042*[#   8]+0.019*[#   1]+0.019*[#   9]
          +0.004*[#   5]+0.004*[#  13]
    |psi|^2 = 0.997
==== e(   6) =    -4.53273 eV ==== 
     psi = 0.196*[#   7]+0.196*[#   8]+0.196*[#  15]+0.196*[#  16]+0.042*[#   3]
          +0.042*[#   4]+0.041*[#  11]+0.041*[#  12]+0.019*[#  13]+0.019*[#   5]
          +0.004*[#   9]+0.004*[#   1]
    |psi|^2 = 0.997
==== e(   7) =    -4.11731 eV ==== 
     psi = 0.218*[#   3]+0.218*[#   4]+0.217*[#  11]+0.217*[#  12]+0.032*[#   7]
          +0.032*[#   8]+0.032*[#  15]+0.032*[#  16]
    |psi|^2 = 0.997
==== e(   8) =    -4.09105 eV ==== 
     psi = 0.218*[#   7]+0.218*[#   8]+0.218*[#  15]+0.218*[#  16]+0.032*[#  11]
          +0.032*[#  12]+0.032*[#   3]+0.032*[#   4]
    |psi|^2 = 0.997
==== e(   9) =     2.87919 eV ==== 
     psi = 0.003*[#   3]+0.003*[#   4]+0.003*[#  11]+0.003*[#  12]+0.003*[#   7]
          +0.003*[#   8]+0.003*[#  15]+0.003*[#  16]+0.002*[#  10]+0.001*[#   2]
          +0.001*[#  14]+0.001*[#   6]
    |psi|^2 = 0.031
==== e(  10) =     3.30404 eV ==== 
     psi = 0.005*[#   6]+0.004*[#   2]+0.004*[#  14]+0.004*[#  10]+0.001*[#   7]
          +0.001*[#   8]+0.001*[#  15]+0.001*[#  16]
    |psi|^2 = 0.025
==== e(  11) =     4.37714 eV ==== 

    |psi|^2 = 0.003
==== e(  12) =     5.51716 eV ==== 

    |psi|^2 = 0.005
==== e(  13) =     5.94511 eV ==== 
     psi = 0.002*[#   2]+0.002*[#   6]+0.002*[#  10]+0.002*[#  14]
    |psi|^2 = 0.012
==== e(  14) =     7.75327 eV ==== 
     psi = 0.012*[#  11]+0.012*[#  12]+0.012*[#   3]+0.012*[#   4]+0.008*[#  15]
          +0.008*[#  16]+0.008*[#   7]+0.008*[#   8]+0.005*[#   1]+0.004*[#   9]
          +0.004*[#   6]+0.004*[#   2]+0.004*[#   5]+0.003*[#  13]+0.003*[#  10]
          +0.003*[#  14]
    |psi|^2 = 0.110
==== e(  15) =     7.87704 eV ==== 
     psi = 0.118*[#   3]+0.118*[#   4]+0.117*[#  11]+0.117*[#  12]+0.085*[#   7]
          +0.085*[#   8]+0.084*[#  15]+0.084*[#  16]+0.029*[#   9]+0.027*[#   1]
          +0.021*[#  13]+0.019*[#   5]
    |psi|^2 = 0.902
==== e(  16) =     7.97283 eV ==== 
     psi = 0.113*[#  15]+0.113*[#  16]+0.111*[#   7]+0.111*[#   8]+0.076*[#  11]
          +0.076*[#  12]+0.074*[#   3]+0.074*[#   4]+0.028*[#   5]+0.026*[#  13]
          +0.019*[#   1]+0.017*[#   9]+0.001*[#  10]+0.001*[#  14]
    |psi|^2 = 0.840

 k =   0.0000000000  0.1347150628  0.0000000000
==== e(   1) =   -19.83236 eV ==== 
     psi = 0.243*[#   1]+0.242*[#   9]+0.194*[#   5]+0.194*[#  13]+0.015*[#   3]
          +0.015*[#   4]+0.015*[#  11]+0.015*[#  12]+0.012*[#   7]+0.012*[#   8]
          +0.012*[#  15]+0.012*[#  16]
    |psi|^2 = 0.982
==== e(   2) =   -19.66163 eV ==== 
     psi = 0.246*[#   5]+0.246*[#  13]+0.197*[#   1]+0.197*[#   9]+0.014*[#   7]
          +0.014*[#   8]+0.014*[#  15]+0.014*[#  16]+0.011*[#   3]+0.011*[#   4]
          +0.011*[#  11]+0.011*[#  12]
    |psi|^2 = 0.989
==== e(   3) =    -8.33399 eV ==== 
     psi = 0.245*[#   2]+0.244*[#  10]+0.237*[#   6]+0.236*[#  14]
    |psi|^2 = 0.963
==== e(   4) =    -7.27170 eV ==== 
     psi = 0.247*[#  14]+0.247*[#   6]+0.239*[#  10]+0.239*[#   2]
    |psi|^2 = 0.974
==== e(   5) =    -4.86517 eV ==== 
     psi = 0.187*[#  11]+0.187*[#  12]+0.187*[#   3]+0.187*[#   4]+0.048*[#  15]
          +0.048*[#  16]+0.047*[#   7]+0.047*[#   8]+0.024*[#   1]+0.024*[#   9]
          +0.006*[#   5]+0.006*[#  13]
    |psi|^2 = 0.997
==== e(   6) =    -4.83236 eV ==== 
     psi = 0.187*[#   7]+0.187*[#   8]+0.186*[#  15]+0.186*[#  16]+0.048*[#   3]
          +0.048*[#   4]+0.047*[#  11]+0.047*[#  12]+0.024*[#  13]+0.024*[#   5]
          +0.006*[#   9]+0.006*[#   1]
    |psi|^2 = 0.996
==== e(   7) =    -4.26724 eV ==== 
     psi = 0.215*[#   3]+0.215*[#   4]+0.214*[#  11]+0.214*[#  12]+0.035*[#   7]
          +0.035*[#   8]+0.035*[#  15]+0.035*[#  16]
    |psi|^2 = 0.998
==== e(   8) =    -4.24008 eV ==== 
     psi = 0.215*[#   7]+0.215*[#   8]+0.215*[#  15]+0.215*[#  16]+0.035*[#   3]
          +0.035*[#   4]+0.035*[#  11]+0.035*[#  12]
    |psi|^2 = 0.997
==== e(   9) =     2.99365 eV ==== 
     psi = 0.004*[#   3]+0.004*[#   4]+0.004*[#  11]+0.004*[#  12]+0.003*[#   7]
          +0.003*[#   8]+0.003*[#  15]+0.003*[#  16]+0.002*[#  10]+0.001*[#   2]
          +0.001*[#  14]+0.001*[#   6]
    |psi|^2 = 0.035
==== e(  10) =     3.41930 eV ==== 
     psi = 0.004*[#   6]+0.004*[#   2]+0.004*[#  14]+0.004*[#  10]+0.001*[#   7]
          +0.001*[#   8]+0.001*[#  15]+0.001*[#  16]+0.001*[#   3]+0.001*[#   4]
          +0.001*[#  11]+0.001*[#  12]
    |psi|^2 = 0.026
==== e(  11) =     4.49483 eV ==== 

    |psi|^2 = 0.003
==== e(  12) =     5.63384 eV ==== 

    |psi|^2 = 0.005
==== e(  13) =     6.05382 eV ==== 
     psi = 0.002*[#   2]+0.002*[#   6]+0.002*[#  10]+0.002*[#  14]
    |psi|^2 = 0.012
==== e(  14) =     7.82986 eV ==== 
     psi = 0.046*[#  11]+0.046*[#  12]+0.045*[#   3]+0.045*[#   4]+0.022*[#  15]
          +0.022*[#  16]+0.021*[#   7]+0.021*[#   8]+0.020*[#   1]+0.018*[#   9]
          +0.010*[#   5]+0.009*[#  13]+0.004*[#   6]+0.003*[#   2]+0.002*[#  10]
          +0.002*[#  14]
    |psi|^2 = 0.333
==== e(  15) =     7.87587 eV ==== 
     psi = 0.092*[#   7]+0.092*[#   8]+0.090*[#  15]+0.090*[#  16]+0.087*[#   3]
          +0.087*[#   4]+0.086*[#  11]+0.086*[#  12]+0.033*[#  13]+0.030*[#   9]
          +0.030*[#   5]+0.027*[#   1]+0.001*[#   2]
    |psi|^2 = 0.831
==== e(  16) =     8.00391 eV ==== 
     psi = 0.083*[#  15]+0.083*[#  16]+0.081*[#   7]+0.081*[#   8]+0.063*[#  11]
          +0.063*[#  12]+0.062*[#   3]+0.062*[#   4]+0.027*[#   5]+0.026*[#  13]
          +0.021*[#   1]+0.019*[#   9]+0.002*[#  10]+0.002*[#  14]
    |psi|^2 = 0.675

 k =   0.0000000000  0.1539600718  0.0000000000
==== e(   1) =   -19.73405 eV ==== 
     psi = 0.236*[#   1]+0.236*[#   9]+0.188*[#   5]+0.188*[#  13]+0.018*[#   3]
          +0.018*[#   4]+0.018*[#  11]+0.018*[#  12]+0.015*[#   7]+0.015*[#   8]
          +0.015*[#  15]+0.015*[#  16]
    |psi|^2 = 0.982
==== e(   2) =   -19.56434 eV ==== 
     psi = 0.240*[#   5]+0.239*[#  13]+0.192*[#   1]+0.192*[#   9]+0.017*[#   7]
          +0.017*[#   8]+0.017*[#  15]+0.017*[#  16]+0.014*[#   3]+0.014*[#   4]
          +0.014*[#  11]+0.014*[#  12]
    |psi|^2 = 0.988
==== e(   3) =    -8.21521 eV ==== 
     psi = 0.245*[#   2]+0.244*[#  10]+0.237*[#   6]+0.236*[#  14]
    |psi|^2 = 0.965
==== e(   4) =    -7.15724 eV ==== 
     psi = 0.248*[#  14]+0.247*[#   6]+0.240*[#  10]+0.239*[#   2]
    |psi|^2 = 0.976
==== e(   5) =    -5.19849 eV ==== 
     psi = 0.178*[#  11]+0.178*[#  12]+0.177*[#   3]+0.177*[#   4]+0.054*[#  15]
          +0.054*[#  16]+0.053*[#   7]+0.053*[#   8]+0.029*[#   1]+0.028*[#   9]
          +0.009*[#   5]+0.008*[#  13]
    |psi|^2 = 0.996
==== e(   6) =    -5.16229 eV ==== 
     psi = 0.178*[#   7]+0.178*[#   8]+0.177*[#  15]+0.177*[#  16]+0.053*[#   3]
          +0.053*[#   4]+0.053*[#  11]+0.053*[#  12]+0.029*[#  13]+0.029*[#   5]
          +0.009*[#   9]+0.008*[#   1]
    |psi|^2 = 0.996
==== e(   7) =    -4.42908 eV ==== 
     psi = 0.212*[#   3]+0.212*[#   4]+0.212*[#  11]+0.212*[#  12]+0.038*[#   7]
          +0.038*[#   8]+0.037*[#  15]+0.037*[#  16]
    |psi|^2 = 0.998
==== e(   8) =    -4.40108 eV ==== 
     psi = 0.212*[#   7]+0.212*[#   8]+0.212*[#  15]+0.212*[#  16]+0.037*[#   3]
          +0.037*[#   4]+0.038*[#  11]+0.038*[#  12]
    |psi|^2 = 0.998
==== e(   9) =     3.12570 eV ==== 
     psi = 0.004*[#   3]+0.004*[#   4]+0.004*[#  11]+0.004*[#  12]+0.004*[#   7]
          +0.004*[#   8]+0.004*[#  15]+0.004*[#  16]+0.001*[#  10]+0.001*[#   2]
          +0.001*[#  14]+0.001*[#   6]
    |psi|^2 = 0.038
==== e(  10) =     3.55217 eV ==== 
     psi = 0.004*[#   6]+0.004*[#   2]+0.004*[#  14]+0.004*[#  10]+0.001*[#   7]
          +0.001*[#   8]+0.001*[#  15]+0.001*[#  16]+0.001*[#   3]+0.001*[#   4]
          +0.001*[#  11]+0.001*[#  12]
    |psi|^2 = 0.026
==== e(  11) =     4.63063 eV ==== 

    |psi|^2 = 0.004
==== e(  12) =     5.76840 eV ==== 

    |psi|^2 = 0.005
==== e(  13) =     6.17887 eV ==== 
     psi = 0.002*[#   2]+0.002*[#   6]+0.001*[#  10]+0.001*[#  14]
    |psi|^2 = 0.012
==== e(  14) =     7.84793 eV ==== 
     psi = 0.110*[#  11]+0.110*[#  12]+0.110*[#   3]+0.110*[#   4]+0.060*[#  15]
          +0.060*[#  16]+0.060*[#   7]+0.060*[#   8]+0.054*[#   1]+0.053*[#   9]
          +0.029*[#   5]+0.028*[#  13]+0.002*[#   6]+0.001*[#   2]
    |psi|^2 = 0.846
==== e(  15) =     7.89628 eV ==== 
     psi = 0.086*[#   7]+0.086*[#   8]+0.086*[#  15]+0.086*[#  16]+0.044*[#  13]
          +0.043*[#   5]+0.042*[#   3]+0.042*[#   4]+0.041*[#  11]+0.041*[#  12]
          +0.022*[#   9]+0.020*[#   1]+0.003*[#   2]+0.002*[#   6]
    |psi|^2 = 0.644
==== e(  16) =     8.06728 eV ==== 
     psi = 0.038*[#  15]+0.038*[#  16]+0.037*[#   7]+0.037*[#   8]+0.032*[#  11]
          +0.032*[#  12]+0.031*[#   3]+0.031*[#   4]+0.016*[#   5]+0.014*[#  13]
          +0.013*[#   1]+0.012*[#   9]+0.005*[#  10]+0.004*[#  14]+0.001*[#   6]
          +0.001*[#   2]
    |psi|^2 = 0.342

 k =   0.0000000000  0.1732050808  0.0000000000
==== e(   1) =   -19.62279 eV ==== 
     psi = 0.229*[#   1]+0.228*[#   9]+0.182*[#   5]+0.182*[#  13]+0.022*[#   3]
          +0.022*[#   4]+0.022*[#  11]+0.022*[#  12]+0.018*[#   7]+0.018*[#   8]
          +0.018*[#  15]+0.018*[#  16]
    |psi|^2 = 0.982
==== e(   2) =   -19.45421 eV ==== 
     psi = 0.233*[#   5]+0.233*[#  13]+0.186*[#   1]+0.186*[#   9]+0.021*[#   7]
          +0.021*[#   8]+0.021*[#  15]+0.021*[#  16]+0.016*[#   3]+0.016*[#   4]
          +0.016*[#  11]+0.016*[#  12]
    |psi|^2 = 0.988
==== e(   3) =    -8.08110 eV ==== 
     psi = 0.246*[#   2]+0.245*[#  10]+0.238*[#   6]+0.237*[#  14]
    |psi|^2 = 0.967
==== e(   4) =    -7.02806 eV ==== 
     psi = 0.248*[#  14]+0.248*[#   6]+0.240*[#  10]+0.240*[#   2]
    |psi|^2 = 0.978
==== e(   5) =    -5.55741 eV ==== 
     psi = 0.170*[#  11]+0.170*[#  12]+0.169*[#   3]+0.169*[#   4]+0.058*[#  15]
          +0.058*[#  16]+0.057*[#   7]+0.057*[#   8]+0.034*[#   1]+0.033*[#   9]
          +0.012*[#   5]+0.011*[#  13]
    |psi|^2 = 0.996
==== e(   6) =    -5.51797 eV ==== 
     psi = 0.170*[#   7]+0.170*[#   8]+0.168*[#  15]+0.168*[#  16]+0.058*[#   3]
          +0.058*[#   4]+0.057*[#  11]+0.057*[#  12]+0.034*[#  13]+0.034*[#   5]
          +0.012*[#   9]+0.011*[#   1]
    |psi|^2 = 0.995
==== e(   7) =    -4.59953 eV ==== 
     psi = 0.208*[#   3]+0.208*[#   4]+0.208*[#  11]+0.208*[#  12]+0.041*[#   7]
          +0.041*[#   8]+0.041*[#  15]+0.041*[#  16]
    |psi|^2 = 0.998
==== e(   8) =    -4.57036 eV ==== 
     psi = 0.208*[#   7]+0.208*[#   8]+0.208*[#  15]+0.208*[#  16]+0.041*[#   3]
          +0.041*[#   4]+0.041*[#  11]+0.041*[#  12]
    |psi|^2 = 0.998
==== e(   9) =     3.27531 eV ==== 
     psi = 0.005*[#   3]+0.005*[#   4]+0.005*[#  11]+0.005*[#  12]+0.004*[#   7]
          +0.004*[#   8]+0.004*[#  15]+0.004*[#  16]+0.001*[#  10]+0.001*[#   2]
          +0.001*[#  14]+0.001*[#   6]
    |psi|^2 = 0.041
==== e(  10) =     3.70261 eV ==== 
     psi = 0.004*[#   6]+0.003*[#   2]+0.003*[#  14]+0.003*[#  10]+0.002*[#   7]
          +0.002*[#   8]+0.002*[#  15]+0.002*[#  16]+0.001*[#   3]+0.001*[#   4]
          +0.001*[#  11]+0.001*[#  12]
    |psi|^2 = 0.026
==== e(  11) =     4.78449 eV ==== 

    |psi|^2 = 0.004
==== e(  12) =     5.92073 eV ==== 

    |psi|^2 = 0.005
==== e(  13) =     6.31992 eV ==== 
     psi = 0.002*[#   2]+0.002*[#   6]+0.002*[#  10]+0.001*[#  14]
    |psi|^2 = 0.012
==== e(  14) =     7.82160 eV ==== 
     psi = 0.102*[#   3]+0.102*[#   4]+0.102*[#  11]+0.102*[#  12]+0.067*[#   7]
          +0.067*[#   8]+0.067*[#  15]+0.067*[#  16]+0.063*[#   1]+0.063*[#   9]
          +0.041*[#   5]+0.041*[#  13]+0.002*[#   6]+0.001*[#   2]
    |psi|^2 = 0.889
==== e(  15) =     7.90390 eV ==== 
     psi = 0.092*[#  15]+0.092*[#  16]+0.092*[#   7]+0.092*[#   8]+0.059*[#  13]
          +0.059*[#   5]+0.058*[#  11]+0.058*[#  12]+0.058*[#   3]+0.058*[#   4]
          +0.038*[#   9]+0.038*[#   1]+0.003*[#   2]+0.002*[#   6]
    |psi|^2 = 0.798
==== e(  16) =     8.17623 eV ==== 
     psi = 0.013*[#  15]+0.013*[#  16]+0.013*[#   7]+0.013*[#   8]+0.012*[#  11]
          +0.012*[#  12]+0.012*[#   3]+0.012*[#   4]+0.007*[#  14]+0.007*[#  10]
          +0.006*[#   5]+0.006*[#   1]+0.006*[#  13]+0.005*[#   9]+0.002*[#   2]
          +0.002*[#   6]
    |psi|^2 = 0.143

 k =   0.0000000000  0.1924500897  0.0000000000
==== e(   1) =   -19.49863 eV ==== 
     psi = 0.222*[#   1]+0.221*[#   9]+0.176*[#   5]+0.176*[#  13]+0.026*[#   3]
          +0.026*[#   4]+0.026*[#  11]+0.026*[#  12]+0.020*[#   7]+0.020*[#   8]
          +0.021*[#  15]+0.021*[#  16]
    |psi|^2 = 0.981
==== e(   2) =   -19.33146 eV ==== 
     psi = 0.226*[#   5]+0.226*[#  13]+0.180*[#   1]+0.180*[#   9]+0.024*[#   7]
          +0.024*[#   8]+0.024*[#  15]+0.024*[#  16]+0.019*[#   3]+0.019*[#   4]
          +0.019*[#  11]+0.019*[#  12]
    |psi|^2 = 0.988
==== e(   3) =    -7.93179 eV ==== 
     psi = 0.247*[#   2]+0.245*[#  10]+0.239*[#   6]+0.237*[#  14]
    |psi|^2 = 0.970
==== e(   4) =    -6.88428 eV ==== 
     psi = 0.249*[#  14]+0.248*[#   6]+0.241*[#  10]+0.240*[#   2]
    |psi|^2 = 0.980
==== e(   5) =    -5.93779 eV ==== 
     psi = 0.162*[#  11]+0.162*[#  12]+0.161*[#   3]+0.161*[#   4]+0.062*[#  15]
          +0.062*[#  16]+0.060*[#   7]+0.060*[#   8]+0.039*[#   1]+0.038*[#   9]
          +0.015*[#   5]+0.014*[#  13]
    |psi|^2 = 0.996
==== e(   6) =    -5.89464 eV ==== 
     psi = 0.162*[#   7]+0.162*[#   8]+0.160*[#  15]+0.160*[#  16]+0.062*[#   3]
          +0.062*[#   4]+0.060*[#  11]+0.060*[#  12]+0.039*[#  13]+0.038*[#   5]
          +0.015*[#   9]+0.014*[#   1]
    |psi|^2 = 0.995
==== e(   7) =    -4.77551 eV ==== 
     psi = 0.206*[#   3]+0.206*[#   4]+0.206*[#  11]+0.206*[#  12]+0.043*[#   7]
          +0.043*[#   8]+0.043*[#  15]+0.043*[#  16]
    |psi|^2 = 0.997
==== e(   8) =    -4.74555 eV ==== 
     psi = 0.206*[#   7]+0.206*[#   8]+0.206*[#  15]+0.206*[#  16]+0.043*[#   3]
          +0.043*[#   4]+0.043*[#  11]+0.043*[#  12]
    |psi|^2 = 0.997
==== e(   9) =     3.44243 eV ==== 
     psi = 0.005*[#   3]+0.005*[#   4]+0.005*[#  11]+0.005*[#  12]+0.005*[#   7]
          +0.005*[#   8]+0.005*[#  15]+0.005*[#  16]+0.001*[#  10]+0.001*[#   2]
          +0.001*[#  14]+0.001*[#   6]
    |psi|^2 = 0.043
==== e(  10) =     3.87055 eV ==== 
     psi = 0.003*[#   6]+0.003*[#   2]+0.003*[#  14]+0.003*[#  10]+0.002*[#   7]
          +0.002*[#   8]+0.002*[#  15]+0.002*[#  16]+0.002*[#   3]+0.002*[#   4]
          +0.002*[#  11]+0.002*[#  12]
    |psi|^2 = 0.026
==== e(  11) =     4.95644 eV ==== 

    |psi|^2 = 0.004
==== e(  12) =     6.09079 eV ==== 

    |psi|^2 = 0.004
==== e(  13) =     6.47642 eV ==== 
     psi = 0.002*[#   2]+0.002*[#   6]+0.001*[#  10]+0.001*[#  14]+0.001*[#   1]
          +0.001*[#   5]+0.001*[#   9]
    |psi|^2 = 0.012
==== e(  14) =     7.78149 eV ==== 
     psi = 0.094*[#   3]+0.094*[#   4]+0.093*[#  11]+0.093*[#  12]+0.073*[#   1]
          +0.073*[#   9]+0.067*[#   7]+0.067*[#   8]+0.066*[#  15]+0.066*[#  16]
          +0.052*[#   5]+0.052*[#  13]+0.003*[#   6]+0.002*[#   2]
    |psi|^2 = 0.894
==== e(  15) =     7.88678 eV ==== 
     psi = 0.089*[#  15]+0.089*[#  16]+0.088*[#   7]+0.088*[#   8]+0.072*[#   5]
          +0.071*[#  13]+0.063*[#  11]+0.063*[#  12]+0.062*[#   3]+0.062*[#   4]
          +0.051*[#   1]+0.050*[#   9]+0.004*[#   2]+0.003*[#   6]
    |psi|^2 = 0.857
==== e(  16) =     8.30568 eV ==== 
     psi = 0.022*[#  10]+0.020*[#  14]+0.009*[#   2]+0.008*[#   6]+0.005*[#  15]
          +0.005*[#  16]+0.005*[#   7]+0.005*[#   8]+0.005*[#  11]+0.005*[#  12]
          +0.005*[#   3]+0.005*[#   4]+0.003*[#   5]+0.003*[#   1]+0.002*[#  13]
          +0.002*[#   9]
    |psi|^2 = 0.109

 k =   0.0000000000  0.2116950987  0.0000000000
==== e(   1) =   -19.36152 eV ==== 
     psi = 0.215*[#   1]+0.215*[#   9]+0.171*[#   5]+0.170*[#  13]+0.029*[#   3]
          +0.029*[#   4]+0.029*[#  11]+0.029*[#  12]+0.023*[#   7]+0.023*[#   8]
          +0.023*[#  15]+0.023*[#  16]
    |psi|^2 = 0.981
==== e(   2) =   -19.19577 eV ==== 
     psi = 0.219*[#   5]+0.219*[#  13]+0.175*[#   1]+0.175*[#   9]+0.028*[#   7]
          +0.028*[#   8]+0.028*[#  15]+0.028*[#  16]+0.022*[#   3]+0.022*[#   4]
          +0.022*[#  11]+0.022*[#  12]
    |psi|^2 = 0.988
==== e(   3) =    -7.76711 eV ==== 
     psi = 0.247*[#   2]+0.246*[#  10]+0.239*[#   6]+0.238*[#  14]
    |psi|^2 = 0.972
==== e(   4) =    -6.72601 eV ==== 
     psi = 0.249*[#  14]+0.249*[#   6]+0.241*[#  10]+0.241*[#   2]
    |psi|^2 = 0.982
==== e(   5) =    -6.33518 eV ==== 
     psi = 0.156*[#  11]+0.156*[#  12]+0.154*[#   3]+0.154*[#   4]+0.064*[#  15]
          +0.064*[#  16]+0.062*[#   7]+0.062*[#   8]+0.044*[#   1]+0.043*[#   9]
          +0.018*[#   5]+0.017*[#  13]
    |psi|^2 = 0.995
==== e(   6) =    -6.28899 eV ==== 
     psi = 0.156*[#   7]+0.156*[#   8]+0.154*[#  15]+0.154*[#  16]+0.064*[#   3]
          +0.064*[#   4]+0.062*[#  11]+0.062*[#  12]+0.044*[#  13]+0.043*[#   5]
          +0.018*[#   9]+0.018*[#   1]
    |psi|^2 = 0.994
==== e(   7) =    -4.95430 eV ==== 
     psi = 0.204*[#   3]+0.204*[#   4]+0.204*[#  11]+0.204*[#  12]+0.046*[#   7]
          +0.046*[#   8]+0.045*[#  15]+0.045*[#  16]
    |psi|^2 = 0.997
==== e(   8) =    -4.92351 eV ==== 
     psi = 0.204*[#   7]+0.204*[#   8]+0.204*[#  15]+0.204*[#  16]+0.046*[#   3]
          +0.046*[#   4]+0.046*[#  11]+0.046*[#  12]
    |psi|^2 = 0.997
==== e(   9) =     3.62707 eV ==== 
     psi = 0.005*[#   3]+0.005*[#   4]+0.005*[#  11]+0.005*[#  12]+0.005*[#   7]
          +0.005*[#   8]+0.005*[#  15]+0.005*[#  16]+0.001*[#  10]+0.001*[#   2]
          +0.001*[#  14]
    |psi|^2 = 0.044
==== e(  10) =     4.05586 eV ==== 
     psi = 0.003*[#   6]+0.003*[#   2]+0.003*[#  14]+0.003*[#  10]+0.002*[#   7]
          +0.002*[#   8]+0.002*[#  15]+0.002*[#  16]+0.002*[#   3]+0.002*[#   4]
          +0.002*[#  11]+0.002*[#  12]
    |psi|^2 = 0.025
==== e(  11) =     5.14644 eV ==== 

    |psi|^2 = 0.004
==== e(  12) =     6.27832 eV ==== 

    |psi|^2 = 0.004
==== e(  13) =     6.64724 eV ==== 
     psi = 0.002*[#   2]+0.002*[#   6]+0.002*[#   1]+0.002*[#  10]+0.001*[#   5]
          +0.001*[#   9]+0.002*[#  14]+0.001*[#  13]
    |psi|^2 = 0.014
==== e(  14) =     7.73029 eV ==== 
     psi = 0.085*[#   3]+0.085*[#   4]+0.085*[#  11]+0.085*[#  12]+0.083*[#   1]
          +0.083*[#   9]+0.064*[#   7]+0.064*[#   8]+0.063*[#  15]+0.063*[#  16]
          +0.062*[#   5]+0.062*[#  13]+0.005*[#   6]+0.004*[#   2]+0.002*[#  14]
          +0.002*[#  10]
    |psi|^2 = 0.895
==== e(  15) =     7.85119 eV ==== 
     psi = 0.083*[#  15]+0.083*[#  16]+0.081*[#   7]+0.081*[#   8]+0.081*[#   5]
          +0.080*[#  13]+0.061*[#  11]+0.061*[#  12]+0.060*[#   1]+0.060*[#   3]
          +0.060*[#   4]+0.059*[#   9]+0.011*[#   2]+0.008*[#   6]+0.007*[#  10]
          +0.005*[#  14]
    |psi|^2 = 0.882
==== e(  16) =     8.25678 eV ==== 
     psi = 0.243*[#  10]+0.213*[#   2]+0.208*[#  14]+0.179*[#   6]+0.002*[#  13]
          +0.002*[#   9]+0.001*[#   5]+0.001*[#   7]+0.001*[#   8]
    |psi|^2 = 0.857

 k =   0.0000000000  0.2309401077  0.0000000000
==== e(   1) =   -19.21164 eV ==== 
     psi = 0.208*[#   1]+0.208*[#   9]+0.165*[#   5]+0.165*[#  13]+0.032*[#   3]
          +0.032*[#   4]+0.033*[#  11]+0.033*[#  12]+0.026*[#   7]+0.026*[#   8]
          +0.026*[#  15]+0.026*[#  16]
    |psi|^2 = 0.981
==== e(   2) =   -19.04743 eV ==== 
     psi = 0.213*[#   5]+0.213*[#  13]+0.169*[#   1]+0.169*[#   9]+0.031*[#   7]
          +0.031*[#   8]+0.031*[#  15]+0.031*[#  16]+0.025*[#   3]+0.025*[#   4]
          +0.025*[#  11]+0.025*[#  12]
    |psi|^2 = 0.987
==== e(   3) =    -7.58749 eV ==== 
     psi = 0.248*[#   2]+0.247*[#  10]+0.240*[#   6]+0.238*[#  14]
    |psi|^2 = 0.975
==== e(   4) =    -6.74774 eV ==== 
     psi = 0.150*[#  11]+0.150*[#  12]+0.148*[#   3]+0.148*[#   4]+0.066*[#  15]
          +0.066*[#  16]+0.064*[#   7]+0.064*[#   8]+0.048*[#   1]+0.048*[#   9]
          +0.021*[#   5]+0.020*[#  13]
    |psi|^2 = 0.995
==== e(   5) =    -6.69830 eV ==== 
     psi = 0.150*[#   7]+0.150*[#   8]+0.147*[#  15]+0.147*[#  16]+0.066*[#   3]
          +0.066*[#   4]+0.064*[#  11]+0.064*[#  12]+0.049*[#  13]+0.047*[#   5]
          +0.022*[#   9]+0.020*[#   1]
    |psi|^2 = 0.994
==== e(   6) =    -6.55277 eV ==== 
     psi = 0.249*[#  14]+0.248*[#   6]+0.241*[#  10]+0.240*[#   2]
    |psi|^2 = 0.984
==== e(   7) =    -5.13376 eV ==== 
     psi = 0.202*[#   3]+0.202*[#   4]+0.202*[#  11]+0.202*[#  12]+0.047*[#   7]
          +0.047*[#   8]+0.047*[#  15]+0.047*[#  16]
    |psi|^2 = 0.997
==== e(   8) =    -5.10224 eV ==== 
     psi = 0.202*[#   7]+0.202*[#   8]+0.202*[#  15]+0.202*[#  16]+0.047*[#   3]
          +0.047*[#   4]+0.047*[#  11]+0.047*[#  12]
    |psi|^2 = 0.997
==== e(   9) =     3.82914 eV ==== 
     psi = 0.005*[#   3]+0.005*[#   4]+0.005*[#  11]+0.005*[#  12]+0.005*[#   7]
          +0.005*[#   8]+0.005*[#  15]+0.005*[#  16]+0.001*[#  10]+0.001*[#  14]
          
    |psi|^2 = 0.043
==== e(  10) =     4.25834 eV ==== 
     psi = 0.003*[#   6]+0.003*[#   2]+0.002*[#  14]+0.002*[#  10]+0.002*[#   7]
          +0.002*[#   8]+0.002*[#  15]+0.002*[#  16]+0.002*[#   3]+0.002*[#   4]
          +0.002*[#  11]+0.002*[#  12]
    |psi|^2 = 0.024
==== e(  11) =     5.35445 eV ==== 

    |psi|^2 = 0.004
==== e(  12) =     6.48268 eV ==== 
     psi = 0.001*[#   2]+0.001*[#   6]
    |psi|^2 = 0.005
==== e(  13) =     6.82952 eV ==== 
     psi = 0.003*[#   1]+0.003*[#   2]+0.003*[#   5]+0.003*[#   6]+0.003*[#   9]
          +0.002*[#  10]+0.002*[#  13]+0.002*[#  14]
    |psi|^2 = 0.021
==== e(  14) =     7.66721 eV ==== 
     psi = 0.091*[#   1]+0.089*[#   9]+0.077*[#   3]+0.077*[#   4]+0.076*[#  11]
          +0.076*[#  12]+0.069*[#   5]+0.068*[#  13]+0.058*[#   7]+0.058*[#   8]
          +0.058*[#  15]+0.058*[#  16]+0.015*[#   6]+0.011*[#  14]+0.010*[#   2]
          +0.007*[#  10]
    |psi|^2 = 0.897
==== e(  15) =     7.75698 eV ==== 
     psi = 0.118*[#   2]+0.113*[#  10]+0.094*[#   6]+0.092*[#  14]+0.054*[#   5]
          +0.052*[#  13]+0.047*[#  15]+0.047*[#  16]+0.045*[#   7]+0.045*[#   8]
          +0.040*[#   1]+0.038*[#   9]+0.035*[#  11]+0.035*[#  12]+0.033*[#   3]
          +0.033*[#   4]
    |psi|^2 = 0.921
==== e(  16) =     7.91492 eV ==== 
     psi = 0.142*[#  10]+0.130*[#  14]+0.129*[#   2]+0.118*[#   6]+0.042*[#  13]
          +0.039*[#   5]+0.034*[#   9]+0.033*[#   7]+0.033*[#   8]+0.032*[#  15]
          +0.032*[#  16]+0.032*[#   1]+0.027*[#   3]+0.027*[#   4]+0.026*[#  11]
          +0.026*[#  12]
    |psi|^2 = 0.904

 k =   0.0000000000  0.2501851166  0.0000000000
==== e(   1) =   -19.04906 eV ==== 
     psi = 0.202*[#   1]+0.202*[#   9]+0.159*[#   5]+0.159*[#  13]+0.036*[#  11]
          +0.036*[#  12]+0.036*[#   3]+0.036*[#   4]+0.029*[#  15]+0.029*[#  16]
          +0.028*[#   7]+0.028*[#   8]
    |psi|^2 = 0.981
==== e(   2) =   -18.88658 eV ==== 
     psi = 0.206*[#   5]+0.206*[#  13]+0.164*[#   1]+0.164*[#   9]+0.035*[#   7]
          +0.035*[#   8]+0.034*[#  15]+0.034*[#  16]+0.027*[#   3]+0.027*[#   4]
          +0.027*[#  11]+0.027*[#  12]
    |psi|^2 = 0.987
==== e(   3) =    -7.39357 eV ==== 
     psi = 0.249*[#   2]+0.247*[#  10]+0.240*[#   6]+0.239*[#  14]
    |psi|^2 = 0.978
==== e(   4) =    -7.17095 eV ==== 
     psi = 0.144*[#  11]+0.144*[#  12]+0.142*[#   3]+0.142*[#   4]+0.068*[#  15]
          +0.068*[#  16]+0.066*[#   7]+0.066*[#   8]+0.053*[#   1]+0.052*[#   9]
          +0.025*[#   5]+0.024*[#  13]
    |psi|^2 = 0.994
==== e(   5) =    -7.11744 eV ==== 
     psi = 0.144*[#   7]+0.144*[#   8]+0.142*[#  15]+0.142*[#  16]+0.068*[#   3]
          +0.068*[#   4]+0.066*[#  11]+0.066*[#  12]+0.053*[#  13]+0.052*[#   5]
          +0.025*[#   9]+0.024*[#   1]
    |psi|^2 = 0.993
==== e(   6) =    -6.36695 eV ==== 
     psi = 0.251*[#  14]+0.250*[#   6]+0.242*[#  10]+0.241*[#   2]
    |psi|^2 = 0.986
==== e(   7) =    -5.31156 eV ==== 
     psi = 0.200*[#   3]+0.200*[#   4]+0.200*[#  11]+0.200*[#  12]+0.049*[#   7]
          +0.049*[#   8]+0.049*[#  15]+0.049*[#  16]
    |psi|^2 = 0.997
==== e(   8) =    -5.27938 eV ==== 
     psi = 0.200*[#   7]+0.200*[#   8]+0.200*[#  15]+0.200*[#  16]+0.049*[#   3]
          +0.049*[#   4]+0.049*[#  11]+0.049*[#  12]
    |psi|^2 = 0.997
==== e(   9) =     4.04860 eV ==== 
     psi = 0.005*[#   3]+0.005*[#   4]+0.005*[#  11]+0.005*[#  12]+0.005*[#   7]
          +0.005*[#   8]+0.005*[#  15]+0.005*[#  16]+0.001*[#  10]+0.001*[#  14]
          
    |psi|^2 = 0.042
==== e(  10) =     4.47755 eV ==== 
     psi = 0.003*[#   2]+0.003*[#   6]+0.002*[#  14]+0.002*[#  10]+0.002*[#   7]
          +0.002*[#   8]+0.002*[#  15]+0.002*[#  16]+0.002*[#   3]+0.002*[#   4]
          +0.002*[#  11]+0.002*[#  12]
    |psi|^2 = 0.023
==== e(  11) =     5.58042 eV ==== 

    |psi|^2 = 0.003
==== e(  12) =     6.70123 eV ==== 
     psi = 0.003*[#   2]+0.003*[#   6]+0.002*[#  10]+0.002*[#  14]
    |psi|^2 = 0.012
==== e(  13) =     7.01276 eV ==== 
     psi = 0.009*[#  10]+0.008*[#   2]+0.008*[#  14]+0.008*[#   6]+0.005*[#   1]
          +0.005*[#   5]+0.005*[#   9]+0.005*[#  13]
    |psi|^2 = 0.056
==== e(  14) =     7.39800 eV ==== 
     psi = 0.235*[#  10]+0.232*[#   2]+0.211*[#  14]+0.208*[#   6]+0.006*[#   1]
          +0.006*[#   5]+0.005*[#   9]+0.005*[#  13]+0.004*[#  11]+0.004*[#  12]
          +0.004*[#  15]+0.004*[#  16]+0.004*[#   3]+0.004*[#   4]+0.003*[#   7]
          +0.003*[#   8]
    |psi|^2 = 0.939
==== e(  15) =     7.57759 eV ==== 
     psi = 0.072*[#   1]+0.072*[#   9]+0.064*[#   6]+0.063*[#   2]+0.060*[#  13]
          +0.060*[#   5]+0.057*[#  14]+0.056*[#  10]+0.053*[#   3]+0.053*[#   4]
          +0.052*[#  11]+0.052*[#  12]+0.044*[#   7]+0.044*[#   8]+0.043*[#  15]
          +0.043*[#  16]
    |psi|^2 = 0.889
==== e(  16) =     7.75144 eV ==== 
     psi = 0.171*[#  14]+0.166*[#   6]+0.143*[#  10]+0.140*[#   2]+0.037*[#   1]
          +0.037*[#   9]+0.032*[#   5]+0.032*[#  13]+0.025*[#   3]+0.025*[#   4]
          +0.024*[#  11]+0.024*[#  12]+0.021*[#   7]+0.021*[#   8]+0.021*[#  15]
          +0.021*[#  16]
    |psi|^2 = 0.938

 k =   0.0000000000  0.2694301256  0.0000000000
==== e(   1) =   -18.87382 eV ==== 
     psi = 0.196*[#   1]+0.196*[#   9]+0.154*[#   5]+0.154*[#  13]+0.039*[#  11]
          +0.039*[#  12]+0.039*[#   3]+0.039*[#   4]+0.031*[#  15]+0.031*[#  16]
          +0.031*[#   7]+0.031*[#   8]
    |psi|^2 = 0.980
==== e(   2) =   -18.71316 eV ==== 
     psi = 0.200*[#   5]+0.200*[#  13]+0.159*[#   9]+0.158*[#   1]+0.038*[#   7]
          +0.038*[#   8]+0.038*[#  15]+0.038*[#  16]+0.030*[#   3]+0.030*[#   4]
          +0.030*[#  11]+0.030*[#  12]
    |psi|^2 = 0.987
==== e(   3) =    -7.60304 eV ==== 
     psi = 0.139*[#  11]+0.139*[#  12]+0.137*[#   3]+0.137*[#   4]+0.069*[#  15]
          +0.069*[#  16]+0.068*[#   7]+0.068*[#   8]+0.057*[#   1]+0.056*[#   9]
          +0.028*[#   5]+0.028*[#  13]
    |psi|^2 = 0.994
==== e(   4) =    -7.54544 eV ==== 
     psi = 0.139*[#   7]+0.139*[#   8]+0.136*[#  15]+0.136*[#  16]+0.069*[#   3]
          +0.069*[#   4]+0.067*[#  11]+0.067*[#  12]+0.057*[#  13]+0.056*[#   5]
          +0.029*[#   9]+0.028*[#   1]
    |psi|^2 = 0.993
==== e(   5) =    -7.18446 eV ==== 
     psi = 0.250*[#   2]+0.248*[#  10]+0.241*[#   6]+0.240*[#  14]
    |psi|^2 = 0.980
==== e(   6) =    -6.16730 eV ==== 
     psi = 0.251*[#  14]+0.250*[#   6]+0.243*[#  10]+0.242*[#   2]
    |psi|^2 = 0.988
==== e(   7) =    -5.48630 eV ==== 
     psi = 0.199*[#   3]+0.199*[#   4]+0.199*[#  11]+0.199*[#  12]+0.051*[#   7]
          +0.051*[#   8]+0.051*[#  15]+0.051*[#  16]
    |psi|^2 = 0.997
==== e(   8) =    -5.45339 eV ==== 
     psi = 0.199*[#   7]+0.199*[#   8]+0.199*[#  15]+0.199*[#  16]+0.051*[#   3]
          +0.051*[#   4]+0.051*[#  11]+0.051*[#  12]
    |psi|^2 = 0.997
==== e(   9) =     4.28534 eV ==== 
     psi = 0.005*[#   3]+0.005*[#   4]+0.005*[#  11]+0.005*[#  12]+0.004*[#   7]
          +0.004*[#   8]+0.004*[#  15]+0.004*[#  16]+0.001*[#  10]+0.001*[#  14]
          
    |psi|^2 = 0.040
==== e(  10) =     4.71270 eV ==== 
     psi = 0.003*[#   2]+0.003*[#   6]+0.002*[#  10]+0.002*[#  14]+0.002*[#   7]
          +0.002*[#   8]+0.002*[#  15]+0.002*[#  16]+0.002*[#   3]+0.002*[#   4]
          +0.002*[#  11]+0.002*[#  12]
    |psi|^2 = 0.023
==== e(  11) =     5.82423 eV ==== 

    |psi|^2 = 0.003
==== e(  12) =     6.86781 eV ==== 
     psi = 0.121*[#   2]+0.120*[#  10]+0.110*[#   6]+0.109*[#  14]
    |psi|^2 = 0.465
==== e(  13) =     7.02333 eV ==== 
     psi = 0.136*[#  10]+0.117*[#   2]+0.108*[#  14]+0.089*[#   6]
    |psi|^2 = 0.455
==== e(  14) =     7.11949 eV ==== 
     psi = 0.134*[#   6]+0.109*[#  14]+0.107*[#   2]+0.082*[#  10]+0.012*[#   1]
          +0.011*[#   5]+0.011*[#   9]+0.010*[#  13]+0.004*[#  11]+0.004*[#  12]
          +0.003*[#  15]+0.003*[#  16]+0.003*[#   3]+0.003*[#   4]+0.003*[#   7]
          +0.003*[#   8]
    |psi|^2 = 0.503
==== e(  15) =     7.37114 eV ==== 
     psi = 0.125*[#  14]+0.119*[#   6]+0.115*[#  10]+0.110*[#   2]+0.016*[#   9]
          +0.016*[#   1]+0.014*[#   5]+0.014*[#  13]+0.006*[#   3]+0.006*[#   4]
          +0.006*[#  11]+0.006*[#  12]+0.006*[#   7]+0.006*[#   8]+0.005*[#  15]
          +0.005*[#  16]
    |psi|^2 = 0.574
==== e(  16) =     7.58115 eV ==== 
     psi = 0.099*[#   9]+0.098*[#   1]+0.090*[#  13]+0.088*[#   5]+0.061*[#   3]
          +0.061*[#   4]+0.059*[#  11]+0.059*[#  12]+0.055*[#   7]+0.055*[#   8]
          +0.053*[#  15]+0.053*[#  16]+0.019*[#  14]+0.017*[#   6]+0.016*[#  10]
          +0.014*[#   2]
    |psi|^2 = 0.898

 k =   0.0000000000  0.2886751346  0.0000000000
==== e(   1) =   -18.68603 eV ==== 
     psi = 0.190*[#   1]+0.190*[#   9]+0.149*[#   5]+0.149*[#  13]+0.042*[#  11]
          +0.042*[#  12]+0.042*[#   3]+0.042*[#   4]+0.033*[#  15]+0.033*[#  16]
          +0.033*[#   7]+0.033*[#   8]
    |psi|^2 = 0.980
==== e(   2) =   -18.52739 eV ==== 
     psi = 0.194*[#   5]+0.194*[#  13]+0.154*[#   9]+0.153*[#   1]+0.041*[#   7]
          +0.041*[#   8]+0.041*[#  15]+0.041*[#  16]+0.032*[#   3]+0.032*[#   4]
          +0.032*[#  11]+0.032*[#  12]
    |psi|^2 = 0.987
==== e(   3) =    -8.04045 eV ==== 
     psi = 0.134*[#  11]+0.134*[#  12]+0.132*[#   3]+0.132*[#   4]+0.070*[#  15]
          +0.070*[#  16]+0.068*[#   7]+0.068*[#   8]+0.061*[#   1]+0.060*[#   9]
          +0.032*[#   5]+0.031*[#  13]
    |psi|^2 = 0.993
==== e(   4) =    -7.97890 eV ==== 
     psi = 0.134*[#   7]+0.134*[#   8]+0.132*[#  15]+0.132*[#  16]+0.070*[#   3]
          +0.070*[#   4]+0.068*[#  11]+0.068*[#  12]+0.061*[#  13]+0.060*[#   5]
          +0.032*[#   9]+0.031*[#   1]
    |psi|^2 = 0.993
==== e(   5) =    -6.96186 eV ==== 
     psi = 0.251*[#   2]+0.249*[#  10]+0.242*[#   6]+0.240*[#  14]
    |psi|^2 = 0.983
==== e(   6) =    -5.95463 eV ==== 
     psi = 0.252*[#  14]+0.251*[#   6]+0.244*[#  10]+0.242*[#   2]
    |psi|^2 = 0.989
==== e(   7) =    -5.65552 eV ==== 
     psi = 0.198*[#   3]+0.198*[#   4]+0.198*[#  11]+0.198*[#  12]+0.051*[#   7]
          +0.051*[#   8]+0.051*[#  15]+0.051*[#  16]
    |psi|^2 = 0.997
==== e(   8) =    -5.62238 eV ==== 
     psi = 0.198*[#   7]+0.198*[#   8]+0.198*[#  15]+0.198*[#  16]+0.051*[#   3]
          +0.051*[#   4]+0.051*[#  11]+0.051*[#  12]
    |psi|^2 = 0.997
==== e(   9) =     4.53920 eV ==== 
     psi = 0.004*[#   3]+0.004*[#   4]+0.004*[#  11]+0.004*[#  12]+0.004*[#   7]
          +0.004*[#   8]+0.004*[#  15]+0.004*[#  16]+0.001*[#  10]+0.001*[#  14]
          
    |psi|^2 = 0.038
==== e(  10) =     4.96146 eV ==== 
     psi = 0.004*[#   2]+0.004*[#   6]+0.003*[#  10]+0.003*[#  14]+0.002*[#   7]
          +0.002*[#   8]+0.002*[#  15]+0.002*[#  16]+0.001*[#   3]+0.001*[#   4]
          +0.001*[#  11]+0.001*[#  12]
    |psi|^2 = 0.026
==== e(  11) =     6.08553 eV ==== 

    |psi|^2 = 0.004
==== e(  12) =     6.48588 eV ==== 
     psi = 0.244*[#  10]+0.237*[#   2]+0.219*[#  14]+0.213*[#   6]
    |psi|^2 = 0.918
==== e(  13) =     6.80213 eV ==== 
     psi = 0.238*[#   6]+0.227*[#  14]+0.214*[#   2]+0.204*[#  10]+0.003*[#   1]
          +0.002*[#   5]+0.002*[#   9]+0.002*[#  13]+0.001*[#  11]+0.001*[#  12]
          +0.001*[#  15]+0.001*[#  16]
    |psi|^2 = 0.900
==== e(  14) =     7.20835 eV ==== 
     psi = 0.008*[#   1]+0.008*[#   9]+0.007*[#   5]+0.007*[#  13]+0.005*[#  14]
          +0.004*[#  10]+0.004*[#   6]+0.003*[#   2]+0.002*[#   3]+0.002*[#   4]
          +0.002*[#  11]+0.002*[#  12]+0.002*[#   7]+0.002*[#   8]+0.002*[#  15]
          +0.002*[#  16]
    |psi|^2 = 0.061
==== e(  15) =     7.41857 eV ==== 
     psi = 0.062*[#   1]+0.060*[#   9]+0.047*[#   5]+0.044*[#  13]+0.022*[#  11]
          +0.022*[#  12]+0.021*[#   3]+0.021*[#   4]+0.017*[#  14]+0.017*[#  10]
          +0.015*[#  15]+0.015*[#  16]+0.014*[#   7]+0.014*[#   8]+0.012*[#   2]
          +0.012*[#   6]
    |psi|^2 = 0.415
==== e(  16) =     7.52132 eV ==== 
     psi = 0.101*[#  13]+0.097*[#   5]+0.093*[#   9]+0.089*[#   1]+0.054*[#   7]
          +0.054*[#   8]+0.052*[#   3]+0.052*[#   4]+0.051*[#  15]+0.051*[#  16]
          +0.049*[#  11]+0.049*[#  12]+0.002*[#   6]+0.001*[#  14]+0.001*[#   2]
          +0.001*[#  10]
    |psi|^2 = 0.799

 k =   0.0000000000  0.3079201436  0.0000000000
==== e(   1) =   -18.48610 eV ==== 
     psi = 0.185*[#   1]+0.184*[#   9]+0.145*[#   5]+0.144*[#  13]+0.045*[#  11]
          +0.045*[#  12]+0.045*[#   3]+0.045*[#   4]+0.035*[#  15]+0.035*[#  16]
          +0.035*[#   7]+0.035*[#   8]
    |psi|^2 = 0.980
==== e(   2) =   -18.32960 eV ==== 
     psi = 0.189*[#   5]+0.189*[#  13]+0.149*[#   9]+0.149*[#   1]+0.044*[#   7]
          +0.044*[#   8]+0.044*[#  15]+0.044*[#  16]+0.034*[#   3]+0.034*[#   4]
          +0.034*[#  11]+0.034*[#  12]
    |psi|^2 = 0.987
==== e(   3) =    -8.48192 eV ==== 
     psi = 0.130*[#  11]+0.130*[#  12]+0.128*[#   3]+0.128*[#   4]+0.071*[#  15]
          +0.071*[#  16]+0.069*[#   7]+0.069*[#   8]+0.064*[#   1]+0.064*[#   9]
          +0.035*[#   5]+0.034*[#  13]
    |psi|^2 = 0.993
==== e(   4) =    -8.41656 eV ==== 
     psi = 0.130*[#   7]+0.130*[#   8]+0.127*[#  15]+0.127*[#  16]+0.071*[#   3]
          +0.071*[#   4]+0.069*[#  11]+0.069*[#  12]+0.065*[#  13]+0.064*[#   5]
          +0.036*[#   9]+0.035*[#   1]
    |psi|^2 = 0.992
==== e(   5) =    -6.72578 eV ==== 
     psi = 0.251*[#   2]+0.249*[#  10]+0.243*[#   6]+0.241*[#  14]
    |psi|^2 = 0.985
==== e(   6) =    -5.81917 eV ==== 
     psi = 0.197*[#   3]+0.197*[#   4]+0.197*[#  11]+0.197*[#  12]+0.052*[#   7]
          +0.052*[#   8]+0.052*[#  15]+0.052*[#  16]
    |psi|^2 = 0.997
==== e(   7) =    -5.78555 eV ==== 
     psi = 0.197*[#   7]+0.197*[#   8]+0.197*[#  15]+0.197*[#  16]+0.052*[#   3]
          +0.052*[#   4]+0.052*[#  11]+0.052*[#  12]
    |psi|^2 = 0.997
==== e(   8) =    -5.73001 eV ==== 
     psi = 0.253*[#  14]+0.251*[#   6]+0.244*[#  10]+0.242*[#   2]
    |psi|^2 = 0.991
==== e(   9) =     4.80981 eV ==== 
     psi = 0.004*[#   3]+0.004*[#   4]+0.004*[#  11]+0.004*[#  12]+0.004*[#   7]
          +0.004*[#   8]+0.004*[#  15]+0.004*[#  16]+0.001*[#  10]+0.001*[#  14]
          
    |psi|^2 = 0.035
==== e(  10) =     5.21356 eV ==== 
     psi = 0.012*[#   2]+0.012*[#   6]+0.009*[#  10]+0.009*[#  14]+0.001*[#   7]
          +0.001*[#   8]+0.001*[#  15]+0.001*[#  16]+0.001*[#   3]+0.001*[#   4]
          +0.001*[#  11]+0.001*[#  12]
    |psi|^2 = 0.053
==== e(  11) =     6.03977 eV ==== 
     psi = 0.240*[#  10]+0.231*[#   2]+0.217*[#  14]+0.208*[#   6]
    |psi|^2 = 0.900
==== e(  12) =     6.34606 eV ==== 
     psi = 0.089*[#   6]+0.085*[#  14]+0.080*[#   2]+0.077*[#  10]
    |psi|^2 = 0.336
==== e(  13) =     6.40044 eV ==== 
     psi = 0.158*[#   6]+0.154*[#  14]+0.144*[#   2]+0.139*[#  10]
    |psi|^2 = 0.599
==== e(  14) =     7.35891 eV ==== 
     psi = 0.105*[#   1]+0.104*[#   9]+0.080*[#   5]+0.079*[#  13]+0.042*[#   3]
          +0.042*[#   4]+0.041*[#  11]+0.041*[#  12]+0.032*[#   7]+0.032*[#   8]
          +0.031*[#  15]+0.031*[#  16]+0.004*[#  14]+0.003*[#  10]+0.001*[#   6]
          
    |psi|^2 = 0.670
==== e(  15) =     7.47550 eV ==== 
     psi = 0.087*[#  13]+0.086*[#   5]+0.073*[#   9]+0.072*[#   1]+0.031*[#  15]
          +0.031*[#  16]+0.030*[#   7]+0.030*[#   8]+0.026*[#  11]+0.026*[#  12]
          +0.026*[#   3]+0.026*[#   4]+0.004*[#  10]+0.003*[#  14]+0.002*[#   2]
          +0.001*[#   6]
    |psi|^2 = 0.554
==== e(  16) =     7.55530 eV ==== 
     psi = 0.048*[#  13]+0.046*[#   5]+0.037*[#   9]+0.035*[#   1]+0.026*[#   7]
          +0.026*[#   8]+0.025*[#  15]+0.025*[#  16]+0.021*[#   3]+0.021*[#   4]
          +0.020*[#  11]+0.020*[#  12]+0.002*[#   6]+0.002*[#   2]
    |psi|^2 = 0.357

 k =   0.0000000000  0.3271651525  0.0000000000
==== e(   1) =   -18.27394 eV ==== 
     psi = 0.180*[#   1]+0.179*[#   9]+0.140*[#   5]+0.140*[#  13]+0.048*[#  11]
          +0.048*[#  12]+0.048*[#   3]+0.048*[#   4]+0.038*[#  15]+0.038*[#  16]
          +0.037*[#   7]+0.037*[#   8]
    |psi|^2 = 0.980
==== e(   2) =   -18.11954 eV ==== 
     psi = 0.184*[#   5]+0.184*[#  13]+0.144*[#   9]+0.144*[#   1]+0.046*[#   7]
          +0.046*[#   8]+0.046*[#  15]+0.046*[#  16]+0.036*[#   3]+0.036*[#   4]
          +0.036*[#  11]+0.036*[#  12]
    |psi|^2 = 0.987
==== e(   3) =    -8.92428 eV ==== 
     psi = 0.126*[#  11]+0.126*[#  12]+0.124*[#   3]+0.124*[#   4]+0.071*[#  15]
          +0.071*[#  16]+0.069*[#   7]+0.069*[#   8]+0.068*[#   1]+0.067*[#   9]
          +0.038*[#   5]+0.037*[#  13]
    |psi|^2 = 0.992
==== e(   4) =    -8.85602 eV ==== 
     psi = 0.126*[#   7]+0.126*[#   8]+0.124*[#  15]+0.124*[#  16]+0.071*[#   3]
          +0.071*[#   4]+0.069*[#  13]+0.069*[#  11]+0.069*[#  12]+0.068*[#   5]
          +0.039*[#   9]+0.038*[#   1]
    |psi|^2 = 0.992
==== e(   5) =    -6.47667 eV ==== 
     psi = 0.252*[#   2]+0.250*[#  10]+0.243*[#   6]+0.241*[#  14]
    |psi|^2 = 0.987
==== e(   6) =    -5.97532 eV ==== 
     psi = 0.196*[#   3]+0.196*[#   4]+0.196*[#  11]+0.196*[#  12]+0.053*[#   7]
          +0.053*[#   8]+0.053*[#  15]+0.053*[#  16]
    |psi|^2 = 0.997
==== e(   7) =    -5.94118 eV ==== 
     psi = 0.196*[#   7]+0.196*[#   8]+0.196*[#  15]+0.196*[#  16]+0.053*[#   3]
          +0.053*[#   4]+0.053*[#  11]+0.053*[#  12]
    |psi|^2 = 0.997
==== e(   8) =    -5.49419 eV ==== 
     psi = 0.253*[#  14]+0.251*[#   6]+0.245*[#  10]+0.242*[#   2]
    |psi|^2 = 0.992
==== e(   9) =     5.09512 eV ==== 
     psi = 0.005*[#  10]+0.004*[#  14]+0.003*[#   3]+0.003*[#   4]+0.003*[#  11]
          +0.003*[#  12]+0.003*[#   7]+0.003*[#   8]+0.003*[#  15]+0.003*[#  16]
          +0.002*[#   2]+0.001*[#   6]
    |psi|^2 = 0.038
==== e(  10) =     5.35250 eV ==== 
     psi = 0.124*[#   2]+0.118*[#   6]+0.112*[#  10]+0.106*[#  14]
    |psi|^2 = 0.466
==== e(  11) =     5.70794 eV ==== 
     psi = 0.145*[#  10]+0.128*[#  14]+0.124*[#   2]+0.108*[#   6]
    |psi|^2 = 0.512
==== e(  12) =     5.95164 eV ==== 
     psi = 0.244*[#   6]+0.231*[#  14]+0.220*[#   2]+0.208*[#  10]
    |psi|^2 = 0.905
==== e(  13) =     6.66300 eV ==== 

    |psi|^2 = 0.006
==== e(  14) =     7.31301 eV ==== 
     psi = 0.137*[#   1]+0.135*[#   9]+0.108*[#   5]+0.106*[#  13]+0.051*[#   3]
          +0.051*[#   4]+0.051*[#  11]+0.051*[#  12]+0.040*[#   7]+0.040*[#   8]
          +0.040*[#  15]+0.040*[#  16]+0.002*[#  14]+0.002*[#  10]
    |psi|^2 = 0.856
==== e(  15) =     7.46256 eV ==== 
     psi = 0.133*[#  13]+0.130*[#   5]+0.104*[#   9]+0.101*[#   1]+0.047*[#  15]
          +0.047*[#  16]+0.046*[#   7]+0.046*[#   8]+0.036*[#  11]+0.036*[#  12]
          +0.036*[#   3]+0.036*[#   4]+0.001*[#  10]
    |psi|^2 = 0.801
==== e(  16) =     7.80999 eV ==== 
     psi = 0.004*[#   1]+0.004*[#   5]+0.004*[#   9]+0.004*[#  13]+0.004*[#   3]
          +0.004*[#   4]+0.003*[#   7]+0.003*[#   8]+0.003*[#  11]+0.003*[#  12]
          +0.003*[#  15]+0.003*[#  16]+0.001*[#   2]+0.001*[#   6]+0.001*[#  10]
          +0.001*[#  14]
    |psi|^2 = 0.048

 k =   0.0000000000  0.3464101615  0.0000000000
==== e(   1) =   -18.04957 eV ==== 
     psi = 0.175*[#   1]+0.175*[#   9]+0.136*[#   5]+0.135*[#  13]+0.050*[#  11]
          +0.050*[#  12]+0.050*[#   3]+0.050*[#   4]+0.039*[#  15]+0.039*[#  16]
          +0.039*[#   7]+0.039*[#   8]
    |psi|^2 = 0.980
==== e(   2) =   -17.89739 eV ==== 
     psi = 0.179*[#  13]+0.179*[#   5]+0.140*[#   9]+0.140*[#   1]+0.049*[#   7]
          +0.049*[#   8]+0.049*[#  15]+0.049*[#  16]+0.038*[#   3]+0.038*[#   4]
          +0.038*[#  11]+0.038*[#  12]
    |psi|^2 = 0.987
==== e(   3) =    -9.36755 eV ==== 
     psi = 0.122*[#  11]+0.122*[#  12]+0.121*[#   3]+0.121*[#   4]+0.072*[#   1]
          +0.071*[#  15]+0.071*[#  16]+0.071*[#   9]+0.069*[#   7]+0.069*[#   8]
          +0.041*[#   5]+0.041*[#  13]
    |psi|^2 = 0.992
==== e(   4) =    -9.29539 eV ==== 
     psi = 0.122*[#   7]+0.122*[#   8]+0.120*[#  15]+0.120*[#  16]+0.072*[#  13]
          +0.071*[#   5]+0.071*[#   3]+0.071*[#   4]+0.069*[#  11]+0.069*[#  12]
          +0.042*[#   9]+0.041*[#   1]
    |psi|^2 = 0.991
==== e(   5) =    -6.21523 eV ==== 
     psi = 0.253*[#   2]+0.250*[#  10]+0.244*[#   6]+0.241*[#  14]
    |psi|^2 = 0.990
==== e(   6) =    -6.12350 eV ==== 
     psi = 0.195*[#   3]+0.195*[#   4]+0.194*[#  11]+0.194*[#  12]+0.055*[#   7]
          +0.055*[#   8]+0.055*[#  15]+0.055*[#  16]
    |psi|^2 = 0.997
==== e(   7) =    -6.08868 eV ==== 
     psi = 0.195*[#   7]+0.195*[#   8]+0.194*[#  15]+0.194*[#  16]+0.055*[#   3]
          +0.055*[#   4]+0.055*[#  11]+0.055*[#  12]
    |psi|^2 = 0.997
==== e(   8) =    -5.24741 eV ==== 
     psi = 0.254*[#  14]+0.251*[#   6]+0.245*[#  10]+0.242*[#   2]
    |psi|^2 = 0.994
==== e(   9) =     5.00123 eV ==== 
     psi = 0.228*[#   2]+0.227*[#  10]+0.211*[#   6]+0.210*[#  14]
    |psi|^2 = 0.877
==== e(  10) =     5.39130 eV ==== 
     psi = 0.045*[#   6]+0.038*[#   2]+0.037*[#  14]+0.031*[#  10]+0.003*[#   3]
          +0.003*[#   4]+0.002*[#   7]+0.002*[#   8]+0.003*[#  11]+0.003*[#  12]
          +0.002*[#  15]+0.002*[#  16]
    |psi|^2 = 0.172
==== e(  11) =     5.49381 eV ==== 
     psi = 0.202*[#  14]+0.193*[#  10]+0.192*[#   6]+0.183*[#   2]
    |psi|^2 = 0.777
==== e(  12) =     5.90826 eV ==== 
     psi = 0.024*[#   6]+0.022*[#   2]+0.021*[#  14]+0.019*[#  10]
    |psi|^2 = 0.092
==== e(  13) =     6.97195 eV ==== 
     psi = 0.005*[#   1]+0.005*[#   9]+0.004*[#   5]+0.004*[#  13]
    |psi|^2 = 0.021
==== e(  14) =     7.24964 eV ==== 
     psi = 0.143*[#   1]+0.142*[#   9]+0.117*[#   5]+0.115*[#  13]+0.049*[#   3]
          +0.049*[#   4]+0.048*[#  11]+0.048*[#  12]+0.040*[#   7]+0.040*[#   8]
          +0.039*[#  15]+0.039*[#  16]+0.001*[#  14]+0.001*[#  10]
    |psi|^2 = 0.874
==== e(  15) =     7.41968 eV ==== 
     psi = 0.142*[#  13]+0.139*[#   5]+0.114*[#   9]+0.112*[#   1]+0.047*[#  15]
          +0.047*[#  16]+0.046*[#   7]+0.046*[#   8]+0.037*[#  11]+0.037*[#  12]
          +0.037*[#   3]+0.037*[#   4]
    |psi|^2 = 0.842
==== e(  16) =     8.11693 eV ==== 
     psi = 0.002*[#   3]+0.002*[#   4]+0.002*[#   7]+0.002*[#   8]+0.002*[#  11]
          +0.002*[#  12]+0.002*[#  15]+0.002*[#  16]+0.001*[#   1]+0.001*[#   5]
          +0.001*[#   9]+0.001*[#  13]
    |psi|^2 = 0.022

 k =   0.0000000000  0.3656551705  0.0000000000
==== e(   1) =   -17.81331 eV ==== 
     psi = 0.171*[#   1]+0.170*[#   9]+0.132*[#   5]+0.132*[#  13]+0.053*[#  11]
          +0.053*[#  12]+0.053*[#   3]+0.053*[#   4]+0.041*[#  15]+0.041*[#  16]
          +0.041*[#   7]+0.041*[#   8]
    |psi|^2 = 0.980
==== e(   2) =   -17.66339 eV ==== 
     psi = 0.175*[#  13]+0.174*[#   5]+0.136*[#   9]+0.136*[#   1]+0.052*[#   7]
          +0.052*[#   8]+0.051*[#  15]+0.051*[#  16]+0.040*[#   3]+0.040*[#   4]
          +0.040*[#  11]+0.040*[#  12]
    |psi|^2 = 0.987
==== e(   3) =    -9.80924 eV ==== 
     psi = 0.119*[#  11]+0.119*[#  12]+0.117*[#   3]+0.117*[#   4]+0.075*[#   1]
          +0.074*[#   9]+0.071*[#  15]+0.071*[#  16]+0.069*[#   7]+0.069*[#   8]
          +0.045*[#   5]+0.044*[#  13]
    |psi|^2 = 0.991
==== e(   4) =    -9.73334 eV ==== 
     psi = 0.119*[#   7]+0.119*[#   8]+0.117*[#  15]+0.117*[#  16]+0.075*[#  13]
          +0.075*[#   5]+0.071*[#   3]+0.071*[#   4]+0.069*[#  11]+0.069*[#  12]
          +0.045*[#   9]+0.044*[#   1]
    |psi|^2 = 0.991
==== e(   5) =    -6.26198 eV ==== 
     psi = 0.194*[#   3]+0.194*[#   4]+0.194*[#  11]+0.194*[#  12]+0.056*[#   7]
          +0.056*[#   8]+0.055*[#  15]+0.055*[#  16]
    |psi|^2 = 0.997
==== e(   6) =    -6.22682 eV ==== 
     psi = 0.194*[#   7]+0.194*[#   8]+0.194*[#  15]+0.194*[#  16]+0.056*[#   3]
          +0.056*[#   4]+0.055*[#  11]+0.055*[#  12]
    |psi|^2 = 0.997
==== e(   7) =    -5.94227 eV ==== 
     psi = 0.254*[#   2]+0.251*[#  10]+0.245*[#   6]+0.241*[#  14]
    |psi|^2 = 0.991
==== e(   8) =    -4.99129 eV ==== 
     psi = 0.255*[#  14]+0.251*[#   6]+0.246*[#  10]+0.242*[#   2]
    |psi|^2 = 0.995
==== e(   9) =     4.54306 eV ==== 
     psi = 0.238*[#   2]+0.237*[#  10]+0.221*[#   6]+0.220*[#  14]
    |psi|^2 = 0.917
==== e(  10) =     5.03337 eV ==== 
     psi = 0.243*[#  14]+0.241*[#   6]+0.226*[#  10]+0.225*[#   2]
    |psi|^2 = 0.937
==== e(  11) =     5.72960 eV ==== 
     psi = 0.002*[#   3]+0.002*[#   4]+0.002*[#   7]+0.002*[#   8]+0.002*[#  11]
          +0.002*[#  12]+0.002*[#  15]+0.002*[#  16]+0.002*[#   2]+0.001*[#  10]
          +0.001*[#   6]+0.001*[#  14]
    |psi|^2 = 0.025
==== e(  12) =     6.20633 eV ==== 
     psi = 0.007*[#   6]+0.007*[#   2]+0.007*[#  14]+0.007*[#  10]
    |psi|^2 = 0.034
==== e(  13) =     7.17118 eV ==== 
     psi = 0.145*[#   1]+0.142*[#   9]+0.114*[#   5]+0.111*[#  13]+0.042*[#   3]
          +0.042*[#   4]+0.042*[#  11]+0.042*[#  12]+0.034*[#   7]+0.034*[#   8]
          +0.033*[#  15]+0.033*[#  16]+0.001*[#  14]
    |psi|^2 = 0.817
==== e(  14) =     7.27773 eV ==== 
     psi = 0.071*[#  13]+0.068*[#   5]+0.054*[#   9]+0.052*[#   1]+0.018*[#   7]
          +0.018*[#   8]+0.018*[#  15]+0.018*[#  16]+0.014*[#   3]+0.014*[#   4]
          +0.014*[#  11]+0.014*[#  12]
    |psi|^2 = 0.375
==== e(  15) =     7.40834 eV ==== 
     psi = 0.094*[#  13]+0.093*[#   5]+0.079*[#   9]+0.079*[#   1]+0.031*[#  15]
          +0.031*[#  16]+0.031*[#   7]+0.031*[#   8]+0.027*[#  11]+0.027*[#  12]
          +0.026*[#   3]+0.026*[#   4]
    |psi|^2 = 0.576
==== e(  16) =     8.44550 eV ==== 
     psi = 0.001*[#   3]+0.001*[#   4]+0.001*[#   7]+0.001*[#   8]+0.001*[#  11]
          +0.001*[#  12]+0.001*[#  15]+0.001*[#  16]
    |psi|^2 = 0.013

 k =   0.0000000000  0.3849001795  0.0000000000
==== e(   1) =   -17.56551 eV ==== 
     psi = 0.167*[#   1]+0.166*[#   9]+0.128*[#   5]+0.128*[#  13]+0.055*[#  11]
          +0.055*[#  12]+0.055*[#   3]+0.055*[#   4]+0.043*[#  15]+0.043*[#  16]
          +0.042*[#   7]+0.042*[#   8]
    |psi|^2 = 0.981
==== e(   2) =   -17.41821 eV ==== 
     psi = 0.171*[#  13]+0.170*[#   5]+0.132*[#   9]+0.132*[#   1]+0.054*[#   7]
          +0.054*[#   8]+0.054*[#  15]+0.054*[#  16]+0.042*[#   3]+0.042*[#   4]
          +0.041*[#  11]+0.041*[#  12]
    |psi|^2 = 0.987
==== e(   3) =   -10.24778 eV ==== 
     psi = 0.116*[#  11]+0.116*[#  12]+0.114*[#   3]+0.114*[#   4]+0.078*[#   1]
          +0.077*[#   9]+0.071*[#  15]+0.071*[#  16]+0.069*[#   7]+0.069*[#   8]
          +0.047*[#   5]+0.047*[#  13]
    |psi|^2 = 0.991
==== e(   4) =   -10.16842 eV ==== 
     psi = 0.116*[#   7]+0.116*[#   8]+0.114*[#  15]+0.114*[#  16]+0.079*[#  13]
          +0.078*[#   5]+0.071*[#   3]+0.071*[#   4]+0.069*[#  11]+0.069*[#  12]
          +0.048*[#   9]+0.047*[#   1]
    |psi|^2 = 0.991
==== e(   5) =    -6.39077 eV ==== 
     psi = 0.193*[#   3]+0.193*[#   4]+0.193*[#  11]+0.193*[#  12]+0.056*[#   7]
          +0.056*[#   8]+0.056*[#  15]+0.056*[#  16]
    |psi|^2 = 0.996
==== e(   6) =    -6.35526 eV ==== 
     psi = 0.193*[#   7]+0.193*[#   8]+0.193*[#  15]+0.193*[#  16]+0.056*[#   3]
          +0.056*[#   4]+0.056*[#  11]+0.056*[#  12]
    |psi|^2 = 0.997
==== e(   7) =    -5.65953 eV ==== 
     psi = 0.255*[#   2]+0.251*[#  10]+0.246*[#   6]+0.241*[#  14]
    |psi|^2 = 0.993
==== e(   8) =    -4.72758 eV ==== 
     psi = 0.255*[#  14]+0.251*[#   6]+0.246*[#  10]+0.242*[#   2]
    |psi|^2 = 0.995
==== e(   9) =     4.07528 eV ==== 
     psi = 0.241*[#   2]+0.238*[#  10]+0.225*[#   6]+0.222*[#  14]
    |psi|^2 = 0.926
==== e(  10) =     4.58795 eV ==== 
     psi = 0.245*[#  14]+0.242*[#   6]+0.228*[#  10]+0.226*[#   2]
    |psi|^2 = 0.943
==== e(  11) =     6.06518 eV ==== 
     psi = 0.002*[#   3]+0.002*[#   4]+0.002*[#   7]+0.002*[#   8]+0.002*[#  11]
          +0.002*[#  12]+0.002*[#  15]+0.002*[#  16]
    |psi|^2 = 0.018
==== e(  12) =     6.53581 eV ==== 
     psi = 0.004*[#   2]+0.004*[#   6]+0.004*[#  14]+0.004*[#  10]+0.002*[#   1]
          +0.003*[#   5]+0.002*[#   9]+0.002*[#  13]
    |psi|^2 = 0.026
==== e(  13) =     7.11904 eV ==== 
     psi = 0.157*[#   1]+0.155*[#   9]+0.127*[#   5]+0.125*[#  13]+0.044*[#   3]
          +0.044*[#   4]+0.043*[#  11]+0.043*[#  12]+0.036*[#   7]+0.036*[#   8]
          +0.035*[#  15]+0.035*[#  16]
    |psi|^2 = 0.883
==== e(  14) =     7.29282 eV ==== 
     psi = 0.156*[#  13]+0.153*[#   5]+0.126*[#   9]+0.123*[#   1]+0.041*[#  15]
          +0.041*[#  16]+0.040*[#   7]+0.040*[#   8]+0.033*[#  11]+0.033*[#  12]
          +0.032*[#   3]+0.032*[#   4]
    |psi|^2 = 0.851
==== e(  15) =     7.68555 eV ==== 
     psi = 0.005*[#   5]+0.005*[#  13]+0.005*[#   1]+0.005*[#   9]+0.003*[#  16]
          +0.003*[#   3]+0.003*[#   4]+0.003*[#   7]+0.003*[#   8]+0.003*[#  11]
          +0.003*[#  12]+0.003*[#  15]
    |psi|^2 = 0.044
==== e(  16) =     8.79280 eV ==== 

    |psi|^2 = 0.010

 k =   0.0000000000  0.4041451884  0.0000000000
==== e(   1) =   -17.30641 eV ==== 
     psi = 0.163*[#   1]+0.163*[#   9]+0.125*[#   5]+0.124*[#  13]+0.057*[#  11]
          +0.057*[#  12]+0.057*[#   3]+0.057*[#   4]+0.044*[#  15]+0.044*[#  16]
          +0.044*[#   7]+0.044*[#   8]
    |psi|^2 = 0.981
==== e(   2) =   -17.16168 eV ==== 
     psi = 0.167*[#  13]+0.167*[#   5]+0.129*[#   9]+0.128*[#   1]+0.056*[#   7]
          +0.056*[#   8]+0.056*[#  15]+0.056*[#  16]+0.043*[#   3]+0.043*[#   4]
          +0.043*[#  11]+0.043*[#  12]
    |psi|^2 = 0.987
==== e(   3) =   -10.68223 eV ==== 
     psi = 0.113*[#  11]+0.113*[#  12]+0.112*[#   3]+0.112*[#   4]+0.081*[#   1]
          +0.080*[#   9]+0.071*[#  15]+0.071*[#  16]+0.069*[#   7]+0.069*[#   8]
          +0.050*[#   5]+0.049*[#  13]
    |psi|^2 = 0.990
==== e(   4) =   -10.59921 eV ==== 
     psi = 0.113*[#   7]+0.113*[#   8]+0.111*[#  15]+0.111*[#  16]+0.081*[#  13]
          +0.081*[#   5]+0.071*[#   3]+0.071*[#   4]+0.069*[#  11]+0.069*[#  12]
          +0.051*[#   9]+0.050*[#   1]
    |psi|^2 = 0.990
==== e(   5) =    -6.50858 eV ==== 
     psi = 0.193*[#   3]+0.193*[#   4]+0.193*[#  11]+0.193*[#  12]+0.056*[#   7]
          +0.056*[#   8]+0.056*[#  15]+0.056*[#  16]
    |psi|^2 = 0.996
==== e(   6) =    -6.47293 eV ==== 
     psi = 0.193*[#   7]+0.193*[#   8]+0.193*[#  15]+0.193*[#  16]+0.056*[#   3]
          +0.056*[#   4]+0.056*[#  11]+0.056*[#  12]
    |psi|^2 = 0.997
==== e(   7) =    -5.36722 eV ==== 
     psi = 0.256*[#   2]+0.251*[#  10]+0.246*[#   6]+0.241*[#  14]
    |psi|^2 = 0.994
==== e(   8) =    -4.45761 eV ==== 
     psi = 0.256*[#  14]+0.251*[#   6]+0.247*[#  10]+0.241*[#   2]
    |psi|^2 = 0.996
==== e(   9) =     3.61164 eV ==== 
     psi = 0.242*[#   2]+0.238*[#  10]+0.227*[#   6]+0.223*[#  14]
    |psi|^2 = 0.930
==== e(  10) =     4.14515 eV ==== 
     psi = 0.246*[#  14]+0.242*[#   6]+0.230*[#  10]+0.226*[#   2]
    |psi|^2 = 0.945
==== e(  11) =     6.41495 eV ==== 
     psi = 0.003*[#   1]+0.003*[#   9]+0.003*[#   5]+0.003*[#  13]
    |psi|^2 = 0.019
==== e(  12) =     6.86585 eV ==== 
     psi = 0.024*[#   1]+0.024*[#   9]+0.023*[#   5]+0.023*[#  13]+0.003*[#  11]
          +0.003*[#  12]+0.003*[#   3]+0.003*[#   4]+0.003*[#  15]+0.003*[#  16]
          +0.002*[#   7]+0.002*[#   8]+0.002*[#  10]+0.002*[#  14]+0.002*[#   2]
          +0.002*[#   6]
    |psi|^2 = 0.123
==== e(  13) =     7.08581 eV ==== 
     psi = 0.141*[#   1]+0.140*[#   9]+0.111*[#   5]+0.110*[#  13]+0.039*[#   3]
          +0.039*[#   4]+0.038*[#  11]+0.038*[#  12]+0.032*[#   7]+0.032*[#   8]
          +0.031*[#  15]+0.031*[#  16]
    |psi|^2 = 0.785
==== e(  14) =     7.25124 eV ==== 
     psi = 0.164*[#  13]+0.161*[#   5]+0.132*[#   9]+0.130*[#   1]+0.041*[#  15]
          +0.041*[#  16]+0.040*[#   7]+0.040*[#   8]+0.033*[#  11]+0.033*[#  12]
          +0.032*[#   3]+0.032*[#   4]
    |psi|^2 = 0.879
==== e(  15) =     8.04862 eV ==== 
     psi = 0.001*[#   1]+0.001*[#   3]+0.001*[#   4]+0.001*[#   5]+0.001*[#   7]
          +0.001*[#   8]+0.001*[#   9]+0.001*[#  11]+0.001*[#  12]+0.001*[#  13]
          +0.001*[#  15]+0.001*[#  16]
    |psi|^2 = 0.016
==== e(  16) =     9.15800 eV ==== 

    |psi|^2 = 0.007

 k =   0.0000000000  0.4233901974  0.0000000000
==== e(   1) =   -17.03611 eV ==== 
     psi = 0.160*[#   1]+0.159*[#   9]+0.122*[#   5]+0.121*[#  13]+0.060*[#  11]
          +0.060*[#  12]+0.059*[#   3]+0.059*[#   4]+0.046*[#  15]+0.046*[#  16]
          +0.045*[#   7]+0.045*[#   8]
    |psi|^2 = 0.981
==== e(   2) =   -16.89451 eV ==== 
     psi = 0.164*[#  13]+0.163*[#   5]+0.125*[#   9]+0.125*[#   1]+0.058*[#   7]
          +0.058*[#   8]+0.058*[#  15]+0.058*[#  16]+0.044*[#   3]+0.044*[#   4]
          +0.044*[#  11]+0.044*[#  12]
    |psi|^2 = 0.987
==== e(   3) =   -11.11120 eV ==== 
     psi = 0.110*[#  11]+0.110*[#  12]+0.109*[#   3]+0.109*[#   4]+0.083*[#   1]
          +0.082*[#   9]+0.071*[#  15]+0.071*[#  16]+0.069*[#   7]+0.069*[#   8]
          +0.053*[#   5]+0.052*[#  13]
    |psi|^2 = 0.989
==== e(   4) =   -11.02444 eV ==== 
     psi = 0.110*[#   7]+0.110*[#   8]+0.108*[#  15]+0.108*[#  16]+0.084*[#  13]
          +0.083*[#   5]+0.070*[#   3]+0.070*[#   4]+0.069*[#  11]+0.069*[#  12]
          +0.054*[#   9]+0.053*[#   1]
    |psi|^2 = 0.990
==== e(   5) =    -6.61526 eV ==== 
     psi = 0.192*[#   3]+0.192*[#   4]+0.192*[#  11]+0.192*[#  12]+0.057*[#   7]
          +0.057*[#   8]+0.057*[#  15]+0.057*[#  16]
    |psi|^2 = 0.996
==== e(   6) =    -6.57945 eV ==== 
     psi = 0.192*[#   7]+0.192*[#   8]+0.192*[#  15]+0.192*[#  16]+0.057*[#   3]
          +0.057*[#   4]+0.057*[#  11]+0.057*[#  12]
    |psi|^2 = 0.996
==== e(   7) =    -5.06783 eV ==== 
     psi = 0.257*[#   2]+0.250*[#  10]+0.247*[#   6]+0.240*[#  14]
    |psi|^2 = 0.995
==== e(   8) =    -4.18458 eV ==== 
     psi = 0.258*[#  14]+0.250*[#   6]+0.248*[#  10]+0.240*[#   2]
    |psi|^2 = 0.997
==== e(   9) =     3.15861 eV ==== 
     psi = 0.244*[#   2]+0.237*[#  10]+0.229*[#   6]+0.222*[#  14]
    |psi|^2 = 0.933
==== e(  10) =     3.70927 eV ==== 
     psi = 0.247*[#  14]+0.241*[#   6]+0.232*[#  10]+0.226*[#   2]
    |psi|^2 = 0.946
==== e(  11) =     6.76435 eV ==== 
     psi = 0.021*[#   1]+0.020*[#   9]+0.017*[#   5]+0.017*[#  13]+0.001*[#   3]
          +0.001*[#   4]
    |psi|^2 = 0.082
==== e(  12) =     6.98122 eV ==== 
     psi = 0.140*[#   1]+0.140*[#   9]+0.125*[#   5]+0.125*[#  13]+0.031*[#  11]
          +0.031*[#  12]+0.030*[#   3]+0.030*[#   4]+0.027*[#  15]+0.027*[#  16]
          +0.026*[#   7]+0.026*[#   8]
    |psi|^2 = 0.762
==== e(  13) =     7.21080 eV ==== 
     psi = 0.145*[#  13]+0.143*[#   5]+0.135*[#   9]+0.134*[#   1]+0.033*[#   7]
          +0.033*[#   8]+0.033*[#  15]+0.033*[#  16]+0.032*[#   3]+0.032*[#   4]
          +0.032*[#  11]+0.032*[#  12]
    |psi|^2 = 0.821
==== e(  14) =     7.30520 eV ==== 
     psi = 0.023*[#  13]+0.023*[#   5]+0.014*[#   9]+0.014*[#   1]+0.010*[#  15]
          +0.010*[#  16]+0.010*[#   7]+0.010*[#   8]+0.007*[#  11]+0.007*[#  12]
          +0.007*[#   3]+0.007*[#   4]+0.002*[#   2]+0.002*[#   6]+0.002*[#  10]
          +0.002*[#  14]
    |psi|^2 = 0.147
==== e(  15) =     8.43377 eV ==== 

    |psi|^2 = 0.009
==== e(  16) =     9.54127 eV ==== 

    |psi|^2 = 0.006

 k =   0.0000000000  0.4426352064  0.0000000000
==== e(   1) =   -16.75538 eV ==== 
     psi = 0.157*[#   1]+0.157*[#   9]+0.119*[#   5]+0.118*[#  13]+0.061*[#  11]
          +0.061*[#  12]+0.061*[#   3]+0.061*[#   4]+0.047*[#  15]+0.047*[#  16]
          +0.046*[#   7]+0.046*[#   8]
    |psi|^2 = 0.982
==== e(   2) =   -16.61691 eV ==== 
     psi = 0.161*[#  13]+0.160*[#   5]+0.122*[#   9]+0.122*[#   1]+0.060*[#   7]
          +0.060*[#   8]+0.060*[#  15]+0.060*[#  16]+0.046*[#   3]+0.046*[#   4]
          +0.045*[#  11]+0.045*[#  12]
    |psi|^2 = 0.987
[...]
          +0.007*[#   3]+0.007*[#   4]
    |psi|^2 = 0.508
==== e(  16) =    12.34421 eV ==== 
     psi = 0.092*[#   9]+0.089*[#  13]+0.036*[#   3]+0.036*[#   4]+0.035*[#   7]
          +0.035*[#   8]+0.004*[#  11]+0.004*[#  12]+0.004*[#  15]+0.004*[#  16]
          +0.003*[#   1]+0.003*[#   5]
    |psi|^2 = 0.346

 k =   0.3000000000  0.5388602512  0.0000000000
==== e(   1) =   -13.90060 eV ==== 
     psi = 0.144*[#   1]+0.137*[#   9]+0.097*[#   5]+0.090*[#  13]+0.080*[#  11]
          +0.080*[#  12]+0.076*[#   3]+0.076*[#   4]+0.054*[#  15]+0.054*[#  16]
          +0.050*[#   7]+0.050*[#   8]
    |psi|^2 = 0.991
==== e(   2) =   -13.80508 eV ==== 
     psi = 0.145*[#  13]+0.140*[#   5]+0.098*[#   9]+0.093*[#   1]+0.079*[#   7]
          +0.079*[#   8]+0.076*[#  15]+0.076*[#  16]+0.053*[#   3]+0.053*[#   4]
          +0.050*[#  11]+0.050*[#  12]
    |psi|^2 = 0.993
==== e(   3) =   -12.67591 eV ==== 
     psi = 0.141*[#   9]+0.137*[#   1]+0.098*[#   3]+0.098*[#   4]+0.096*[#  11]
          +0.096*[#  12]+0.070*[#  13]+0.066*[#   5]+0.049*[#   7]+0.049*[#   8]
          +0.046*[#  15]+0.046*[#  16]
    |psi|^2 = 0.994
==== e(   4) =   -12.61986 eV ==== 
     psi = 0.141*[#   5]+0.138*[#  13]+0.098*[#  15]+0.098*[#  16]+0.096*[#   7]
          +0.096*[#   8]+0.070*[#   1]+0.067*[#   9]+0.049*[#  11]+0.049*[#  12]
          +0.046*[#   3]+0.046*[#   4]
    |psi|^2 = 0.994
==== e(   5) =   -10.88198 eV ==== 
     psi = 0.185*[#  11]+0.185*[#  12]+0.184*[#   3]+0.184*[#   4]+0.055*[#  15]
          +0.055*[#  16]+0.054*[#   7]+0.054*[#   8]+0.011*[#   1]+0.009*[#   9]
          +0.004*[#   5]+0.002*[#  13]
    |psi|^2 = 0.983
==== e(   6) =   -10.84682 eV ==== 
     psi = 0.185*[#   7]+0.185*[#   8]+0.184*[#  15]+0.184*[#  16]+0.055*[#   3]
          +0.055*[#   4]+0.054*[#  11]+0.054*[#  12]+0.012*[#  13]+0.010*[#   5]
          +0.005*[#   9]+0.003*[#   1]
    |psi|^2 = 0.983
==== e(   7) =    -1.61342 eV ==== 
     psi = 0.301*[#   2]+0.285*[#   6]+0.212*[#  10]+0.196*[#  14]
    |psi|^2 = 0.994
==== e(   8) =    -1.08271 eV ==== 
     psi = 0.309*[#  14]+0.295*[#  10]+0.204*[#   6]+0.187*[#   2]
    |psi|^2 = 0.995
==== e(   9) =     0.00596 eV ==== 
     psi = 0.301*[#  10]+0.280*[#  14]+0.217*[#   2]+0.192*[#   6]
    |psi|^2 = 0.990
==== e(  10) =     0.37137 eV ==== 
     psi = 0.312*[#   6]+0.288*[#   2]+0.206*[#  14]+0.184*[#  10]
    |psi|^2 = 0.990
==== e(  11) =     9.88703 eV ==== 
     psi = 0.008*[#  13]+0.007*[#   9]+0.002*[#   7]+0.002*[#   8]+0.001*[#   3]
          +0.001*[#   4]
    |psi|^2 = 0.021
==== e(  12) =    10.00196 eV ==== 
     psi = 0.008*[#   9]+0.006*[#  13]+0.002*[#   3]+0.002*[#   4]+0.001*[#   7]
          +0.001*[#   8]+0.001*[#  10]+0.001*[#  14]
    |psi|^2 = 0.023
==== e(  13) =    11.17326 eV ==== 
     psi = 0.019*[#   1]+0.019*[#   5]+0.008*[#   9]+0.008*[#  13]+0.005*[#  11]
          +0.005*[#  12]+0.005*[#  15]+0.005*[#  16]+0.002*[#   3]+0.002*[#   4]
          +0.002*[#   7]+0.002*[#   8]
    |psi|^2 = 0.082
==== e(  14) =    12.08243 eV ==== 
     psi = 0.109*[#   1]+0.103*[#   5]+0.035*[#   9]+0.035*[#  11]+0.035*[#  12]
          +0.034*[#  15]+0.034*[#  16]+0.033*[#  13]+0.010*[#   3]+0.010*[#   4]
          +0.009*[#   7]+0.009*[#   8]
    |psi|^2 = 0.456
==== e(  15) =    12.26457 eV ==== 
     psi = 0.074*[#   9]+0.074*[#  13]+0.028*[#   3]+0.028*[#   4]+0.027*[#   7]
          +0.027*[#   8]+0.007*[#   5]+0.006*[#   1]+0.002*[#  15]+0.002*[#  16]
          +0.002*[#  11]+0.002*[#  12]
    |psi|^2 = 0.279
==== e(  16) =    12.41041 eV ==== 
     psi = 0.021*[#   9]+0.021*[#   5]+0.021*[#  13]+0.020*[#   1]+0.008*[#   3]
          +0.008*[#   4]+0.008*[#   7]+0.008*[#   8]+0.008*[#  15]+0.008*[#  16]
          +0.007*[#  11]+0.007*[#  12]
    |psi|^2 = 0.144

 k =   0.3000000000  0.5581052602  0.0000000000
==== e(   1) =   -13.65330 eV ==== 
     psi = 0.153*[#   1]+0.139*[#   9]+0.097*[#   5]+0.084*[#  13]+0.084*[#  11]
          +0.084*[#  12]+0.076*[#   3]+0.076*[#   4]+0.054*[#  15]+0.054*[#  16]
          +0.046*[#   7]+0.046*[#   8]
    |psi|^2 = 0.992
==== e(   2) =   -13.57163 eV ==== 
     psi = 0.153*[#  13]+0.142*[#   5]+0.099*[#   9]+0.086*[#   1]+0.083*[#   7]
          +0.083*[#   8]+0.076*[#  15]+0.076*[#  16]+0.053*[#   3]+0.053*[#   4]
          +0.045*[#  11]+0.045*[#  12]
    |psi|^2 = 0.994
==== e(   3) =   -12.87540 eV ==== 
     psi = 0.146*[#   9]+0.139*[#   1]+0.101*[#   3]+0.101*[#   4]+0.097*[#  11]
          +0.097*[#  12]+0.069*[#  13]+0.061*[#   5]+0.048*[#   7]+0.048*[#   8]
          +0.043*[#  15]+0.043*[#  16]
    |psi|^2 = 0.993
==== e(   4) =   -12.82442 eV ==== 
     psi = 0.147*[#   5]+0.140*[#  13]+0.101*[#  15]+0.101*[#  16]+0.097*[#   7]
          +0.097*[#   8]+0.069*[#   1]+0.062*[#   9]+0.047*[#  11]+0.047*[#  12]
          +0.043*[#   3]+0.043*[#   4]
    |psi|^2 = 0.994
==== e(   5) =   -10.96228 eV ==== 
     psi = 0.183*[#  11]+0.183*[#  12]+0.183*[#   3]+0.183*[#   4]+0.058*[#  15]
          +0.058*[#  16]+0.057*[#   7]+0.057*[#   8]+0.009*[#   1]+0.008*[#   9]
          +0.003*[#   5]+0.002*[#  13]
    |psi|^2 = 0.983
==== e(   6) =   -10.92570 eV ==== 
     psi = 0.183*[#   7]+0.183*[#   8]+0.182*[#  15]+0.182*[#  16]+0.057*[#   3]
          +0.057*[#   4]+0.056*[#  11]+0.056*[#  12]+0.010*[#  13]+0.009*[#   5]
          +0.004*[#   9]+0.003*[#   1]
    |psi|^2 = 0.983
==== e(   7) =    -1.36844 eV ==== 
     psi = 0.330*[#   2]+0.311*[#   6]+0.185*[#  10]+0.168*[#  14]
    |psi|^2 = 0.994
==== e(   8) =    -0.92227 eV ==== 
     psi = 0.341*[#  14]+0.329*[#  10]+0.172*[#   6]+0.152*[#   2]
    |psi|^2 = 0.995
==== e(   9) =    -0.17559 eV ==== 
     psi = 0.326*[#  10]+0.309*[#  14]+0.192*[#   2]+0.164*[#   6]
    |psi|^2 = 0.991
==== e(  10) =     0.15025 eV ==== 
     psi = 0.345*[#   6]+0.319*[#   2]+0.174*[#  14]+0.152*[#  10]
    |psi|^2 = 0.990
==== e(  11) =     9.88241 eV ==== 
     psi = 0.008*[#  13]+0.006*[#   9]+0.002*[#   7]+0.002*[#   8]+0.001*[#   3]
          +0.001*[#   4]
    |psi|^2 = 0.021
==== e(  12) =     9.95885 eV ==== 
     psi = 0.008*[#   9]+0.006*[#  13]+0.002*[#   3]+0.002*[#   4]+0.001*[#   7]
          +0.001*[#   8]+0.001*[#  10]
    |psi|^2 = 0.023
==== e(  13) =    11.51435 eV ==== 
     psi = 0.038*[#   1]+0.037*[#   5]+0.010*[#  11]+0.010*[#  12]+0.010*[#  15]
          +0.010*[#  16]+0.009*[#   9]+0.009*[#  13]+0.003*[#   3]+0.003*[#   4]
          +0.003*[#   7]+0.003*[#   8]
    |psi|^2 = 0.144
==== e(  14) =    12.03421 eV ==== 
     psi = 0.072*[#   1]+0.069*[#   5]+0.034*[#   9]+0.033*[#  13]+0.023*[#  11]
          +0.023*[#  12]+0.022*[#  15]+0.022*[#  16]+0.010*[#   3]+0.010*[#   4]
          +0.009*[#   7]+0.009*[#   8]
    |psi|^2 = 0.336
==== e(  15) =    12.22811 eV ==== 
     psi = 0.087*[#   9]+0.086*[#  13]+0.031*[#   3]+0.031*[#   4]+0.030*[#   7]
          +0.030*[#   8]+0.009*[#   1]+0.008*[#   5]+0.004*[#  11]+0.004*[#  12]
          +0.004*[#  15]+0.004*[#  16]
    |psi|^2 = 0.328
==== e(  16) =    12.65814 eV ==== 
     psi = 0.057*[#   5]+0.054*[#   1]+0.019*[#  15]+0.019*[#  16]+0.018*[#  11]
          +0.018*[#  12]+0.002*[#  13]+0.002*[#   9]
    |psi|^2 = 0.189

 k =   0.3000000000  0.5773502692  0.0000000000
==== e(   1) =   -13.52168 eV ==== 
     psi = 0.173*[#   1]+0.145*[#   9]+0.096*[#   5]+0.092*[#  11]+0.092*[#  12]
          +0.075*[#   3]+0.075*[#   4]+0.069*[#  13]+0.052*[#  15]+0.052*[#  16]
          +0.036*[#   7]+0.036*[#   8]
    |psi|^2 = 0.993
==== e(   2) =   -13.46171 eV ==== 
     psi = 0.172*[#  13]+0.146*[#   5]+0.097*[#   9]+0.091*[#   7]+0.091*[#   8]
          +0.076*[#  15]+0.076*[#  16]+0.069*[#   1]+0.052*[#   3]+0.052*[#   4]
          +0.035*[#  11]+0.035*[#  12]
    |psi|^2 = 0.994
==== e(   3) =   -12.96977 eV ==== 
     psi = 0.193*[#   9]+0.175*[#   1]+0.135*[#   3]+0.135*[#   4]+0.125*[#  11]
          +0.125*[#  12]+0.032*[#  13]+0.021*[#   7]+0.021*[#   8]+0.012*[#   5]
          +0.009*[#  15]+0.009*[#  16]
    |psi|^2 = 0.993
==== e(   4) =   -12.94601 eV ==== 
     psi = 0.193*[#   5]+0.174*[#  13]+0.136*[#  15]+0.136*[#  16]+0.125*[#   7]
          +0.125*[#   8]+0.030*[#   1]+0.020*[#  11]+0.020*[#  12]+0.012*[#   9]
          +0.010*[#   3]+0.010*[#   4]
    |psi|^2 = 0.992
==== e(   5) =   -10.98903 eV ==== 
     psi = 0.182*[#  11]+0.182*[#  12]+0.182*[#   3]+0.182*[#   4]+0.059*[#  15]
          +0.059*[#  16]+0.059*[#   7]+0.059*[#   8]+0.008*[#   1]+0.007*[#   9]
          +0.003*[#   5]+0.002*[#  13]
    |psi|^2 = 0.983
==== e(   6) =   -10.95163 eV ==== 
     psi = 0.181*[#   7]+0.181*[#   8]+0.181*[#  15]+0.181*[#  16]+0.058*[#   3]
          +0.058*[#   4]+0.058*[#  11]+0.058*[#  12]+0.010*[#  13]+0.009*[#   5]
          +0.004*[#   9]+0.003*[#   1]
    |psi|^2 = 0.983
==== e(   7) =    -1.25212 eV ==== 
     psi = 0.361*[#   2]+0.339*[#   6]+0.156*[#  10]+0.138*[#  14]
    |psi|^2 = 0.994
==== e(   8) =    -0.88053 eV ==== 
     psi = 0.373*[#  14]+0.363*[#  10]+0.140*[#   6]+0.118*[#   2]
    |psi|^2 = 0.994
==== e(   9) =    -0.22615 eV ==== 
     psi = 0.357*[#  10]+0.342*[#  14]+0.162*[#   2]+0.131*[#   6]
    |psi|^2 = 0.992
==== e(  10) =     0.04375 eV ==== 
     psi = 0.383*[#   6]+0.352*[#   2]+0.140*[#  14]+0.116*[#  10]
    |psi|^2 = 0.990
==== e(  11) =     9.88074 eV ==== 
     psi = 0.008*[#  13]+0.006*[#   9]+0.002*[#   7]+0.002*[#   8]+0.001*[#   3]
          +0.001*[#   4]
    |psi|^2 = 0.021
==== e(  12) =     9.94306 eV ==== 
     psi = 0.008*[#   9]+0.005*[#  13]+0.002*[#   3]+0.002*[#   4]+0.001*[#   7]
          +0.001*[#   8]+0.001*[#  10]
    |psi|^2 = 0.022
==== e(  13) =    11.71938 eV ==== 
     psi = 0.082*[#   1]+0.080*[#   5]+0.024*[#  11]+0.024*[#  12]+0.023*[#  15]
          +0.023*[#  16]
    |psi|^2 = 0.259
==== e(  14) =    11.94637 eV ==== 
     psi = 0.043*[#   9]+0.042*[#  13]+0.012*[#   3]+0.012*[#   4]+0.012*[#   7]
          +0.012*[#   8]
    |psi|^2 = 0.137
==== e(  15) =    12.18594 eV ==== 
     psi = 0.083*[#   9]+0.082*[#  13]+0.032*[#   1]+0.031*[#   5]+0.029*[#   3]
          +0.029*[#   4]+0.028*[#   7]+0.028*[#   8]+0.012*[#  11]+0.012*[#  12]
          +0.011*[#  15]+0.011*[#  16]
    |psi|^2 = 0.387
==== e(  16) =    12.78499 eV ==== 
     psi = 0.087*[#   5]+0.084*[#   1]+0.029*[#  15]+0.029*[#  16]+0.028*[#  11]
          +0.028*[#  12]+0.004*[#  13]+0.004*[#   9]+0.001*[#   3]+0.001*[#   4]
          +0.001*[#   7]+0.001*[#   8]
    |psi|^2 = 0.299

 k =   0.3166666667  0.5484827557  0.0000000000
==== e(   1) =   -13.63899 eV ==== 
     psi = 0.149*[#   1]+0.137*[#   9]+0.097*[#   5]+0.085*[#  13]+0.084*[#  11]
          +0.084*[#  12]+0.076*[#   3]+0.076*[#   4]+0.055*[#  15]+0.055*[#  16]
          +0.048*[#   7]+0.048*[#   8]
    |psi|^2 = 0.992
==== e(   2) =   -13.55229 eV ==== 
     psi = 0.149*[#  13]+0.139*[#   5]+0.098*[#   9]+0.087*[#   1]+0.082*[#   7]
          +0.082*[#   8]+0.076*[#  15]+0.076*[#  16]+0.054*[#   3]+0.054*[#   4]
          +0.047*[#  11]+0.047*[#  12]
    |psi|^2 = 0.994
==== e(   3) =   -12.85132 eV ==== 
     psi = 0.150*[#   9]+0.140*[#   1]+0.097*[#   3]+0.097*[#   4]+0.091*[#  11]
          +0.091*[#  12]+0.077*[#  13]+0.066*[#   5]+0.050*[#   7]+0.050*[#   8]
          +0.043*[#  15]+0.043*[#  16]
    |psi|^2 = 0.994
==== e(   4) =   -12.79492 eV ==== 
     psi = 0.150*[#   5]+0.140*[#  13]+0.096*[#  15]+0.096*[#  16]+0.091*[#   7]
          +0.091*[#   8]+0.076*[#   1]+0.067*[#   9]+0.049*[#  11]+0.049*[#  12]
          +0.044*[#   3]+0.044*[#   4]
    |psi|^2 = 0.994
==== e(   5) =   -11.01421 eV ==== 
     psi = 0.202*[#  11]+0.202*[#  12]+0.202*[#   3]+0.202*[#   4]+0.041*[#  15]
          +0.041*[#  16]+0.040*[#   7]+0.040*[#   8]+0.006*[#   1]+0.005*[#   9]
          +0.001*[#   5]
    |psi|^2 = 0.982
==== e(   6) =   -10.98554 eV ==== 
     psi = 0.202*[#   7]+0.202*[#   8]+0.201*[#  15]+0.201*[#  16]+0.040*[#   3]
          +0.040*[#   4]+0.040*[#  11]+0.040*[#  12]+0.007*[#  13]+0.006*[#   5]
          +0.002*[#   9]
    |psi|^2 = 0.982
==== e(   7) =    -1.33121 eV ==== 
     psi = 0.329*[#   2]+0.311*[#   6]+0.185*[#  10]+0.169*[#  14]
    |psi|^2 = 0.994
==== e(   8) =    -0.84873 eV ==== 
     psi = 0.339*[#  14]+0.329*[#  10]+0.173*[#   6]+0.153*[#   2]
    |psi|^2 = 0.995
==== e(   9) =    -0.25343 eV ==== 
     psi = 0.325*[#  10]+0.312*[#  14]+0.189*[#   2]+0.164*[#   6]
    |psi|^2 = 0.991
==== e(  10) =     0.12604 eV ==== 
     psi = 0.345*[#   6]+0.321*[#   2]+0.172*[#  14]+0.153*[#  10]
    |psi|^2 = 0.991
==== e(  11) =     9.86965 eV ==== 
     psi = 0.008*[#  13]+0.006*[#   9]+0.002*[#   7]+0.002*[#   8]+0.001*[#   3]
          +0.001*[#   4]
    |psi|^2 = 0.020
==== e(  12) =     9.93806 eV ==== 
     psi = 0.008*[#   9]+0.006*[#  13]+0.002*[#   3]+0.002*[#   4]+0.001*[#   7]
          +0.001*[#   8]
    |psi|^2 = 0.021
==== e(  13) =    11.50888 eV ==== 
     psi = 0.035*[#   1]+0.034*[#   5]+0.010*[#  11]+0.010*[#  12]+0.010*[#   9]
          +0.010*[#  13]+0.009*[#  15]+0.009*[#  16]+0.003*[#   3]+0.003*[#   4]
          +0.003*[#   7]+0.003*[#   8]
    |psi|^2 = 0.139
==== e(  14) =    12.09447 eV ==== 
     psi = 0.081*[#   1]+0.078*[#   5]+0.035*[#   9]+0.034*[#  13]+0.026*[#  11]
          +0.026*[#  12]+0.025*[#  15]+0.025*[#  16]+0.010*[#   3]+0.010*[#   4]
          +0.010*[#   7]+0.010*[#   8]
    |psi|^2 = 0.369
==== e(  15) =    12.29296 eV ==== 
     psi = 0.085*[#   9]+0.084*[#  13]+0.030*[#   3]+0.030*[#   4]+0.030*[#   7]
          +0.030*[#   8]+0.001*[#  11]+0.001*[#  12]+0.001*[#  15]+0.001*[#  16]
          
    |psi|^2 = 0.295
==== e(  16) =    12.67546 eV ==== 
     psi = 0.049*[#   5]+0.047*[#   1]+0.016*[#  15]+0.016*[#  16]+0.015*[#  11]
          +0.015*[#  12]
    |psi|^2 = 0.160

 k =   0.3166666667  0.5677277647  0.0000000000
==== e(   1) =   -13.41682 eV ==== 
     psi = 0.164*[#   1]+0.133*[#   9]+0.100*[#   5]+0.092*[#  11]+0.092*[#  12]
          +0.074*[#   3]+0.074*[#   4]+0.071*[#  13]+0.057*[#  15]+0.057*[#  16]
          +0.040*[#   7]+0.040*[#   8]
    |psi|^2 = 0.993
==== e(   2) =   -13.34659 eV ==== 
     psi = 0.162*[#  13]+0.137*[#   5]+0.102*[#   9]+0.090*[#   7]+0.090*[#   8]
          +0.075*[#  15]+0.075*[#  16]+0.072*[#   1]+0.057*[#   3]+0.057*[#   4]
          +0.039*[#  11]+0.039*[#  12]
    |psi|^2 = 0.994
==== e(   3) =   -13.01965 eV ==== 
     psi = 0.164*[#   9]+0.138*[#   1]+0.102*[#   3]+0.102*[#   4]+0.088*[#  11]
          +0.088*[#  12]+0.083*[#  13]+0.055*[#   5]+0.052*[#   7]+0.052*[#   8]
          +0.035*[#  15]+0.035*[#  16]
    |psi|^2 = 0.994
==== e(   4) =   -12.96945 eV ==== 
     psi = 0.165*[#   5]+0.138*[#  13]+0.103*[#  15]+0.103*[#  16]+0.088*[#   7]
          +0.088*[#   8]+0.081*[#   1]+0.057*[#   9]+0.050*[#  11]+0.050*[#  12]
          +0.036*[#   3]+0.036*[#   4]
    |psi|^2 = 0.994
==== e(   5) =   -11.08201 eV ==== 
     psi = 0.215*[#  11]+0.215*[#  12]+0.214*[#   3]+0.214*[#   4]+0.030*[#  15]
          +0.030*[#  16]+0.029*[#   7]+0.029*[#   8]+0.003*[#   1]+0.002*[#   9]
          
    |psi|^2 = 0.982
==== e(   6) =   -11.05677 eV ==== 
     psi = 0.214*[#   7]+0.214*[#   8]+0.214*[#  15]+0.214*[#  16]+0.029*[#   3]
          +0.029*[#   4]+0.029*[#  11]+0.029*[#  12]+0.004*[#  13]+0.003*[#   5]
          +0.001*[#   9]
    |psi|^2 = 0.982
==== e(   7) =    -1.10324 eV ==== 
     psi = 0.391*[#   2]+0.370*[#   6]+0.123*[#  10]+0.109*[#  14]
    |psi|^2 = 0.994
==== e(   8) =    -0.70390 eV ==== 
     psi = 0.407*[#  10]+0.392*[#  14]+0.108*[#   6]+0.086*[#   2]
    |psi|^2 = 0.993
==== e(   9) =    -0.42558 eV ==== 
     psi = 0.388*[#  14]+0.372*[#  10]+0.128*[#   2]+0.103*[#   6]
    |psi|^2 = 0.992
==== e(  10) =    -0.06868 eV ==== 
     psi = 0.412*[#   6]+0.387*[#   2]+0.103*[#  14]+0.090*[#  10]
    |psi|^2 = 0.992
==== e(  11) =     9.86255 eV ==== 
     psi = 0.009*[#  13]+0.005*[#   9]+0.002*[#   7]+0.002*[#   8]
    |psi|^2 = 0.020
==== e(  12) =     9.90051 eV ==== 
     psi = 0.009*[#   9]+0.004*[#  13]+0.002*[#   3]+0.002*[#   4]
    |psi|^2 = 0.021
==== e(  13) =    11.76132 eV ==== 
     psi = 0.075*[#   1]+0.073*[#   5]+0.022*[#  11]+0.022*[#  12]+0.021*[#  15]
          +0.021*[#  16]+0.005*[#   9]+0.005*[#  13]+0.002*[#   3]+0.002*[#   4]
          +0.002*[#   7]+0.002*[#   8]
    |psi|^2 = 0.252
==== e(  14) =    12.07292 eV ==== 
     psi = 0.046*[#   9]+0.044*[#  13]+0.025*[#   1]+0.025*[#   5]+0.014*[#   3]
          +0.014*[#   4]+0.013*[#   7]+0.013*[#   8]+0.009*[#  11]+0.009*[#  12]
          +0.008*[#  15]+0.008*[#  16]
    |psi|^2 = 0.228
==== e(  15) =    12.24051 eV ==== 
     psi = 0.073*[#   9]+0.073*[#  13]+0.025*[#   3]+0.025*[#   4]+0.025*[#   7]
          +0.025*[#   8]+0.008*[#   1]+0.008*[#   5]+0.004*[#  11]+0.004*[#  12]
          +0.003*[#  15]+0.003*[#  16]
    |psi|^2 = 0.276
==== e(  16) =    12.87851 eV ==== 
     psi = 0.084*[#   5]+0.081*[#   1]+0.029*[#  15]+0.029*[#  16]+0.028*[#  11]
          +0.028*[#  12]
    |psi|^2 = 0.280

 k =   0.3333333333  0.5773502692  0.0000000000
==== e(   1) =   -13.23019 eV ==== 
     psi = 0.267*[#   1]+0.190*[#   5]+0.156*[#  11]+0.156*[#  12]+0.111*[#  15]
          +0.111*[#  16]
    |psi|^2 = 0.993
==== e(   2) =   -13.18109 eV ==== 
     psi = 0.459*[#   9]+0.267*[#   3]+0.267*[#   4]
    |psi|^2 = 0.994
==== e(   3) =   -13.16161 eV ==== 
     psi = 0.459*[#  13]+0.267*[#   7]+0.267*[#   8]
    |psi|^2 = 0.994
==== e(   4) =   -13.11835 eV ==== 
     psi = 0.269*[#   5]+0.192*[#   1]+0.156*[#  15]+0.156*[#  16]+0.111*[#  11]
          +0.111*[#  12]
    |psi|^2 = 0.995
==== e(   5) =   -11.12247 eV ==== 
     psi = 0.245*[#   3]+0.245*[#   4]+0.245*[#  11]+0.245*[#  12]
    |psi|^2 = 0.981
==== e(   6) =   -11.10332 eV ==== 
     psi = 0.245*[#   7]+0.245*[#   8]+0.245*[#  15]+0.245*[#  16]
    |psi|^2 = 0.981
==== e(   7) =    -0.94548 eV ==== 
     psi = 0.508*[#   2]+0.485*[#   6]
    |psi|^2 = 0.993
==== e(   8) =    -0.58970 eV ==== 
     psi = 0.993*[#  10]
    |psi|^2 = 0.993
==== e(   9) =    -0.57108 eV ==== 
     psi = 0.993*[#  14]
    |psi|^2 = 0.993
==== e(  10) =    -0.18918 eV ==== 
     psi = 0.508*[#   6]+0.486*[#   2]
    |psi|^2 = 0.993
==== e(  11) =     9.86188 eV ==== 
     psi = 0.013*[#  13]+0.003*[#   7]+0.003*[#   8]
    |psi|^2 = 0.020
==== e(  12) =     9.87406 eV ==== 
     psi = 0.014*[#   9]+0.003*[#   3]+0.003*[#   4]
    |psi|^2 = 0.020
==== e(  13) =    11.85011 eV ==== 
     psi = 0.105*[#   1]+0.102*[#   5]+0.031*[#  11]+0.031*[#  12]+0.030*[#  15]
          +0.030*[#  16]
    |psi|^2 = 0.330
==== e(  14) =    12.16324 eV ==== 
     psi = 0.121*[#   9]+0.038*[#   3]+0.038*[#   4]+0.001*[#   7]+0.001*[#   8]
          +0.002*[#  15]+0.002*[#  16]
    |psi|^2 = 0.203
==== e(  15) =    12.16498 eV ==== 
     psi = 0.120*[#  13]+0.037*[#   7]+0.037*[#   8]+0.002*[#   3]+0.002*[#   4]
          +0.002*[#  11]+0.002*[#  12]
    |psi|^2 = 0.201
==== e(  16) =    12.95819 eV ==== 
     psi = 0.098*[#   5]+0.095*[#   1]+0.034*[#  15]+0.034*[#  16]+0.033*[#  11]
          +0.033*[#  12]
    |psi|^2 = 0.326

Lowdin Charges: 

     Atom #   1: total charge =   3.9594, s =  0.8885, 
     Atom #   1: total charge =   3.9594, p =  3.0709, pz=  0.9868, px=  1.0420, py=  1.0420, 
     Atom #   2: total charge =   3.9599, s =  0.8886, 
     Atom #   2: total charge =   3.9599, p =  3.0713, pz=  0.9870, px=  1.0421, py=  1.0421, 
     Atom #   3: total charge =   3.9650, s =  0.8878, 
     Atom #   3: total charge =   3.9650, p =  3.0772, pz=  0.9946, px=  1.0413, py=  1.0413, 
     Atom #   4: total charge =   3.9640, s =  0.8878, 
     Atom #   4: total charge =   3.9640, p =  3.0762, pz=  0.9938, px=  1.0412, py=  1.0412, 
     Spilling Parameter:   0.0095

     PROJWFC      :     12.19s CPU     13.25s WALL


   This run was terminated on:  17:33:54  15Apr2024            

=------------------------------------------------------------------------------=
   JOB DONE.
=------------------------------------------------------------------------------=
