
     Program BANDS v.6.7MaX starts on 14Feb2024 at 16: 7:40 

     This program is part of the open-source Quantum ESPRESSO suite
     for quantum simulation of materials; please cite
         "P. Giannozzi et al., J. Phys.:Condens. Matter 21 395502 (2009);
         "P. Giannozzi et al., J. Phys.:Condens. Matter 29 465901 (2017);
          URL http://www.quantum-espresso.org", 
     in publications or presentations arising from this work. More details at
     http://www.quantum-espresso.org/quote

     Parallel version (MPI), running on     1 processors

     MPI processes distributed on     1 nodes

     Reading xml data from directory:

     ./tmp/hBN.save/
     Message from routine read_pp_mesh:
     mesh size missing, using the one in header
     Message from routine read_pp_mesh:
     mesh size missing, using the one in header

     IMPORTANT: XC functional enforced from input :
     Exchange-correlation= PZ
                           (   1   1   0   0   0   0   0)
     Any further DFT definition will be discarded
     Please, verify this is what you really want


     G-vector sticks info
     --------------------
     sticks:   dense  smooth     PW     G-vecs:    dense   smooth      PW
     Sum         367     367    121                33733    33733    5933

     Reading collected, re-writing distributed wavefunctions
     high-symmetry point:  0.0000 0.0000 0.0000   x coordinate   0.0000
     high-symmetry point: -0.3333 0.5774 0.0000   x coordinate   0.6667
     high-symmetry point:  0.0000 0.5774 0.0000   x coordinate   1.0000
     high-symmetry point:  0.0000 0.0000 0.0000   x coordinate   1.5773

     Plottable bands (eV) written to file hBN.dat.gnu
     Bands written to file hBN.dat

 **************************************************************************

                    xk=(   0.00000,   0.00000,   0.00000  )

     point group D_3h (-62m)
     there are  6 classes
     the character table:

       E     2C3   3C2   s_h   2S3   3s_v 
A'_1   1.00  1.00  1.00  1.00  1.00  1.00
A'_2   1.00  1.00 -1.00  1.00  1.00 -1.00
E'     2.00 -1.00  0.00  2.00 -1.00  0.00
A''1   1.00  1.00  1.00 -1.00 -1.00 -1.00
A''2   1.00  1.00 -1.00 -1.00 -1.00  1.00
E''    2.00 -1.00  0.00 -2.00  1.00  0.00

     the symmetry operations in each class and the name of the first element:

     E        1
                                                                 
     2C3      3    4
                                                                 
     3C2      2    6    5
                                                                 
     s_h      7
                                                                 
     2S3      9   10
                                                                 
     3s_v     8   11   12
                                                                 

     Band symmetry, D_3h (-62m) point group:

     e(  1 -  1) =    -21.30629  eV     1   --> A'_1           
     e(  2 -  2) =     -9.14077  eV     1   --> A''2           
     e(  3 -  4) =     -5.01978  eV     2   --> E'             
     e(  5 -  5) =      1.10062  eV     1   --> A'_1           
     e(  6 -  6) =      2.24794  eV     1   --> A''2           
     e(  7 -  7) =      2.67327  eV     1   --> A'_1           
     e(  8 -  8) =      4.51025  eV     1   --> A''2           

 **************************************************************************

 **************************************************************************

                    xk=(  -0.01587,   0.02749,   0.00000  )

     point group C_s (m)    
     there are  2 classes
     the character table:

       E     s    
A'     1.00  1.00
A''    1.00 -1.00

     the symmetry operations in each class and the name of the first element:

     E        1
                                                                 
     s        2
                                                                 

     Band symmetry, C_s (m)     point group:

     e(  1 -  1) =    -21.29140  eV     1   --> A'             
     e(  2 -  2) =     -9.12050  eV     1   --> A''            
     e(  3 -  3) =     -5.08244  eV     1   --> A'             
     e(  4 -  4) =     -5.05020  eV     1   --> A'             
     e(  5 -  5) =      1.12620  eV     1   --> A'             
     e(  6 -  6) =      2.27105  eV     1   --> A''            
     e(  7 -  7) =      2.69806  eV     1   --> A'             
     e(  8 -  8) =      4.53194  eV     1   --> A''            

 **************************************************************************

 **************************************************************************

                    xk=(  -0.03174,   0.05499,   0.00000  )

     Band symmetry, C_s (m)     point group:

     e(  1 -  1) =    -21.24687  eV     1   --> A'             
     e(  2 -  2) =     -9.06020  eV     1   --> A''            
     e(  3 -  3) =     -5.26681  eV     1   --> A'             
     e(  4 -  4) =     -5.14178  eV     1   --> A'             
     e(  5 -  5) =      1.20242  eV     1   --> A'             
     e(  6 -  6) =      2.34017  eV     1   --> A''            
     e(  7 -  7) =      2.77234  eV     1   --> A'             
     e(  8 -  8) =      4.59654  eV     1   --> A''            

 **************************************************************************

 **************************************************************************

                    xk=(  -0.04761,   0.08248,   0.00000  )

     Band symmetry, C_s (m)     point group:

     e(  1 -  1) =    -21.17289  eV     1   --> A'             
     e(  2 -  2) =     -8.95988  eV     1   --> A''            
     e(  3 -  3) =     -5.55689  eV     1   --> A'             
     e(  4 -  4) =     -5.29142  eV     1   --> A'             
     e(  5 -  5) =      1.32803  eV     1   --> A'             
     e(  6 -  6) =      2.45491  eV     1   --> A''            
     e(  7 -  7) =      2.89583  eV     1   --> A'             
     e(  8 -  8) =      4.70285  eV     1   --> A''            

 **************************************************************************

 **************************************************************************

                    xk=(  -0.06349,   0.10998,   0.00000  )

     Band symmetry, C_s (m)     point group:

     e(  1 -  1) =    -21.06973  eV     1   --> A'             
     e(  2 -  2) =     -8.81984  eV     1   --> A''            
     e(  3 -  3) =     -5.93182  eV     1   --> A'             
     e(  4 -  4) =     -5.49464  eV     1   --> A'             
     e(  5 -  5) =      1.50167  eV     1   --> A'             
     e(  6 -  6) =      2.61453  eV     1   --> A''            
     e(  7 -  7) =      3.06824  eV     1   --> A'             
     e(  8 -  8) =      4.84853  eV     1   --> A''            

 **************************************************************************

 **************************************************************************

                    xk=(  -0.07936,   0.13747,   0.00000  )

     Band symmetry, C_s (m)     point group:

     e(  1 -  1) =    -20.93817  eV     1   --> A'             
     e(  2 -  2) =     -8.64112  eV     1   --> A''            
     e(  3 -  3) =     -6.37274  eV     1   --> A'             
     e(  4 -  4) =     -5.74608  eV     1   --> A'             
     e(  5 -  5) =      1.72222  eV     1   --> A'             
     e(  6 -  6) =      2.81736  eV     1   --> A''            
     e(  7 -  7) =      3.28931  eV     1   --> A'             
     e(  8 -  8) =      5.02826  eV     1   --> A''            

 **************************************************************************

 **************************************************************************

                    xk=(  -0.09523,   0.16496,   0.00000  )

     Band symmetry, C_s (m)     point group:

     e(  1 -  1) =    -20.77891  eV     1   --> A'             
     e(  2 -  2) =     -8.42439  eV     1   --> A''            
     e(  3 -  3) =     -6.85845  eV     1   --> A'             
     e(  4 -  4) =     -6.03821  eV     1   --> A'             
     e(  5 -  5) =      1.98899  eV     1   --> A'             
     e(  6 -  6) =      3.06073  eV     1   --> A''            
     e(  7 -  7) =      3.55889  eV     1   --> A'             
     e(  8 -  8) =      5.23176  eV     1   --> A''            

 **************************************************************************

 **************************************************************************

                    xk=(  -0.11110,   0.19246,   0.00000  )

     Band symmetry, C_s (m)     point group:

     e(  1 -  1) =    -20.59314  eV     1   --> A'             
     e(  2 -  2) =     -8.17114  eV     1   --> A''            
     e(  3 -  3) =     -7.37340  eV     1   --> A'             
     e(  4 -  4) =     -6.36443  eV     1   --> A'             
     e(  5 -  5) =      2.30165  eV     1   --> A'             
     e(  6 -  6) =      3.33886  eV     1   --> A''            
     e(  7 -  7) =      3.87689  eV     1   --> A'             
     e(  8 -  8) =      5.43508  eV     1   --> A''            

 **************************************************************************

 **************************************************************************

                    xk=(  -0.12697,   0.21995,   0.00000  )

     Band symmetry, C_s (m)     point group:

     e(  1 -  1) =    -20.38205  eV     1   --> A'             
     e(  2 -  2) =     -7.90195  eV     1   --> A'             
     e(  3 -  3) =     -7.88264  eV     1   --> A''            
     e(  4 -  4) =     -6.71641  eV     1   --> A'             
     e(  5 -  5) =      2.66000  eV     1   --> A'             
     e(  6 -  6) =      3.63912  eV     1   --> A''            
     e(  7 -  7) =      4.24327  eV     1   --> A'             
     e(  8 -  8) =      5.58597  eV     1   --> A''            

 **************************************************************************

 **************************************************************************

                    xk=(  -0.14284,   0.24744,   0.00000  )

     Band symmetry, C_s (m)     point group:

     e(  1 -  1) =    -20.14764  eV     1   --> A'             
     e(  2 -  2) =     -8.43340  eV     1   --> A'             
     e(  3 -  3) =     -7.56142  eV     1   --> A''            
     e(  4 -  4) =     -7.08706  eV     1   --> A'             
     e(  5 -  5) =      3.06378  eV     1   --> A'             
     e(  6 -  6) =      3.92794  eV     1   --> A''            
     e(  7 -  7) =      4.65797  eV     1   --> A'             
     e(  8 -  8) =      5.61311  eV     1   --> A''            

 **************************************************************************

 **************************************************************************

                    xk=(  -0.15871,   0.27494,   0.00000  )

     Band symmetry, C_s (m)     point group:

     e(  1 -  1) =    -19.89217  eV     1   --> A'             
     e(  2 -  2) =     -8.95742  eV     1   --> A'             
     e(  3 -  3) =     -7.46961  eV     1   --> A'             
     e(  4 -  4) =     -7.20999  eV     1   --> A''            
     e(  5 -  5) =      3.51272  eV     1   --> A'             
     e(  6 -  6) =      4.11316  eV     1   --> A''            
     e(  7 -  7) =      5.12092  eV     1   --> A'             
     e(  8 -  8) =      5.57168  eV     1   --> A''            

 **************************************************************************

 **************************************************************************

                    xk=(  -0.17459,   0.30243,   0.00000  )

     Band symmetry, C_s (m)     point group:

     e(  1 -  1) =    -19.61894  eV     1   --> A'             
     e(  2 -  2) =     -9.46484  eV     1   --> A'             
     e(  3 -  3) =     -7.85753  eV     1   --> A'             
     e(  4 -  4) =     -6.83184  eV     1   --> A''            
     e(  5 -  5) =      4.00615  eV     1   --> A'             
     e(  6 -  6) =      4.04319  eV     1   --> A''            
     e(  7 -  7) =      5.63199  eV     1   --> A'             
     e(  8 -  8) =      5.69215  eV     1   --> A''            

 **************************************************************************

 **************************************************************************

                    xk=(  -0.19046,   0.32993,   0.00000  )

     Band symmetry, C_s (m)     point group:

     e(  1 -  1) =    -19.33193  eV     1   --> A'             
     e(  2 -  2) =     -9.94744  eV     1   --> A'             
     e(  3 -  3) =     -8.24516  eV     1   --> A'             
     e(  4 -  4) =     -6.43230  eV     1   --> A''            
     e(  5 -  5) =      3.72374  eV     1   --> A''            
     e(  6 -  6) =      4.54348  eV     1   --> A'             
     e(  7 -  7) =      6.04353  eV     1   --> A''            
     e(  8 -  8) =      6.19103  eV     1   --> A'             

 **************************************************************************

 **************************************************************************

                    xk=(  -0.20633,   0.35742,   0.00000  )

     Band symmetry, C_s (m)     point group:

     e(  1 -  1) =    -19.03618  eV     1   --> A'             
     e(  2 -  2) =    -10.39661  eV     1   --> A'             
     e(  3 -  3) =     -8.62731  eV     1   --> A'             
     e(  4 -  4) =     -6.01652  eV     1   --> A''            
     e(  5 -  5) =      3.29094  eV     1   --> A''            
     e(  6 -  6) =      5.12362  eV     1   --> A'             
     e(  7 -  7) =      6.52990  eV     1   --> A''            
     e(  8 -  8) =      6.79775  eV     1   --> A'             

 **************************************************************************

 **************************************************************************

                    xk=(  -0.22220,   0.38491,   0.00000  )

     Band symmetry, C_s (m)     point group:

     e(  1 -  1) =    -18.73878  eV     1   --> A'             
     e(  2 -  2) =    -10.80325  eV     1   --> A'             
     e(  3 -  3) =     -8.99906  eV     1   --> A'             
     e(  4 -  4) =     -5.59336  eV     1   --> A''            
     e(  5 -  5) =      2.82784  eV     1   --> A''            
     e(  6 -  6) =      5.74463  eV     1   --> A'             
     e(  7 -  7) =      7.08586  eV     1   --> A''            
     e(  8 -  8) =      7.45161  eV     1   --> A'             

 **************************************************************************

 **************************************************************************

                    xk=(  -0.23807,   0.41241,   0.00000  )

     Band symmetry, C_s (m)     point group:

     e(  1 -  1) =    -18.44876  eV     1   --> A'             
     e(  2 -  2) =    -11.15796  eV     1   --> A'             
     e(  3 -  3) =     -9.35734  eV     1   --> A'             
     e(  4 -  4) =     -5.17412  eV     1   --> A''            
     e(  5 -  5) =      2.37483  eV     1   --> A''            
     e(  6 -  6) =      6.40351  eV     1   --> A'             
     e(  7 -  7) =      7.67030  eV     1   --> A''            
     e(  8 -  8) =      8.15159  eV     1   --> A'             

 **************************************************************************

 **************************************************************************

                    xk=(  -0.25394,   0.43990,   0.00000  )

     Band symmetry, C_s (m)     point group:

     e(  1 -  1) =    -18.17691  eV     1   --> A'             
     e(  2 -  2) =    -11.44957  eV     1   --> A'             
     e(  3 -  3) =     -9.69745  eV     1   --> A'             
     e(  4 -  4) =     -4.77292  eV     1   --> A''            
     e(  5 -  5) =      1.95766  eV     1   --> A''            
     e(  6 -  6) =      7.09525  eV     1   --> A'             
     e(  7 -  7) =      8.22536  eV     1   --> A''            
     e(  8 -  8) =      8.89544  eV     1   --> A'             

 **************************************************************************

 **************************************************************************

                    xk=(  -0.26981,   0.46739,   0.00000  )

     Band symmetry, C_s (m)     point group:

     e(  1 -  1) =    -17.93595  eV     1   --> A'             
     e(  2 -  2) =    -11.66828  eV     1   --> A'             
     e(  3 -  3) =    -10.01511  eV     1   --> A'             
     e(  4 -  4) =     -4.40764  eV     1   --> A''            
     e(  5 -  5) =      1.59675  eV     1   --> A''            
     e(  6 -  6) =      7.81008  eV     1   --> A'             
     e(  7 -  7) =      8.63110  eV     1   --> A''            
     e(  8 -  8) =      9.67550  eV     1   --> A'             

 **************************************************************************

 **************************************************************************

                    xk=(  -0.28569,   0.49489,   0.00000  )

     Band symmetry, C_s (m)     point group:

     e(  1 -  1) =    -17.73888  eV     1   --> A'             
     e(  2 -  2) =    -11.80553  eV     1   --> A'             
     e(  3 -  3) =    -10.30392  eV     1   --> A'             
     e(  4 -  4) =     -4.10063  eV     1   --> A''            
     e(  5 -  5) =      1.30924  eV     1   --> A''            
     e(  6 -  6) =      8.52760  eV     1   --> A'             
     e(  7 -  7) =      8.76758  eV     1   --> A''            
     e(  8 -  8) =     10.42796  eV     1   --> A'             

 **************************************************************************

 **************************************************************************

                    xk=(  -0.30156,   0.52238,   0.00000  )

     Band symmetry, C_s (m)     point group:

     e(  1 -  1) =    -17.59593  eV     1   --> A'             
     e(  2 -  2) =    -11.86058  eV     1   --> A'             
     e(  3 -  3) =    -10.55203  eV     1   --> A'             
     e(  4 -  4) =     -3.87065  eV     1   --> A''            
     e(  5 -  5) =      1.10928  eV     1   --> A''            
     e(  6 -  6) =      8.71914  eV     1   --> A''            
     e(  7 -  7) =      9.19745  eV     1   --> A'             
     e(  8 -  8) =     10.71906  eV     1   --> A'             

 **************************************************************************

 **************************************************************************

                    xk=(  -0.31743,   0.54988,   0.00000  )

     Band symmetry, C_s (m)     point group:

     e(  1 -  1) =    -17.51283  eV     1   --> A'             
     e(  2 -  2) =    -11.85350  eV     1   --> A'             
     e(  3 -  3) =    -10.73731  eV     1   --> A'             
     e(  4 -  4) =     -3.73422  eV     1   --> A''            
     e(  5 -  5) =      0.99928  eV     1   --> A''            
     e(  6 -  6) =      8.63590  eV     1   --> A''            
     e(  7 -  7) =      9.68854  eV     1   --> A'             
     e(  8 -  8) =     10.85714  eV     1   --> A'             

 **************************************************************************

 **************************************************************************

                    xk=(  -0.33330,   0.57737,   0.00000  )

     Band symmetry, C_s (m)     point group:

     e(  1 -  1) =    -17.48684  eV     1   --> A'             
     e(  2 -  2) =    -11.83520  eV     1   --> A'             
     e(  3 -  3) =    -10.81286  eV     1   --> A'             
     e(  4 -  4) =     -3.69137  eV     1   --> A''            
     e(  5 -  5) =      0.96771  eV     1   --> A''            
     e(  6 -  6) =      8.59882  eV     1   --> A''            
     e(  7 -  7) =      9.84475  eV     1   --> A'             
     e(  8 -  8) =     10.99370  eV     1   --> A'             

 **************************************************************************

 **************************************************************************

                    xk=(  -0.30300,   0.57737,   0.00000  )

     Band symmetry, C_s (m)     point group:

     e(  1 -  1) =    -17.50725  eV     1   --> A'             
     e(  2 -  2) =    -11.86731  eV     1   --> A'             
     e(  3 -  3) =    -10.73337  eV     1   --> A'             
     e(  4 -  4) =     -3.72483  eV     1   --> A''            
     e(  5 -  5) =      0.98746  eV     1   --> A''            
     e(  6 -  6) =      8.63854  eV     1   --> A''            
     e(  7 -  7) =      9.75359  eV     1   --> A'             
     e(  8 -  8) =     10.82305  eV     1   --> A'             

 **************************************************************************

 **************************************************************************

                    xk=(  -0.27270,   0.57737,   0.00000  )

     Band symmetry, C_s (m)     point group:

     e(  1 -  1) =    -17.56048  eV     1   --> A'             
     e(  2 -  2) =    -11.95835  eV     1   --> A'             
     e(  3 -  3) =    -10.51149  eV     1   --> A'             
     e(  4 -  4) =     -3.81095  eV     1   --> A''            
     e(  5 -  5) =      1.02929  eV     1   --> A''            
     e(  6 -  6) =      8.75940  eV     1   --> A''            
     e(  7 -  7) =      9.54076  eV     1   --> A'             
     e(  8 -  8) =     10.49701  eV     1   --> A'             

 **************************************************************************

 **************************************************************************

                    xk=(  -0.24240,   0.57736,   0.00000  )

     Band symmetry, C_s (m)     point group:

     e(  1 -  1) =    -17.63496  eV     1   --> A'             
     e(  2 -  2) =    -12.07826  eV     1   --> A'             
     e(  3 -  3) =    -10.19349  eV     1   --> A'             
     e(  4 -  4) =     -3.92891  eV     1   --> A''            
     e(  5 -  5) =      1.07145  eV     1   --> A''            
     e(  6 -  6) =      8.95100  eV     1   --> A''            
     e(  7 -  7) =      9.24261  eV     1   --> A'             
     e(  8 -  8) =     10.15987  eV     1   --> A'             

 **************************************************************************

 **************************************************************************

                    xk=(  -0.21210,   0.57736,   0.00000  )

     Band symmetry, C_s (m)     point group:

     e(  1 -  1) =    -17.72069  eV     1   --> A'             
     e(  2 -  2) =    -12.20309  eV     1   --> A'             
     e(  3 -  3) =     -9.82307  eV     1   --> A'             
     e(  4 -  4) =     -4.06165  eV     1   --> A''            
     e(  5 -  5) =      1.10101  eV     1   --> A''            
     e(  6 -  6) =      8.86185  eV     1   --> A'             
     e(  7 -  7) =      9.18524  eV     1   --> A''            
     e(  8 -  8) =      9.85532  eV     1   --> A'             

 **************************************************************************

 **************************************************************************

                    xk=(  -0.18180,   0.57736,   0.00000  )

     Band symmetry, C_s (m)     point group:

     e(  1 -  1) =    -17.80866  eV     1   --> A'             
     e(  2 -  2) =    -12.32041  eV     1   --> A'             
     e(  3 -  3) =     -9.42998  eV     1   --> A'             
     e(  4 -  4) =     -4.19555  eV     1   --> A''            
     e(  5 -  5) =      1.11402  eV     1   --> A''            
     e(  6 -  6) =      8.40959  eV     1   --> A'             
     e(  7 -  7) =      9.41918  eV     1   --> A''            
     e(  8 -  8) =      9.59843  eV     1   --> A'             

 **************************************************************************

 **************************************************************************

                    xk=(  -0.15150,   0.57736,   0.00000  )

     Band symmetry, C_s (m)     point group:

     e(  1 -  1) =    -17.89224  eV     1   --> A'             
     e(  2 -  2) =    -12.42392  eV     1   --> A'             
     e(  3 -  3) =     -9.04012  eV     1   --> A'             
     e(  4 -  4) =     -4.32073  eV     1   --> A''            
     e(  5 -  5) =      1.11204  eV     1   --> A''            
     e(  6 -  6) =      7.91913  eV     1   --> A'             
     e(  7 -  7) =      9.38873  eV     1   --> A'             
     e(  8 -  8) =      9.60654  eV     1   --> A''            

 **************************************************************************

 **************************************************************************

                    xk=(  -0.12120,   0.57736,   0.00000  )

     Band symmetry, C_s (m)     point group:

     e(  1 -  1) =    -17.96666  eV     1   --> A'             
     e(  2 -  2) =    -12.51135  eV     1   --> A'             
     e(  3 -  3) =     -8.67752  eV     1   --> A'             
     e(  4 -  4) =     -4.43067  eV     1   --> A''            
     e(  5 -  5) =      1.10004  eV     1   --> A''            
     e(  6 -  6) =      7.43679  eV     1   --> A'             
     e(  7 -  7) =      9.22109  eV     1   --> A'             
     e(  8 -  8) =      9.72072  eV     1   --> A''            

 **************************************************************************

 **************************************************************************

                    xk=(  -0.09090,   0.57736,   0.00000  )

     Band symmetry, C_s (m)     point group:

     e(  1 -  1) =    -18.02765  eV     1   --> A'             
     e(  2 -  2) =    -12.58021  eV     1   --> A'             
     e(  3 -  3) =     -8.36267  eV     1   --> A'             
     e(  4 -  4) =     -4.51966  eV     1   --> A''            
     e(  5 -  5) =      1.08403  eV     1   --> A''            
     e(  6 -  6) =      7.00892  eV     1   --> A'             
     e(  7 -  7) =      9.09250  eV     1   --> A'             
     e(  8 -  8) =      9.76894  eV     1   -->   ?

 **************************************************************************

 **************************************************************************

                    xk=(  -0.06060,   0.57735,   0.00000  )

     Band symmetry, C_s (m)     point group:

     e(  1 -  1) =    -18.07297  eV     1   --> A'             
     e(  2 -  2) =    -12.62977  eV     1   --> A'             
     e(  3 -  3) =     -8.11847  eV     1   --> A'             
     e(  4 -  4) =     -4.58528  eV     1   --> A''            
     e(  5 -  5) =      1.06875  eV     1   --> A''            
     e(  6 -  6) =      6.67387  eV     1   --> A'             
     e(  7 -  7) =      9.00125  eV     1   --> A'             
     e(  8 -  8) =      9.63142  eV     1   --> A'             

 **************************************************************************

 **************************************************************************

                    xk=(  -0.03030,   0.57735,   0.00000  )

     Band symmetry, C_s (m)     point group:

     e(  1 -  1) =    -18.10084  eV     1   --> A'             
     e(  2 -  2) =    -12.65991  eV     1   --> A'             
     e(  3 -  3) =     -7.96323  eV     1   --> A'             
     e(  4 -  4) =     -4.62529  eV     1   --> A''            
     e(  5 -  5) =      1.05801  eV     1   --> A''            
     e(  6 -  6) =      6.46038  eV     1   --> A'             
     e(  7 -  7) =      8.94645  eV     1   --> A'             
     e(  8 -  8) =      9.55049  eV     1   --> A'             

 **************************************************************************

 **************************************************************************

                    xk=(   0.00000,   0.57735,   0.00000  )

     point group C_2v (mm2) 
     there are  4 classes
     the character table:

       E     C2    s_v   s_v' 
A_1    1.00  1.00  1.00  1.00
A_2    1.00  1.00 -1.00 -1.00
B_1    1.00 -1.00  1.00 -1.00
B_2    1.00 -1.00 -1.00  1.00

     the symmetry operations in each class and the name of the first element:

     E        1
                                                                 
     C2       2
                                                                 
     s_v      3
                                                                 
     s_v'     4
                                                                 

     Band symmetry, C_2v (mm2)  point group:

     e(  1 -  1) =    -18.11017  eV     1   --> A_1  D_1  S_1  
     e(  2 -  2) =    -12.66992  eV     1   --> A_1  D_1  S_1  
     e(  3 -  3) =     -7.90979  eV     1   --> B_1  D_3  S_3  
     e(  4 -  4) =     -4.63870  eV     1   --> B_2  D_4  S_4  
     e(  5 -  5) =      1.05417  eV     1   --> B_2  D_4  S_4  
     e(  6 -  6) =      6.38704  eV     1   --> A_1  D_1  S_1  
     e(  7 -  7) =      8.92825  eV     1   --> A_1  D_1  S_1  
     e(  8 -  8) =      9.52378  eV     1   --> A_1  D_1  S_1  

 **************************************************************************

 **************************************************************************

                    xk=(   0.00000,   0.54528,   0.00000  )

     Band symmetry, C_2v (mm2)  point group:

     e(  1 -  1) =    -18.15829  eV     1   --> A_1  D_1  S_1  
     e(  2 -  2) =    -12.59658  eV     1   --> A_1  D_1  S_1  
     e(  3 -  3) =     -7.89329  eV     1   --> B_1  D_3  S_3  
     e(  4 -  4) =     -4.71362  eV     1   --> B_2  D_4  S_4  
     e(  5 -  5) =      1.15089  eV     1   --> B_2  D_4  S_4  
     e(  6 -  6) =      6.35066  eV     1   --> A_1  D_1  S_1  
     e(  7 -  7) =      8.46216  eV     1   --> A_1  D_1  S_1  
     e(  8 -  8) =      9.29244  eV     1   --> B_2  D_4  S_4  

 **************************************************************************

 **************************************************************************

                    xk=(   0.00000,   0.51320,   0.00000  )

     Band symmetry, C_2v (mm2)  point group:

     e(  1 -  1) =    -18.29472  eV     1   --> A_1  D_1  S_1  
     e(  2 -  2) =    -12.38465  eV     1   --> A_1  D_1  S_1  
     e(  3 -  3) =     -7.84430  eV     1   --> B_1  D_3  S_3  
     e(  4 -  4) =     -4.92326  eV     1   --> B_2  D_4  S_4  
     e(  5 -  5) =      1.42356  eV     1   --> B_2  D_4  S_4  
     e(  6 -  6) =      6.22123  eV     1   --> A_1  D_1  S_1  
     e(  7 -  7) =      7.88496  eV     1   --> A_1  D_1  S_1  
     e(  8 -  8) =      8.58562  eV     1   --> B_2  D_4  S_4  

 **************************************************************************

 **************************************************************************

                    xk=(   0.00000,   0.48113,   0.00000  )

     Band symmetry, C_2v (mm2)  point group:

     e(  1 -  1) =    -18.49981  eV     1   --> A_1  D_1  S_1  
     e(  2 -  2) =    -12.05520  eV     1   --> A_1  D_1  S_1  
     e(  3 -  3) =     -7.76335  eV     1   --> B_1  D_3  S_3  
     e(  4 -  4) =     -5.23098  eV     1   --> B_2  D_4  S_4  
     e(  5 -  5) =      1.83177  eV     1   --> B_2  D_4  S_4  
     e(  6 -  6) =      5.95038  eV     1   --> A_1  D_1  S_1  
     e(  7 -  7) =      7.44501  eV     1   --> A_1  D_1  S_1  
     e(  8 -  8) =      7.88754  eV     1   --> B_2  D_4  S_4  

 **************************************************************************

 **************************************************************************

                    xk=(   0.00000,   0.44905,   0.00000  )

     Band symmetry, C_2v (mm2)  point group:

     e(  1 -  1) =    -18.75059  eV     1   --> A_1  D_1  S_1  
     e(  2 -  2) =    -11.63233  eV     1   --> A_1  D_1  S_1  
     e(  3 -  3) =     -7.65108  eV     1   --> B_1  D_3  S_3  
     e(  4 -  4) =     -5.59895  eV     1   --> B_2  D_4  S_4  
     e(  5 -  5) =      2.32869  eV     1   --> B_2  D_4  S_4  
     e(  6 -  6) =      5.53035  eV     1   --> A_1  D_1  S_1  
     e(  7 -  7) =      7.12697  eV     1   --> A_1  D_1  S_1  
     e(  8 -  8) =      7.22854  eV     1   --> B_2  D_4  S_4  

 **************************************************************************

 **************************************************************************

                    xk=(   0.00000,   0.41698,   0.00000  )

     Band symmetry, C_2v (mm2)  point group:

     e(  1 -  1) =    -19.02657  eV     1   --> A_1  D_1  S_1  
     e(  2 -  2) =    -11.13842  eV     1   --> A_1  D_1  S_1  
     e(  3 -  3) =     -7.50927  eV     1   --> B_1  D_3  S_3  
     e(  4 -  4) =     -5.99572  eV     1   --> B_2  D_4  S_4  
     e(  5 -  5) =      2.86929  eV     1   --> B_2  D_4  S_4  
     e(  6 -  6) =      5.02733  eV     1   --> A_1  D_1  S_1  
     e(  7 -  7) =      6.62373  eV     1   --> B_2  D_4  S_4  
     e(  8 -  8) =      6.73046  eV     1   --> A_1  D_1  S_1  

 **************************************************************************

 **************************************************************************

                    xk=(   0.00000,   0.38490,   0.00000  )

     Band symmetry, C_2v (mm2)  point group:

     e(  1 -  1) =    -19.31204  eV     1   --> A_1  D_1  S_1  
     e(  2 -  2) =    -10.59239  eV     1   --> A_1  D_1  S_1  
     e(  3 -  3) =     -7.33932  eV     1   --> B_1  D_3  S_3  
     e(  4 -  4) =     -6.40002  eV     1   --> B_2  D_4  S_4  
     e(  5 -  5) =      3.40235  eV     1   --> B_2  D_4  S_4  
     e(  6 -  6) =      4.50543  eV     1   --> A_1  D_1  S_1  
     e(  7 -  7) =      6.09388  eV     1   --> B_2  D_4  S_4  
     e(  8 -  8) =      6.20060  eV     1   --> A_1  D_1  S_1  

 **************************************************************************

 **************************************************************************

                    xk=(   0.00000,   0.35283,   0.00000  )

     Band symmetry, C_2v (mm2)  point group:

     e(  1 -  1) =    -19.59567  eV     1   --> A_1  D_1  S_1  
     e(  2 -  2) =    -10.00986  eV     1   --> A_1  D_1  S_1  
     e(  3 -  3) =     -7.14469  eV     1   --> B_1  D_3  S_3  
     e(  4 -  4) =     -6.79740  eV     1   --> B_2  D_4  S_4  
     e(  5 -  5) =      3.84544  eV     1   --> B_2  D_4  S_4  
     e(  6 -  6) =      3.99768  eV     1   --> A_1  D_1  S_1  
     e(  7 -  7) =      5.66101  eV     1   --> A_1  D_1  S_1  
     e(  8 -  8) =      5.68772  eV     1   --> B_2  D_4  S_4  

 **************************************************************************

 **************************************************************************

                    xk=(   0.00000,   0.32075,   0.00000  )

     Band symmetry, C_2v (mm2)  point group:

     e(  1 -  1) =    -19.86920  eV     1   --> A_1  D_1  S_1  
     e(  2 -  2) =     -9.40318  eV     1   --> A_1  D_1  S_1  
     e(  3 -  3) =     -7.17695  eV     1   --> B_2  D_4  S_4  
     e(  4 -  4) =     -6.92777  eV     1   --> B_1  D_3  S_3  
     e(  5 -  5) =      3.51929  eV     1   --> A_1  D_1  S_1  
     e(  6 -  6) =      4.04784  eV     1   --> B_2  D_4  S_4  
     e(  7 -  7) =      5.15359  eV     1   --> A_1  D_1  S_1  
     e(  8 -  8) =      5.51043  eV     1   --> B_2  D_4  S_4  

 **************************************************************************

 **************************************************************************

                    xk=(   0.00000,   0.28868,   0.00000  )

     Band symmetry, C_2v (mm2)  point group:

     e(  1 -  1) =    -20.12690  eV     1   --> A_1  D_1  S_1  
     e(  2 -  2) =     -8.78560  eV     1   --> A_1  D_1  S_1  
     e(  3 -  3) =     -7.53235  eV     1   --> B_2  D_4  S_4  
     e(  4 -  4) =     -6.69279  eV     1   --> B_1  D_3  S_3  
     e(  5 -  5) =      3.07753  eV     1   --> A_1  D_1  S_1  
     e(  6 -  6) =      3.93132  eV     1   --> B_2  D_4  S_4  
     e(  7 -  7) =      4.68877  eV     1   --> A_1  D_1  S_1  
     e(  8 -  8) =      5.55897  eV     1   --> B_2  D_4  S_4  

 **************************************************************************

 **************************************************************************

                    xk=(   0.00000,   0.25660,   0.00000  )

     Band symmetry, C_2v (mm2)  point group:

     e(  1 -  1) =    -20.36460  eV     1   --> A_1  D_1  S_1  
     e(  2 -  2) =     -8.16823  eV     1   --> A_1  D_1  S_1  
     e(  3 -  3) =     -7.85897  eV     1   --> B_2  D_4  S_4  
     e(  4 -  4) =     -6.44562  eV     1   --> B_1  D_3  S_3  
     e(  5 -  5) =      2.67620  eV     1   --> A_1  D_1  S_1  
     e(  6 -  6) =      3.65842  eV     1   --> B_2  D_4  S_4  
     e(  7 -  7) =      4.27001  eV     1   --> A_1  D_1  S_1  
     e(  8 -  8) =      5.57266  eV     1   --> B_2  D_4  S_4  

 **************************************************************************

 **************************************************************************

                    xk=(   0.00000,   0.22453,   0.00000  )

     Band symmetry, C_2v (mm2)  point group:

     e(  1 -  1) =    -20.57898  eV     1   --> A_1  D_1  S_1  
     e(  2 -  2) =     -8.15189  eV     1   --> B_2  D_4  S_4  
     e(  3 -  3) =     -7.56337  eV     1   --> A_1  D_1  S_1  
     e(  4 -  4) =     -6.19134  eV     1   --> B_1  D_3  S_3  
     e(  5 -  5) =      2.31758  eV     1   --> A_1  D_1  S_1  
     e(  6 -  6) =      3.35850  eV     1   --> B_2  D_4  S_4  
     e(  7 -  7) =      3.89878  eV     1   --> A_1  D_1  S_1  
     e(  8 -  8) =      5.44263  eV     1   --> B_2  D_4  S_4  

 **************************************************************************

 **************************************************************************

                    xk=(   0.00000,   0.19245,   0.00000  )

     Band symmetry, C_2v (mm2)  point group:

     e(  1 -  1) =    -20.76836  eV     1   --> A_1  D_1  S_1  
     e(  2 -  2) =     -8.41008  eV     1   --> B_2  D_4  S_4  
     e(  3 -  3) =     -6.98639  eV     1   --> A_1  D_1  S_1  
     e(  4 -  4) =     -5.93947  eV     1   --> B_1  D_3  S_3  
     e(  5 -  5) =      2.00284  eV     1   --> A_1  D_1  S_1  
     e(  6 -  6) =      3.07656  eV     1   --> B_2  D_4  S_4  
     e(  7 -  7) =      3.57578  eV     1   --> A_1  D_1  S_1  
     e(  8 -  8) =      5.24305  eV     1   --> B_2  D_4  S_4  

 **************************************************************************

 **************************************************************************

                    xk=(   0.00000,   0.16038,   0.00000  )

     Band symmetry, C_2v (mm2)  point group:

     e(  1 -  1) =    -20.93075  eV     1   --> A_1  D_1  S_1  
     e(  2 -  2) =     -8.63114  eV     1   --> B_2  D_4  S_4  
     e(  3 -  3) =     -6.45087  eV     1   --> A_1  D_1  S_1  
     e(  4 -  4) =     -5.69772  eV     1   --> B_1  D_3  S_3  
     e(  5 -  5) =      1.73307  eV     1   --> A_1  D_1  S_1  
     e(  6 -  6) =      2.82881  eV     1   --> B_2  D_4  S_4  
     e(  7 -  7) =      3.30148  eV     1   --> A_1  D_1  S_1  
     e(  8 -  8) =      5.03784  eV     1   --> B_2  D_4  S_4  

 **************************************************************************

 **************************************************************************

                    xk=(   0.00000,   0.12830,   0.00000  )

     Band symmetry, C_2v (mm2)  point group:

     e(  1 -  1) =    -21.06493  eV     1   --> A_1  D_1  S_1  
     e(  2 -  2) =     -8.81341  eV     1   --> B_2  D_4  S_4  
     e(  3 -  3) =     -5.97426  eV     1   --> A_1  D_1  S_1  
     e(  4 -  4) =     -5.47661  eV     1   --> B_1  D_3  S_3  
     e(  5 -  5) =      1.50927  eV     1   --> A_1  D_1  S_1  
     e(  6 -  6) =      2.62202  eV     1   --> B_2  D_4  S_4  
     e(  7 -  7) =      3.07624  eV     1   --> A_1  D_1  S_1  
     e(  8 -  8) =      4.85520  eV     1   --> B_2  D_4  S_4  

 **************************************************************************

 **************************************************************************

                    xk=(   0.00000,   0.09623,   0.00000  )

     Band symmetry, C_2v (mm2)  point group:

     e(  1 -  1) =    -21.17012  eV     1   --> A_1  D_1  S_1  
     e(  2 -  2) =     -8.95613  eV     1   --> B_2  D_4  S_4  
     e(  3 -  3) =     -5.57594  eV     1   --> A_1  D_1  S_1  
     e(  4 -  4) =     -5.28772  eV     1   --> B_1  D_3  S_3  
     e(  5 -  5) =      1.33260  eV     1   --> A_1  D_1  S_1  
     e(  6 -  6) =      2.45920  eV     1   --> B_2  D_4  S_4  
     e(  7 -  7) =      2.90041  eV     1   --> A_1  D_1  S_1  
     e(  8 -  8) =      4.70679  eV     1   --> B_2  D_4  S_4  

 **************************************************************************

 **************************************************************************

                    xk=(   0.00000,   0.06415,   0.00000  )

     Band symmetry, C_2v (mm2)  point group:

     e(  1 -  1) =    -21.24566  eV     1   --> A_1  D_1  S_1  
     e(  2 -  2) =     -9.05858  eV     1   --> B_2  D_4  S_4  
     e(  3 -  3) =     -5.27363  eV     1   --> A_1  D_1  S_1  
     e(  4 -  4) =     -5.14274  eV     1   --> B_1  D_3  S_3  
     e(  5 -  5) =      1.20451  eV     1   --> A_1  D_1  S_1  
     e(  6 -  6) =      2.34207  eV     1   --> B_2  D_4  S_4  
     e(  7 -  7) =      2.77439  eV     1   --> A_1  D_1  S_1  
     e(  8 -  8) =      4.59829  eV     1   --> B_2  D_4  S_4  

 **************************************************************************

 **************************************************************************

                    xk=(   0.00000,   0.03208,   0.00000  )

     Band symmetry, C_2v (mm2)  point group:

     e(  1 -  1) =    -21.29116  eV     1   --> A_1  D_1  S_1  
     e(  2 -  2) =     -9.12025  eV     1   --> B_2  D_4  S_4  
     e(  3 -  3) =     -5.08412  eV     1   --> A_1  D_1  S_1  
     e(  4 -  4) =     -5.05142  eV     1   --> B_1  D_3  S_3  
     e(  5 -  5) =      1.12671  eV     1   --> A_1  D_1  S_1  
     e(  6 -  6) =      2.27149  eV     1   --> B_2  D_4  S_4  
     e(  7 -  7) =      2.69857  eV     1   --> A_1  D_1  S_1  
     e(  8 -  8) =      4.53232  eV     1   --> B_2  D_4  S_4  

 **************************************************************************

 **************************************************************************

                    xk=(   0.00000,   0.00000,   0.00000  )

     point group D_3h (-62m)
     there are  6 classes
     the character table:

       E     2C3   3C2   s_h   2S3   3s_v 
A'_1   1.00  1.00  1.00  1.00  1.00  1.00
A'_2   1.00  1.00 -1.00  1.00  1.00 -1.00
E'     2.00 -1.00  0.00  2.00 -1.00  0.00
A''1   1.00  1.00  1.00 -1.00 -1.00 -1.00
A''2   1.00  1.00 -1.00 -1.00 -1.00  1.00
E''    2.00 -1.00  0.00 -2.00  1.00  0.00

     the symmetry operations in each class and the name of the first element:

     E        1
                                                                 
     2C3      3    4
                                                                 
     3C2      2    6    5
                                                                 
     s_h      7
                                                                 
     2S3      9   10
                                                                 
     3s_v     8   11   12
                                                                 

     Band symmetry, D_3h (-62m) point group:

     e(  1 -  1) =    -21.30629  eV     1   --> A'_1           
     e(  2 -  2) =     -9.14077  eV     1   --> A''2           
     e(  3 -  4) =     -5.01978  eV     2   --> E'             
     e(  5 -  5) =      1.10062  eV     1   --> A'_1           
     e(  6 -  6) =      2.24794  eV     1   --> A''2           
     e(  7 -  7) =      2.67327  eV     1   --> A'_1           
     e(  8 -  8) =      4.51025  eV     1   --> A''2           

 **************************************************************************

     BANDS        :      2.92s CPU      2.74s WALL


   This run was terminated on:  16: 7:43  14Feb2024            

=------------------------------------------------------------------------------=
   JOB DONE.
=------------------------------------------------------------------------------=
