
     Program PWSCF v.6.7MaX starts on 14Feb2024 at 16: 2:15 

     This program is part of the open-source Quantum ESPRESSO suite
     for quantum simulation of materials; please cite
         "P. Giannozzi et al., J. Phys.:Condens. Matter 21 395502 (2009);
         "P. Giannozzi et al., J. Phys.:Condens. Matter 29 465901 (2017);
          URL http://www.quantum-espresso.org", 
     in publications or presentations arising from this work. More details at
     http://www.quantum-espresso.org/quote

     Parallel version (MPI), running on     1 processors

     MPI processes distributed on     1 nodes
     Waiting for input...
     Reading input from standard input

     Current dimensions of program PWSCF are:
     Max number of different atomic species (ntypx) = 10
     Max number of k-points (npk) =  40000
     Max angular momentum in pseudopotentials (lmaxx) =  3

     Atomic positions and unit cell read from directory:
     ./tmp/hBN.save/
     Atomic positions from file used, from input discarded

     Message from routine read_pp_mesh:
     mesh size missing, using the one in header
     Message from routine read_pp_mesh:
     mesh size missing, using the one in header

     Subspace diagonalization in iterative solution of the eigenvalue problem:
     a serial algorithm will be used


     G-vector sticks info
     --------------------
     sticks:   dense  smooth     PW     G-vecs:    dense   smooth      PW
     Sum         367     367    121                33733    33733    5933



     bravais-lattice index     =            4
     lattice parameter (alat)  =       4.6905  a.u.
     unit-cell volume          =     536.2154 (a.u.)^3
     number of atoms/cell      =            2
     number of atomic types    =            2
     number of electrons       =         8.00
     number of Kohn-Sham states=            8
     kinetic-energy cutoff     =      60.0000  Ry
     charge density cutoff     =     240.0000  Ry
     Exchange-correlation= PZ
                           (   1   1   0   0   0   0   0)

     celldm(1)=   4.690500  celldm(2)=   0.000000  celldm(3)=   6.000000
     celldm(4)=   0.000000  celldm(5)=   0.000000  celldm(6)=   0.000000

     crystal axes: (cart. coord. in units of alat)
               a(1) = (   1.000000   0.000000   0.000000 )  
               a(2) = (  -0.500000   0.866025   0.000000 )  
               a(3) = (   0.000000   0.000000   6.000000 )  

     reciprocal axes: (cart. coord. in units 2 pi/alat)
               b(1) = (  1.000000  0.577350 -0.000000 )  
               b(2) = (  0.000000  1.154701  0.000000 )  
               b(3) = (  0.000000 -0.000000  0.166667 )  


     PseudoPot. # 1 for N  read from file:
     ../../../Pseudo/LDA/N.upf
     MD5 check sum: eaa4f6f5012208d670216a7009287cf2
     Pseudo is Norm-conserving + core correction, Zval =  5.0
     Generated using ONCVPSP code by D. R. Hamann
     Using radial grid of 1054 points,  4 beta functions with: 
                l(1) =   0
                l(2) =   0
                l(3) =   1
                l(4) =   1

     PseudoPot. # 2 for B  read from file:
     ../../../Pseudo/LDA/B.upf
     MD5 check sum: 3e2a19024e57b4f161828f4b68a773bc
     Pseudo is Norm-conserving + core correction, Zval =  3.0
     Generated using ONCVPSP code by D. R. Hamann
     Using radial grid of 1508 points,  4 beta functions with: 
                l(1) =   0
                l(2) =   0
                l(3) =   1
                l(4) =   1

     atomic species   valence    mass     pseudopotential
        N              5.00    14.00670     N ( 1.00)
        B              3.00    10.80100     B ( 1.00)

     12 Sym. Ops. (no inversion) found


                                    s                        frac. trans.

      isym =  1     identity                                     

 cryst.   s( 1) = (     1          0          0      )
                  (     0          1          0      )
                  (     0          0          1      )

 cart.    s( 1) = (  1.0000000  0.0000000  0.0000000 )
                  (  0.0000000  1.0000000  0.0000000 )
                  (  0.0000000  0.0000000  1.0000000 )


      isym =  2     180 deg rotation - cart. axis [0,1,0]        

 cryst.   s( 2) = (    -1          0          0      )
                  (     1          1          0      )
                  (     0          0         -1      )

 cart.    s( 2) = ( -1.0000000  0.0000000  0.0000000 )
                  (  0.0000000  1.0000000  0.0000000 )
                  (  0.0000000  0.0000000 -1.0000000 )


      isym =  3     120 deg rotation - cryst. axis [0,0,1]       

 cryst.   s( 3) = (     0          1          0      )
                  (    -1         -1          0      )
                  (     0          0          1      )

 cart.    s( 3) = ( -0.5000000 -0.8660254  0.0000000 )
                  (  0.8660254 -0.5000000  0.0000000 )
                  (  0.0000000  0.0000000  1.0000000 )


      isym =  4     120 deg rotation - cryst. axis [0,0,-1]      

 cryst.   s( 4) = (    -1         -1          0      )
                  (     1          0          0      )
                  (     0          0          1      )

 cart.    s( 4) = ( -0.5000000  0.8660254  0.0000000 )
                  ( -0.8660254 -0.5000000  0.0000000 )
                  (  0.0000000  0.0000000  1.0000000 )


      isym =  5     180 deg rotation - cryst. axis [1,-1,0]      

 cryst.   s( 5) = (     0         -1          0      )
                  (    -1          0          0      )
                  (     0          0         -1      )

 cart.    s( 5) = (  0.5000000 -0.8660254  0.0000000 )
                  ( -0.8660254 -0.5000000  0.0000000 )
                  (  0.0000000  0.0000000 -1.0000000 )


      isym =  6     180 deg rotation - cryst. axis [2,1,0]       

 cryst.   s( 6) = (     1          1          0      )
                  (     0         -1          0      )
                  (     0          0         -1      )

 cart.    s( 6) = (  0.5000000  0.8660254  0.0000000 )
                  (  0.8660254 -0.5000000  0.0000000 )
                  (  0.0000000  0.0000000 -1.0000000 )


      isym =  7     inv. 180 deg rotation - cart. axis [0,0,1]   

 cryst.   s( 7) = (     1          0          0      )
                  (     0          1          0      )
                  (     0          0         -1      )

 cart.    s( 7) = (  1.0000000  0.0000000  0.0000000 )
                  (  0.0000000  1.0000000  0.0000000 )
                  (  0.0000000  0.0000000 -1.0000000 )


      isym =  8     inv. 180 deg rotation - cart. axis [1,0,0]   

 cryst.   s( 8) = (    -1          0          0      )
                  (     1          1          0      )
                  (     0          0          1      )

 cart.    s( 8) = ( -1.0000000  0.0000000  0.0000000 )
                  (  0.0000000  1.0000000  0.0000000 )
                  (  0.0000000  0.0000000  1.0000000 )


      isym =  9     inv.  60 deg rotation - cryst. axis [0,0,1]  

 cryst.   s( 9) = (    -1         -1          0      )
                  (     1          0          0      )
                  (     0          0         -1      )

 cart.    s( 9) = ( -0.5000000  0.8660254  0.0000000 )
                  ( -0.8660254 -0.5000000  0.0000000 )
                  (  0.0000000  0.0000000 -1.0000000 )


      isym = 10     inv.  60 deg rotation - cryst. axis [0,0,-1] 

 cryst.   s(10) = (     0          1          0      )
                  (    -1         -1          0      )
                  (     0          0         -1      )

 cart.    s(10) = ( -0.5000000 -0.8660254  0.0000000 )
                  (  0.8660254 -0.5000000  0.0000000 )
                  (  0.0000000  0.0000000 -1.0000000 )


      isym = 11     inv. 180 deg rotation - cryst. axis [0,1,0]  

 cryst.   s(11) = (     1          1          0      )
                  (     0         -1          0      )
                  (     0          0          1      )

 cart.    s(11) = (  0.5000000  0.8660254  0.0000000 )
                  (  0.8660254 -0.5000000  0.0000000 )
                  (  0.0000000  0.0000000  1.0000000 )


      isym = 12     inv. 180 deg rotation - cryst. axis [1,1,0]  

 cryst.   s(12) = (     0         -1          0      )
                  (    -1          0          0      )
                  (     0          0          1      )

 cart.    s(12) = (  0.5000000 -0.8660254  0.0000000 )
                  ( -0.8660254 -0.5000000  0.0000000 )
                  (  0.0000000  0.0000000  1.0000000 )


     point group D_3h (-62m)
     there are  6 classes
     the character table:

       E     2C3   3C2   s_h   2S3   3s_v 
A'_1   1.00  1.00  1.00  1.00  1.00  1.00
A'_2   1.00  1.00 -1.00  1.00  1.00 -1.00
E'     2.00 -1.00  0.00  2.00 -1.00  0.00
A''1   1.00  1.00  1.00 -1.00 -1.00 -1.00
A''2   1.00  1.00 -1.00 -1.00 -1.00  1.00
E''    2.00 -1.00  0.00 -2.00  1.00  0.00

     the symmetry operations in each class and the name of the first element:

     E        1
          identity                                               
     2C3      3    4
          120 deg rotation - cryst. axis [0,0,1]                 
     3C2      2    6    5
          180 deg rotation - cart. axis [0,1,0]                  
     s_h      7
          inv. 180 deg rotation - cart. axis [0,0,1]             
     2S3      9   10
          inv.  60 deg rotation - cryst. axis [0,0,1]            
     3s_v     8   11   12
          inv. 180 deg rotation - cart. axis [1,0,0]             

   Cartesian axes

     site n.     atom                  positions (alat units)
         1           B   tau(   1) = (   0.0000000   0.0000000   0.0000000  )
         2           N   tau(   2) = (  -0.0000000   0.5773503   0.0000000  )

   Crystallographic axes

     site n.     atom                  positions (cryst. coord.)
         1           B   tau(   1) = (  0.0000000  0.0000000  0.0000000  )
         2           N   tau(   2) = (  0.3333333  0.6666667  0.0000000  )

     number of k points=    51
                       cart. coord. in units 2pi/alat
        k(    1) = (   0.0000000   0.0000000   0.0000000), wk =   0.0392157
        k(    2) = (  -0.0158714   0.0274938   0.0000000), wk =   0.0392157
        k(    3) = (  -0.0317429   0.0549876   0.0000000), wk =   0.0392157
        k(    4) = (  -0.0476143   0.0824814   0.0000000), wk =   0.0392157
        k(    5) = (  -0.0634857   0.1099752   0.0000000), wk =   0.0392157
        k(    6) = (  -0.0793571   0.1374690   0.0000000), wk =   0.0392157
        k(    7) = (  -0.0952286   0.1649628   0.0000000), wk =   0.0392157
        k(    8) = (  -0.1111000   0.1924566   0.0000000), wk =   0.0392157
        k(    9) = (  -0.1269714   0.2199504   0.0000000), wk =   0.0392157
        k(   10) = (  -0.1428429   0.2474442   0.0000000), wk =   0.0392157
        k(   11) = (  -0.1587143   0.2749380   0.0000000), wk =   0.0392157
        k(   12) = (  -0.1745857   0.3024319   0.0000000), wk =   0.0392157
        k(   13) = (  -0.1904571   0.3299257   0.0000000), wk =   0.0392157
        k(   14) = (  -0.2063286   0.3574195   0.0000000), wk =   0.0392157
        k(   15) = (  -0.2222000   0.3849133   0.0000000), wk =   0.0392157
        k(   16) = (  -0.2380714   0.4124071   0.0000000), wk =   0.0392157
        k(   17) = (  -0.2539429   0.4399009   0.0000000), wk =   0.0392157
        k(   18) = (  -0.2698143   0.4673947   0.0000000), wk =   0.0392157
        k(   19) = (  -0.2856857   0.4948885   0.0000000), wk =   0.0392157
        k(   20) = (  -0.3015571   0.5223823   0.0000000), wk =   0.0392157
        k(   21) = (  -0.3174286   0.5498761   0.0000000), wk =   0.0392157
        k(   22) = (  -0.3333000   0.5773699   0.0000000), wk =   0.0392157
        k(   23) = (  -0.3030000   0.5773681   0.0000000), wk =   0.0392157
        k(   24) = (  -0.2727000   0.5773663   0.0000000), wk =   0.0392157
        k(   25) = (  -0.2424000   0.5773645   0.0000000), wk =   0.0392157
        k(   26) = (  -0.2121000   0.5773628   0.0000000), wk =   0.0392157
        k(   27) = (  -0.1818000   0.5773610   0.0000000), wk =   0.0392157
        k(   28) = (  -0.1515000   0.5773592   0.0000000), wk =   0.0392157
        k(   29) = (  -0.1212000   0.5773574   0.0000000), wk =   0.0392157
        k(   30) = (  -0.0909000   0.5773556   0.0000000), wk =   0.0392157
        k(   31) = (  -0.0606000   0.5773538   0.0000000), wk =   0.0392157
        k(   32) = (  -0.0303000   0.5773521   0.0000000), wk =   0.0392157
        k(   33) = (   0.0000000   0.5773503   0.0000000), wk =   0.0392157
        k(   34) = (   0.0000000   0.5452753   0.0000000), wk =   0.0392157
        k(   35) = (   0.0000000   0.5132002   0.0000000), wk =   0.0392157
        k(   36) = (   0.0000000   0.4811252   0.0000000), wk =   0.0392157
        k(   37) = (   0.0000000   0.4490502   0.0000000), wk =   0.0392157
        k(   38) = (   0.0000000   0.4169752   0.0000000), wk =   0.0392157
        k(   39) = (   0.0000000   0.3849002   0.0000000), wk =   0.0392157
        k(   40) = (   0.0000000   0.3528252   0.0000000), wk =   0.0392157
        k(   41) = (   0.0000000   0.3207501   0.0000000), wk =   0.0392157
        k(   42) = (   0.0000000   0.2886751   0.0000000), wk =   0.0392157
        k(   43) = (   0.0000000   0.2566001   0.0000000), wk =   0.0392157
        k(   44) = (   0.0000000   0.2245251   0.0000000), wk =   0.0392157
        k(   45) = (   0.0000000   0.1924501   0.0000000), wk =   0.0392157
        k(   46) = (   0.0000000   0.1603751   0.0000000), wk =   0.0392157
        k(   47) = (   0.0000000   0.1283001   0.0000000), wk =   0.0392157
        k(   48) = (   0.0000000   0.0962250   0.0000000), wk =   0.0392157
        k(   49) = (   0.0000000   0.0641500   0.0000000), wk =   0.0392157
        k(   50) = (   0.0000000   0.0320750   0.0000000), wk =   0.0392157
        k(   51) = (   0.0000000   0.0000000   0.0000000), wk =   0.0392157

                       cryst. coord.
        k(    1) = (   0.0000000   0.0000000   0.0000000), wk =   0.0392157
        k(    2) = (  -0.0158714   0.0317460   0.0000000), wk =   0.0392157
        k(    3) = (  -0.0317429   0.0634921   0.0000000), wk =   0.0392157
        k(    4) = (  -0.0476143   0.0952381   0.0000000), wk =   0.0392157
        k(    5) = (  -0.0634857   0.1269842   0.0000000), wk =   0.0392157
        k(    6) = (  -0.0793571   0.1587302   0.0000000), wk =   0.0392157
        k(    7) = (  -0.0952286   0.1904763   0.0000000), wk =   0.0392157
        k(    8) = (  -0.1111000   0.2222223   0.0000000), wk =   0.0392157
        k(    9) = (  -0.1269714   0.2539684   0.0000000), wk =   0.0392157
        k(   10) = (  -0.1428429   0.2857144   0.0000000), wk =   0.0392157
        k(   11) = (  -0.1587143   0.3174605   0.0000000), wk =   0.0392157
        k(   12) = (  -0.1745857   0.3492065   0.0000000), wk =   0.0392157
        k(   13) = (  -0.1904571   0.3809526   0.0000000), wk =   0.0392157
        k(   14) = (  -0.2063286   0.4126986   0.0000000), wk =   0.0392157
        k(   15) = (  -0.2222000   0.4444447   0.0000000), wk =   0.0392157
        k(   16) = (  -0.2380714   0.4761907   0.0000000), wk =   0.0392157
        k(   17) = (  -0.2539429   0.5079368   0.0000000), wk =   0.0392157
        k(   18) = (  -0.2698143   0.5396828   0.0000000), wk =   0.0392157
        k(   19) = (  -0.2856857   0.5714289   0.0000000), wk =   0.0392157
        k(   20) = (  -0.3015571   0.6031749   0.0000000), wk =   0.0392157
        k(   21) = (  -0.3174286   0.6349210   0.0000000), wk =   0.0392157
        k(   22) = (  -0.3333000   0.6666670   0.0000000), wk =   0.0392157
        k(   23) = (  -0.3030000   0.6515155   0.0000000), wk =   0.0392157
        k(   24) = (  -0.2727000   0.6363639   0.0000000), wk =   0.0392157
        k(   25) = (  -0.2424000   0.6212124   0.0000000), wk =   0.0392157
        k(   26) = (  -0.2121000   0.6060608   0.0000000), wk =   0.0392157
        k(   27) = (  -0.1818000   0.5909093   0.0000000), wk =   0.0392157
        k(   28) = (  -0.1515000   0.5757577   0.0000000), wk =   0.0392157
        k(   29) = (  -0.1212000   0.5606062   0.0000000), wk =   0.0392157
        k(   30) = (  -0.0909000   0.5454546   0.0000000), wk =   0.0392157
        k(   31) = (  -0.0606000   0.5303031   0.0000000), wk =   0.0392157
        k(   32) = (  -0.0303000   0.5151515   0.0000000), wk =   0.0392157
        k(   33) = (   0.0000000   0.5000000   0.0000000), wk =   0.0392157
        k(   34) = (   0.0000000   0.4722222   0.0000000), wk =   0.0392157
        k(   35) = (   0.0000000   0.4444444   0.0000000), wk =   0.0392157
        k(   36) = (   0.0000000   0.4166667   0.0000000), wk =   0.0392157
        k(   37) = (   0.0000000   0.3888889   0.0000000), wk =   0.0392157
        k(   38) = (   0.0000000   0.3611111   0.0000000), wk =   0.0392157
        k(   39) = (   0.0000000   0.3333333   0.0000000), wk =   0.0392157
        k(   40) = (   0.0000000   0.3055556   0.0000000), wk =   0.0392157
        k(   41) = (   0.0000000   0.2777778   0.0000000), wk =   0.0392157
        k(   42) = (   0.0000000   0.2500000   0.0000000), wk =   0.0392157
        k(   43) = (   0.0000000   0.2222222   0.0000000), wk =   0.0392157
        k(   44) = (   0.0000000   0.1944444   0.0000000), wk =   0.0392157
        k(   45) = (   0.0000000   0.1666667   0.0000000), wk =   0.0392157
        k(   46) = (   0.0000000   0.1388889   0.0000000), wk =   0.0392157
        k(   47) = (   0.0000000   0.1111111   0.0000000), wk =   0.0392157
        k(   48) = (   0.0000000   0.0833333   0.0000000), wk =   0.0392157
        k(   49) = (   0.0000000   0.0555556   0.0000000), wk =   0.0392157
        k(   50) = (   0.0000000   0.0277778   0.0000000), wk =   0.0392157
        k(   51) = (   0.0000000   0.0000000   0.0000000), wk =   0.0392157

     Dense  grid:    33733 G-vectors     FFT dimensions: (  24,  24, 144)

     Dynamical RAM for                 wfc:       0.51 MB

     Dynamical RAM for     wfc (w. buffer):       0.51 MB

     Dynamical RAM for           str. fact:       1.03 MB

     Dynamical RAM for           local pot:       0.00 MB

     Dynamical RAM for          nlocal pot:       1.03 MB

     Dynamical RAM for                qrad:       0.71 MB

     Dynamical RAM for          rho,v,vnew:       3.44 MB

     Dynamical RAM for           G-vectors:       2.19 MB

     Dynamical RAM for          h,s,v(r/c):       0.01 MB

     Dynamical RAM for          <psi|beta>:       0.00 MB

     Dynamical RAM for                 psi:       1.03 MB

     Dynamical RAM for                hpsi:       1.03 MB

     Dynamical RAM for      wfcinit/wfcrot:       1.03 MB

     Estimated static dynamical RAM per process >      13.62 MB

     Estimated max dynamical RAM per process >      15.69 MB

     The potential is recalculated from file :
     ./tmp/hBN.save/charge-density

     Starting wfcs are    8 randomized atomic wfcs

     Band Structure Calculation
     Davidson diagonalization with overlap

     Computing kpt #:     1  of    51
     total cpu time spent up to now is        0.5 secs

     Computing kpt #:     2  of    51
     total cpu time spent up to now is        0.9 secs

     Computing kpt #:     3  of    51
     total cpu time spent up to now is        1.2 secs

     Computing kpt #:     4  of    51
     total cpu time spent up to now is        1.5 secs

     Computing kpt #:     5  of    51
     total cpu time spent up to now is        1.9 secs

     Computing kpt #:     6  of    51
     total cpu time spent up to now is        2.3 secs

     Computing kpt #:     7  of    51
     total cpu time spent up to now is        2.7 secs

     Computing kpt #:     8  of    51
     total cpu time spent up to now is        3.1 secs

     Computing kpt #:     9  of    51
     total cpu time spent up to now is        3.4 secs

     Computing kpt #:    10  of    51
     total cpu time spent up to now is        3.8 secs

     Computing kpt #:    11  of    51
     total cpu time spent up to now is        4.1 secs

     Computing kpt #:    12  of    51
     total cpu time spent up to now is        4.4 secs

     Computing kpt #:    13  of    51
     total cpu time spent up to now is        4.7 secs

     Computing kpt #:    14  of    51
     total cpu time spent up to now is        5.0 secs

     Computing kpt #:    15  of    51
     total cpu time spent up to now is        5.3 secs

     Computing kpt #:    16  of    51
     total cpu time spent up to now is        5.6 secs

     Computing kpt #:    17  of    51
     total cpu time spent up to now is        6.0 secs

     Computing kpt #:    18  of    51
     total cpu time spent up to now is        6.7 secs

     Computing kpt #:    19  of    51
     total cpu time spent up to now is        7.6 secs

     Computing kpt #:    20  of    51
     total cpu time spent up to now is        8.4 secs

     Computing kpt #:    21  of    51
     total cpu time spent up to now is        9.2 secs

     Computing kpt #:    22  of    51
     total cpu time spent up to now is        9.9 secs

     Computing kpt #:    23  of    51
     total cpu time spent up to now is       10.7 secs

     Computing kpt #:    24  of    51
     total cpu time spent up to now is       11.4 secs

     Computing kpt #:    25  of    51
     total cpu time spent up to now is       12.1 secs

     Computing kpt #:    26  of    51
     total cpu time spent up to now is       12.8 secs

     Computing kpt #:    27  of    51
     total cpu time spent up to now is       13.5 secs

     Computing kpt #:    28  of    51
     total cpu time spent up to now is       14.4 secs

     Computing kpt #:    29  of    51
     total cpu time spent up to now is       15.2 secs

     Computing kpt #:    30  of    51
     total cpu time spent up to now is       16.0 secs

     Computing kpt #:    31  of    51
     total cpu time spent up to now is       16.7 secs

     Computing kpt #:    32  of    51
     total cpu time spent up to now is       17.6 secs

     Computing kpt #:    33  of    51
     total cpu time spent up to now is       18.9 secs

     Computing kpt #:    34  of    51
     total cpu time spent up to now is       19.6 secs

     Computing kpt #:    35  of    51
     total cpu time spent up to now is       20.4 secs

     Computing kpt #:    36  of    51
     total cpu time spent up to now is       21.1 secs

     Computing kpt #:    37  of    51
     total cpu time spent up to now is       21.8 secs

     Computing kpt #:    38  of    51
     total cpu time spent up to now is       23.3 secs

     Computing kpt #:    39  of    51
     total cpu time spent up to now is       24.6 secs

     Computing kpt #:    40  of    51
     total cpu time spent up to now is       25.7 secs

     Computing kpt #:    41  of    51
     total cpu time spent up to now is       26.7 secs

     Computing kpt #:    42  of    51
     total cpu time spent up to now is       27.5 secs

     Computing kpt #:    43  of    51
     total cpu time spent up to now is       28.7 secs

     Computing kpt #:    44  of    51
     total cpu time spent up to now is       30.0 secs

     Computing kpt #:    45  of    51
     total cpu time spent up to now is       30.8 secs

     Computing kpt #:    46  of    51
     total cpu time spent up to now is       31.7 secs

     Computing kpt #:    47  of    51
     total cpu time spent up to now is       32.5 secs

     Computing kpt #:    48  of    51
     total cpu time spent up to now is       33.4 secs

     Computing kpt #:    49  of    51
     total cpu time spent up to now is       34.3 secs

     Computing kpt #:    50  of    51
     total cpu time spent up to now is       35.1 secs

     Computing kpt #:    51  of    51
     total cpu time spent up to now is       35.9 secs

     ethr =  1.25E-08,  avg # of iterations = 35.5

     total cpu time spent up to now is       35.9 secs

     End of band structure calculation

          k = 0.0000 0.0000 0.0000 (  4179 PWs)   bands (ev):

   -21.3063  -9.1408  -5.0198  -5.0198   1.1006   2.2479   2.6733   4.5102

          k =-0.0159 0.0275 0.0000 (  4175 PWs)   bands (ev):

   -21.2914  -9.1205  -5.0824  -5.0502   1.1262   2.2711   2.6981   4.5319

          k =-0.0317 0.0550 0.0000 (  4183 PWs)   bands (ev):

   -21.2469  -9.0602  -5.2668  -5.1418   1.2024   2.3402   2.7723   4.5965

          k =-0.0476 0.0825 0.0000 (  4191 PWs)   bands (ev):

   -21.1729  -8.9599  -5.5569  -5.2914   1.3280   2.4549   2.8958   4.7029

          k =-0.0635 0.1100 0.0000 (  4183 PWs)   bands (ev):

   -21.0697  -8.8198  -5.9318  -5.4946   1.5017   2.6145   3.0682   4.8485

          k =-0.0794 0.1375 0.0000 (  4191 PWs)   bands (ev):

   -20.9382  -8.6411  -6.3727  -5.7461   1.7222   2.8174   3.2893   5.0283

          k =-0.0952 0.1650 0.0000 (  4187 PWs)   bands (ev):

   -20.7789  -8.4244  -6.8584  -6.0382   1.9890   3.0607   3.5589   5.2318

          k =-0.1111 0.1925 0.0000 (  4200 PWs)   bands (ev):

   -20.5931  -8.1711  -7.3734  -6.3644   2.3016   3.3389   3.8769   5.4351

          k =-0.1270 0.2200 0.0000 (  4194 PWs)   bands (ev):

   -20.3820  -7.9019  -7.8826  -6.7164   2.6600   3.6391   4.2433   5.5860

          k =-0.1428 0.2474 0.0000 (  4194 PWs)   bands (ev):

   -20.1476  -8.4334  -7.5614  -7.0871   3.0638   3.9279   4.6580   5.6131

          k =-0.1587 0.2749 0.0000 (  4192 PWs)   bands (ev):

   -19.8922  -8.9574  -7.4696  -7.2100   3.5127   4.1132   5.1209   5.5717

          k =-0.1746 0.3024 0.0000 (  4192 PWs)   bands (ev):

   -19.6189  -9.4648  -7.8575  -6.8318   4.0062   4.0432   5.6320   5.6922

          k =-0.1905 0.3299 0.0000 (  4200 PWs)   bands (ev):

   -19.3319  -9.9474  -8.2452  -6.4323   3.7237   4.5435   6.0435   6.1910

          k =-0.2063 0.3574 0.0000 (  4196 PWs)   bands (ev):

   -19.0362 -10.3966  -8.6273  -6.0165   3.2909   5.1236   6.5299   6.7977

          k =-0.2222 0.3849 0.0000 (  4182 PWs)   bands (ev):

   -18.7388 -10.8032  -8.9991  -5.5934   2.8278   5.7446   7.0859   7.4516

          k =-0.2381 0.4124 0.0000 (  4188 PWs)   bands (ev):

   -18.4488 -11.1580  -9.3573  -5.1741   2.3748   6.4035   7.6703   8.1516

          k =-0.2539 0.4399 0.0000 (  4184 PWs)   bands (ev):

   -18.1769 -11.4496  -9.6975  -4.7729   1.9577   7.0952   8.2254   8.8954

          k =-0.2698 0.4674 0.0000 (  4190 PWs)   bands (ev):

   -17.9359 -11.6683 -10.0151  -4.4076   1.5967   7.8101   8.6311   9.6755

          k =-0.2857 0.4949 0.0000 (  4210 PWs)   bands (ev):

   -17.7389 -11.8055 -10.3039  -4.1006   1.3092   8.5276   8.7676  10.4280

          k =-0.3016 0.5224 0.0000 (  4182 PWs)   bands (ev):

   -17.5959 -11.8606 -10.5520  -3.8706   1.1093   8.7191   9.1974  10.7191

          k =-0.3174 0.5499 0.0000 (  4176 PWs)   bands (ev):

   -17.5128 -11.8535 -10.7373  -3.7342   0.9993   8.6359   9.6885  10.8571

          k =-0.3333 0.5774 0.0000 (  4182 PWs)   bands (ev):

   -17.4868 -11.8352 -10.8129  -3.6914   0.9677   8.5988   9.8447  10.9937

          k =-0.3030 0.5774 0.0000 (  4186 PWs)   bands (ev):

   -17.5073 -11.8673 -10.7334  -3.7248   0.9875   8.6385   9.7536  10.8230

          k =-0.2727 0.5774 0.0000 (  4200 PWs)   bands (ev):

   -17.5605 -11.9583 -10.5115  -3.8110   1.0293   8.7594   9.5408  10.4970

          k =-0.2424 0.5774 0.0000 (  4190 PWs)   bands (ev):

   -17.6350 -12.0783 -10.1935  -3.9289   1.0715   8.9510   9.2426  10.1599

          k =-0.2121 0.5774 0.0000 (  4204 PWs)   bands (ev):

   -17.7207 -12.2031  -9.8231  -4.0616   1.1010   8.8619   9.1852   9.8553

          k =-0.1818 0.5774 0.0000 (  4208 PWs)   bands (ev):

   -17.8087 -12.3204  -9.4300  -4.1956   1.1140   8.4096   9.4192   9.5984

          k =-0.1515 0.5774 0.0000 (  4210 PWs)   bands (ev):

   -17.8922 -12.4239  -9.0401  -4.3207   1.1120   7.9191   9.3887   9.6065

          k =-0.1212 0.5774 0.0000 (  4238 PWs)   bands (ev):

   -17.9667 -12.5114  -8.6775  -4.4307   1.1000   7.4368   9.2211   9.7207

          k =-0.0909 0.5774 0.0000 (  4232 PWs)   bands (ev):

   -18.0277 -12.5802  -8.3627  -4.5197   1.0840   7.0089   9.0925   9.7689

          k =-0.0606 0.5774 0.0000 (  4228 PWs)   bands (ev):

   -18.0730 -12.6298  -8.1185  -4.5853   1.0688   6.6739   9.0013   9.6314

          k =-0.0303 0.5774 0.0000 (  4232 PWs)   bands (ev):

   -18.1008 -12.6599  -7.9632  -4.6253   1.0580   6.4604   8.9465   9.5505

          k = 0.0000 0.5774 0.0000 (  4228 PWs)   bands (ev):

   -18.1102 -12.6699  -7.9098  -4.6387   1.0542   6.3870   8.9282   9.5238

          k = 0.0000 0.5453 0.0000 (  4222 PWs)   bands (ev):

   -18.1583 -12.5966  -7.8933  -4.7136   1.1509   6.3507   8.4622   9.2924

          k = 0.0000 0.5132 0.0000 (  4220 PWs)   bands (ev):

   -18.2947 -12.3847  -7.8443  -4.9233   1.4236   6.2212   7.8850   8.5856

          k = 0.0000 0.4811 0.0000 (  4226 PWs)   bands (ev):

   -18.4998 -12.0552  -7.7634  -5.2310   1.8318   5.9504   7.4450   7.8875

          k = 0.0000 0.4491 0.0000 (  4230 PWs)   bands (ev):

   -18.7506 -11.6323  -7.6511  -5.5989   2.3287   5.5303   7.1270   7.2285

          k = 0.0000 0.4170 0.0000 (  4228 PWs)   bands (ev):

   -19.0266 -11.1384  -7.5093  -5.9957   2.8693   5.0273   6.6237   6.7305

          k = 0.0000 0.3849 0.0000 (  4214 PWs)   bands (ev):

   -19.3120 -10.5924  -7.3393  -6.4000   3.4023   4.5054   6.0939   6.2006

          k = 0.0000 0.3528 0.0000 (  4224 PWs)   bands (ev):

   -19.5957 -10.0099  -7.1447  -6.7974   3.8454   3.9977   5.6610   5.6877

          k = 0.0000 0.3208 0.0000 (  4210 PWs)   bands (ev):

   -19.8692  -9.4032  -7.1769  -6.9278   3.5193   4.0478   5.1536   5.5104

          k = 0.0000 0.2887 0.0000 (  4208 PWs)   bands (ev):

   -20.1269  -8.7856  -7.5324  -6.6928   3.0775   3.9313   4.6888   5.5590

          k = 0.0000 0.2566 0.0000 (  4218 PWs)   bands (ev):

   -20.3646  -8.1682  -7.8590  -6.4456   2.6762   3.6584   4.2700   5.5727

          k = 0.0000 0.2245 0.0000 (  4190 PWs)   bands (ev):

   -20.5790  -8.1519  -7.5634  -6.1913   2.3176   3.3585   3.8988   5.4426

          k = 0.0000 0.1925 0.0000 (  4208 PWs)   bands (ev):

   -20.7684  -8.4101  -6.9864  -5.9395   2.0028   3.0766   3.5758   5.2431

          k = 0.0000 0.1604 0.0000 (  4208 PWs)   bands (ev):

   -20.9307  -8.6311  -6.4509  -5.6977   1.7331   2.8288   3.3015   5.0378

          k = 0.0000 0.1283 0.0000 (  4196 PWs)   bands (ev):

   -21.0649  -8.8134  -5.9743  -5.4766   1.5093   2.6220   3.0762   4.8552

          k = 0.0000 0.0962 0.0000 (  4192 PWs)   bands (ev):

   -21.1701  -8.9561  -5.5759  -5.2877   1.3326   2.4592   2.9004   4.7068

          k = 0.0000 0.0642 0.0000 (  4188 PWs)   bands (ev):

   -21.2457  -9.0586  -5.2736  -5.1427   1.2045   2.3421   2.7744   4.5983

          k = 0.0000 0.0321 0.0000 (  4188 PWs)   bands (ev):

   -21.2912  -9.1202  -5.0841  -5.0514   1.1267   2.2715   2.6986   4.5323

          k = 0.0000 0.0000 0.0000 (  4179 PWs)   bands (ev):

   -21.3063  -9.1408  -5.0198  -5.0198   1.1006   2.2479   2.6733   4.5102

     Writing output data file ./tmp/hBN.save/

     init_run     :      0.11s CPU      0.11s WALL (       1 calls)
     electrons    :     86.44s CPU     35.72s WALL (       1 calls)

     Called by init_run:
     wfcinit      :      0.00s CPU      0.00s WALL (       1 calls)
     wfcinit:atom :      0.18s CPU      0.08s WALL (      51 calls)
     wfcinit:wfcr :      3.48s CPU      1.46s WALL (      51 calls)
     potinit      :      0.01s CPU      0.01s WALL (       1 calls)
     hinit0       :      0.08s CPU      0.08s WALL (       1 calls)

     Called by electrons:
     c_bands      :     86.44s CPU     35.72s WALL (       1 calls)
     v_of_rho     :      0.00s CPU      0.00s WALL (       1 calls)
     v_h          :      0.00s CPU      0.00s WALL (       1 calls)
     v_xc         :      0.00s CPU      0.00s WALL (       1 calls)

     Called by c_bands:
     init_us_2    :      0.17s CPU      0.08s WALL (      51 calls)
     cegterg      :     81.59s CPU     33.68s WALL (     110 calls)

     Called by sum_band:

     Called by *egterg:
     cdiaghg      :      1.15s CPU      0.34s WALL (    1862 calls)
     cegterg:over :      2.68s CPU      0.93s WALL (    1811 calls)
     cegterg:upda :      1.71s CPU      0.65s WALL (    1811 calls)
     cegterg:last :      2.16s CPU      0.79s WALL (    1081 calls)
     h_psi        :     74.74s CPU     31.69s WALL (    1972 calls)
     g_psi        :      1.40s CPU      0.37s WALL (    1811 calls)

     Called by h_psi:
     h_psi:calbec :      3.69s CPU      2.50s WALL (    1972 calls)
     vloc_psi     :     69.13s CPU     28.48s WALL (    1972 calls)
     add_vuspsi   :      1.20s CPU      0.48s WALL (    1972 calls)

     General routines
     calbec       :      3.67s CPU      2.50s WALL (    1972 calls)
     fft          :      0.01s CPU      0.01s WALL (       4 calls)
     fftw         :     59.22s CPU     24.45s WALL (   17908 calls)
     davcio       :      0.13s CPU      0.06s WALL (     102 calls)

     Parallel routines

     PWSCF        :   1m26.86s CPU     36.08s WALL


   This run was terminated on:  16: 2:51  14Feb2024            

=------------------------------------------------------------------------------=
   JOB DONE.
=------------------------------------------------------------------------------=
