 CRYSTAL
 PRIMVEC
    2.512004220    0.000000000    0.000000000
   -1.256002110    2.175459469    0.000000000
    0.000000000    0.000000000   15.072025321
 PRIMCOORD
           2           1
B         0.000000000    0.000000000    0.000000000
N        -0.000000001    1.450306313    0.000000000
BEGIN_BLOCK_DATAGRID_3D
3D_PWSCF
BEGIN_DATAGRID_3D_UNKNOWN
          25          25         145
  0.000000  0.000000  0.000000
    2.512004    0.000000    0.000000
   -1.256002    2.175459    0.000000
    0.000000    0.000000   15.072025
  0.930200E-12  0.125018E-10  0.291363E-10  0.301757E-10  0.211237E-10  0.129033E-10
  0.779006E-11  0.467229E-11  0.293971E-11  0.234479E-11  0.240115E-11  0.261758E-11
  0.271899E-11  0.261758E-11  0.240115E-11  0.234479E-11  0.293971E-11  0.467229E-11
  0.779006E-11  0.129033E-10  0.211237E-10  0.301757E-10  0.291363E-10  0.125018E-10
  0.930200E-12  0.125018E-10  0.125018E-10  0.252632E-10  0.307328E-10  0.242936E-10
  0.157169E-10  0.989923E-11  0.625919E-11  0.388901E-11  0.257546E-11  0.207012E-11
  0.194565E-11  0.193030E-11  0.193030E-11  0.194565E-11  0.207012E-11  0.257546E-11
  0.388901E-11  0.625919E-11  0.989923E-11  0.157169E-10  0.242936E-10  0.307328E-10
  0.252632E-10  0.125018E-10  0.291363E-10  0.263968E-10  0.291363E-10  0.307328E-10
  0.252419E-10  0.172316E-10  0.113020E-10  0.753831E-11  0.496584E-11  0.325626E-11
  0.232994E-11  0.190217E-11  0.170746E-11  0.164769E-11  0.170746E-11  0.190217E-11
  0.232994E-11  0.325626E-11  0.496584E-11  0.753831E-11  0.113020E-10  0.172316E-10
  0.252419E-10  0.307328E-10  0.291363E-10  0.301757E-10  0.326121E-10  0.326121E-10
  0.301757E-10  0.242936E-10  0.172316E-10  0.117817E-10  0.820683E-11  0.572163E-11
  0.392667E-11  0.278355E-11  0.215267E-11  0.181223E-11  0.164990E-11  0.164990E-11
  0.181223E-11  0.215267E-11  0.278355E-11  0.392667E-11  0.572163E-11  0.820683E-11
  0.117817E-10  0.172316E-10  0.242936E-10  0.301757E-10  0.211237E-10  0.257313E-10
  0.275170E-10  0.257313E-10  0.211237E-10  0.157169E-10  0.113020E-10  0.820683E-11
  0.598457E-11  0.431935E-11  0.316098E-11  0.244074E-11  0.201054E-11  0.176798E-11
  0.168584E-11  0.176798E-11  0.201054E-11  0.244074E-11  0.316098E-11  0.431935E-11
  0.598457E-11  0.820683E-11  0.113020E-10  0.157169E-10  0.211237E-10  0.129033E-10
  0.161131E-10  0.183098E-10  0.183098E-10  0.161131E-10  0.129033E-10  0.989923E-11
  0.753831E-11  0.572163E-11  0.431935E-11  0.330776E-11  0.263094E-11  0.218538E-11
  0.190793E-11  0.177252E-11  0.177252E-11  0.190793E-11  0.218538E-11  0.263094E-11
  0.330776E-11  0.431935E-11  0.572163E-11  0.753831E-11  0.989923E-11  0.129033E-10
  0.779006E-11  0.946245E-11  0.108962E-10  0.114813E-10  0.108962E-10  0.946245E-11
  0.779006E-11  0.625919E-11  0.496584E-11  0.392667E-11  0.316098E-11  0.263094E-11
  0.225840E-11  0.201210E-11  0.188385E-11  0.184666E-11  0.188385E-11  0.201210E-11
  0.225840E-11  0.263094E-11  0.316098E-11  0.392667E-11  0.496584E-11  0.625919E-11
  0.779006E-11  0.467229E-11  0.554107E-11  0.634709E-11  0.685296E-11  0.685296E-11
  0.634709E-11  0.554107E-11  0.467229E-11  0.388901E-11  0.325626E-11  0.278355E-11
  0.244074E-11  0.218538E-11  0.201210E-11  0.194143E-11  0.193889E-11  0.193889E-11
  0.194143E-11  0.201210E-11  0.218538E-11  0.244074E-11  0.278355E-11  0.325626E-11
  0.388901E-11  0.467229E-11  0.293971E-11  0.342032E-11  0.392144E-11  0.429881E-11
  0.443776E-11  0.429881E-11  0.392144E-11  0.342032E-11  0.293971E-11  0.257546E-11
  0.232994E-11  0.215267E-11  0.201054E-11  0.190793E-11  0.188385E-11  0.193889E-11
  0.197943E-11  0.193889E-11  0.188385E-11  0.190793E-11  0.201054E-11  0.215267E-11
  0.232994E-11  0.257546E-11  0.293971E-11  0.234479E-11  0.272781E-11  0.316399E-11
  0.353942E-11  0.374881E-11  0.374881E-11  0.353942E-11  0.316399E-11  0.272781E-11
  0.234479E-11  0.207012E-11  0.190217E-11  0.181223E-11  0.176798E-11  0.177252E-11
  0.184666E-11  0.193889E-11  0.193889E-11  0.184666E-11  0.177252E-11  0.176798E-11
  0.181223E-11  0.190217E-11  0.207012E-11  0.234479E-11  0.240115E-11  0.304048E-11
  0.382755E-11  0.466008E-11  0.531708E-11  0.556721E-11  0.531708E-11  0.466008E-11
  0.382755E-11  0.304048E-11  0.240115E-11  0.194565E-11  0.170746E-11  0.164990E-11
  0.168584E-11  0.177252E-11  0.188385E-11  0.194143E-11  0.188385E-11  0.177252E-11
  0.168584E-11  0.164990E-11  0.170746E-11  0.194565E-11  0.240115E-11  0.261758E-11
  0.373752E-11  0.537695E-11  0.756405E-11  0.985436E-11  0.113393E-10  0.113393E-10
  0.985436E-11  0.756405E-11  0.537695E-11  0.373752E-11  0.261758E-11  0.193030E-11
  0.164769E-11  0.164990E-11  0.176798E-11  0.190793E-11  0.201210E-11  0.201210E-11
  0.190793E-11  0.176798E-11  0.164990E-11  0.164769E-11  0.193030E-11  0.261758E-11
  0.271899E-11  0.426634E-11  0.697567E-11  0.113440E-10  0.168303E-10  0.212487E-10
  0.228295E-10  0.212487E-10  0.168303E-10  0.113440E-10  0.697567E-11  0.426634E-11
  0.271899E-11  0.193030E-11  0.170746E-11  0.181223E-11  0.201054E-11  0.218538E-11
  0.225840E-11  0.218538E-11  0.201054E-11  0.181223E-11  0.170746E-11  0.193030E-11
  0.271899E-11  0.261758E-11  0.426634E-11  0.766501E-11  0.141010E-10  0.232896E-10
  0.308714E-10  0.335431E-10  0.335431E-10  0.308714E-10  0.232896E-10  0.141010E-10
  0.766501E-11  0.426634E-11  0.261758E-11  0.194565E-11  0.190217E-11  0.215267E-11
  0.244074E-11  0.263094E-11  0.263094E-11  0.244074E-11  0.215267E-11  0.190217E-11
  0.194565E-11  0.261758E-11  0.240115E-11  0.373752E-11  0.697567E-11  0.141010E-10
  0.258530E-10  0.354381E-10  0.345621E-10  0.309973E-10  0.345621E-10  0.354381E-10
  0.258530E-10  0.141010E-10  0.697567E-11  0.373752E-11  0.240115E-11  0.207012E-11
  0.232994E-11  0.278355E-11  0.316098E-11  0.330776E-11  0.316098E-11  0.278355E-11
  0.232994E-11  0.207012E-11  0.240115E-11  0.234479E-11  0.304048E-11  0.537695E-11
  0.113440E-10  0.232896E-10  0.354381E-10  0.319384E-10  0.162263E-10  0.162263E-10
  0.319384E-10  0.354381E-10  0.232896E-10  0.113440E-10  0.537695E-11  0.304048E-11
  0.234479E-11  0.257546E-11  0.325626E-11  0.392667E-11  0.431935E-11  0.431935E-11
  0.392667E-11  0.325626E-11  0.257546E-11  0.234479E-11  0.293971E-11  0.272781E-11
  0.382755E-11  0.756405E-11  0.168303E-10  0.308714E-10  0.345621E-10  0.162263E-10
  0.176502E-11  0.162263E-10  0.345621E-10  0.308714E-10  0.168303E-10  0.756405E-11
  0.382755E-11  0.272781E-11  0.293971E-11  0.388901E-11  0.496584E-11  0.572163E-11
  0.598457E-11  0.572163E-11  0.496584E-11  0.388901E-11  0.293971E-11  0.467229E-11
  0.342032E-11  0.316399E-11  0.466008E-11  0.985436E-11  0.212487E-10  0.335431E-10
  0.309973E-10  0.162263E-10  0.162263E-10  0.309973E-10  0.335431E-10  0.212487E-10
  0.985436E-11  0.466008E-11  0.316399E-11  0.342032E-11  0.467229E-11  0.625919E-11
  0.753831E-11  0.820683E-11  0.820683E-11  0.753831E-11  0.625919E-11  0.467229E-11
  0.779006E-11  0.554107E-11  0.392144E-11  0.353942E-11  0.531708E-11  0.113393E-10
  0.228295E-10  0.335431E-10  0.345621E-10  0.319384E-10  0.345621E-10  0.335431E-10
  0.228295E-10  0.113393E-10  0.531708E-11  0.353942E-11  0.392144E-11  0.554107E-11
  0.779006E-11  0.989923E-11  0.113020E-10  0.117817E-10  0.113020E-10  0.989923E-11
  0.779006E-11  0.129033E-10  0.946245E-11  0.634709E-11  0.429881E-11  0.374881E-11
  0.556721E-11  0.113393E-10  0.212487E-10  0.308714E-10  0.354381E-10  0.354381E-10
  0.308714E-10  0.212487E-10  0.113393E-10  0.556721E-11  0.374881E-11  0.429881E-11
  0.634709E-11  0.946245E-11  0.129033E-10  0.157169E-10  0.172316E-10  0.172316E-10
  0.157169E-10  0.129033E-10  0.211237E-10  0.161131E-10  0.108962E-10  0.685296E-11
  0.443776E-11  0.374881E-11  0.531708E-11  0.985436E-11  0.168303E-10  0.232896E-10
  0.258530E-10  0.232896E-10  0.168303E-10  0.985436E-11  0.531708E-11  0.374881E-11
  0.443776E-11  0.685296E-11  0.108962E-10  0.161131E-10  0.211237E-10  0.242936E-10
  0.252419E-10  0.242936E-10  0.211237E-10  0.301757E-10  0.257313E-10  0.183098E-10
  0.114813E-10  0.685296E-11  0.429881E-11  0.353942E-11  0.466008E-11  0.756405E-11
  0.113440E-10  0.141010E-10  0.141010E-10  0.113440E-10  0.756405E-11  0.466008E-11
  0.353942E-11  0.429881E-11  0.685296E-11  0.114813E-10  0.183098E-10  0.257313E-10
  0.301757E-10  0.307328E-10  0.307328E-10  0.301757E-10  0.291363E-10  0.326121E-10
  0.275170E-10  0.183098E-10  0.108962E-10  0.634709E-11  0.392144E-11  0.316399E-11
  0.382755E-11  0.537695E-11  0.697567E-11  0.766501E-11  0.697567E-11  0.537695E-11
  0.382755E-11  0.316399E-11  0.392144E-11  0.634709E-11  0.108962E-10  0.183098E-10
  0.275170E-10  0.326121E-10  0.291363E-10  0.252632E-10  0.291363E-10  0.125018E-10
  0.263968E-10  0.326121E-10  0.257313E-10  0.161131E-10  0.946245E-11  0.554107E-11
  0.342032E-11  0.272781E-11  0.304048E-11  0.373752E-11  0.426634E-11  0.426634E-11
  0.373752E-11  0.304048E-11  0.272781E-11  0.342032E-11  0.554107E-11  0.946245E-11
  0.161131E-10  0.257313E-10  0.326121E-10  0.263968E-10  0.125018E-10  0.125018E-10
  0.930200E-12  0.125018E-10  0.291363E-10  0.301757E-10  0.211237E-10  0.129033E-10
  0.779006E-11  0.467229E-11  0.293971E-11  0.234479E-11  0.240115E-11  0.261758E-11
  0.271899E-11  0.261758E-11  0.240115E-11  0.234479E-11  0.293971E-11  0.467229E-11
  0.779006E-11  0.129033E-10  0.211237E-10  0.301757E-10  0.291363E-10  0.125018E-10
  0.930200E-12  0.190051E-02  0.171160E-02  0.127887E-02  0.853859E-03  0.578415E-03
  0.451565E-03  0.422973E-03  0.453938E-03  0.523323E-03  0.615714E-03  0.711790E-03
  0.786154E-03  0.814417E-03  0.786154E-03  0.711790E-03  0.615714E-03  0.523323E-03
  0.453938E-03  0.422973E-03  0.451565E-03  0.578415E-03  0.853859E-03  0.127887E-02
  0.171160E-02  0.190051E-02  0.171160E-02  0.171160E-02  0.139347E-02  0.964791E-03
  0.623865E-03  0.427470E-03  0.339650E-03  0.314349E-03  0.324366E-03  0.355846E-03
  0.397713E-03  0.437098E-03  0.461007E-03  0.461007E-03  0.437098E-03  0.397713E-03
  0.355846E-03  0.324366E-03  0.314349E-03  0.339650E-03  0.427470E-03  0.623865E-03
  0.964791E-03  0.139347E-02  0.171160E-02  0.127887E-02  0.141427E-02  0.127887E-02
  0.964791E-03  0.646491E-03  0.425338E-03  0.303466E-03  0.245370E-03  0.222313E-03
  0.219694E-03  0.229668E-03  0.244995E-03  0.258141E-03  0.263253E-03  0.258141E-03
  0.244995E-03  0.229668E-03  0.219694E-03  0.222313E-03  0.245370E-03  0.303466E-03
  0.425338E-03  0.646491E-03  0.964791E-03  0.127887E-02  0.853859E-03  0.101752E-02
  0.101752E-02  0.853859E-03  0.623865E-03  0.425338E-03  0.293308E-03  0.216401E-03
  0.173786E-03  0.151803E-03  0.143317E-03  0.143109E-03  0.146215E-03  0.148752E-03
  0.148752E-03  0.146215E-03  0.143109E-03  0.143317E-03  0.151803E-03  0.173786E-03
  0.216401E-03  0.293308E-03  0.425338E-03  0.623865E-03  0.853859E-03  0.578415E-03
  0.712930E-03  0.768239E-03  0.712930E-03  0.578415E-03  0.427470E-03  0.303466E-03
  0.216401E-03  0.159101E-03  0.122845E-03  0.101736E-03  0.911535E-04  0.867468E-04
  0.851876E-04  0.848062E-04  0.851876E-04  0.867468E-04  0.911535E-04  0.101736E-03
  0.122845E-03  0.159101E-03  0.216401E-03  0.303466E-03  0.427470E-03  0.578415E-03
  0.451565E-03  0.560379E-03  0.630151E-03  0.630151E-03  0.560379E-03  0.451565E-03
  0.339650E-03  0.245370E-03  0.173786E-03  0.122845E-03  0.889943E-04  0.683460E-04
  0.567877E-04  0.507872E-04  0.481974E-04  0.481974E-04  0.507872E-04  0.567877E-04
  0.683460E-04  0.889943E-04  0.122845E-03  0.173786E-03  0.245370E-03  0.339650E-03
  0.451565E-03  0.422973E-03  0.533065E-03  0.618433E-03  0.651050E-03  0.618433E-03
  0.533065E-03  0.422973E-03  0.314349E-03  0.222313E-03  0.151803E-03  0.101736E-03
  0.683460E-04  0.473483E-04  0.350884E-04  0.288690E-04  0.269931E-04  0.288690E-04
  0.350884E-04  0.473483E-04  0.683460E-04  0.101736E-03  0.151803E-03  0.222313E-03
  0.314349E-03  0.422973E-03  0.453938E-03  0.593567E-03  0.716346E-03  0.789554E-03
  0.789554E-03  0.716346E-03  0.593567E-03  0.453938E-03  0.324366E-03  0.219694E-03
  0.143317E-03  0.911535E-04  0.567877E-04  0.350884E-04  0.227541E-04  0.173723E-04
  0.173723E-04  0.227541E-04  0.350884E-04  0.567877E-04  0.911535E-04  0.143317E-03
  0.219694E-03  0.324366E-03  0.453938E-03  0.523323E-03  0.719503E-03  0.914195E-03
  0.106209E-02  0.111793E-02  0.106209E-02  0.914195E-03  0.719503E-03  0.523323E-03
  0.355846E-03  0.229668E-03  0.143109E-03  0.867468E-04  0.507872E-04  0.288690E-04
  0.173723E-04  0.138733E-04  0.173723E-04  0.288690E-04  0.507872E-04  0.867468E-04
  0.143109E-03  0.229668E-03  0.355846E-03  0.523323E-03  0.615714E-03  0.897660E-03
  0.121941E-02  0.152051E-02  0.170884E-02  0.170884E-02  0.152051E-02  0.121941E-02
  0.897660E-03  0.615714E-03  0.397713E-03  0.244995E-03  0.146215E-03  0.851876E-04
  0.481974E-04  0.269931E-04  0.173723E-04  0.173723E-04  0.269931E-04  0.481974E-04
  0.851876E-04  0.146215E-03  0.244995E-03  0.397713E-03  0.615714E-03  0.711790E-03
  0.110867E-02  0.164116E-02  0.225955E-02  0.279528E-02  0.301281E-02  0.279528E-02
  0.225955E-02  0.164116E-02  0.110867E-02  0.711790E-03  0.437098E-03  0.258141E-03
  0.148752E-03  0.848062E-04  0.481974E-04  0.288690E-04  0.227541E-04  0.288690E-04
  0.481974E-04  0.848062E-04  0.148752E-03  0.258141E-03  0.437098E-03  0.711790E-03
  0.786154E-03  0.131041E-02  0.214036E-02  0.333358E-02  0.468956E-02  0.564815E-02
  0.564815E-02  0.468956E-02  0.333358E-02  0.214036E-02  0.131041E-02  0.786154E-03
  0.461007E-03  0.263253E-03  0.148752E-03  0.851876E-04  0.507872E-04  0.350884E-04
  0.350884E-04  0.507872E-04  0.851876E-04  0.148752E-03  0.263253E-03  0.461007E-03
  0.786154E-03  0.814417E-03  0.143811E-02  0.257783E-02  0.456137E-02  0.740909E-02
  0.102406E-01  0.114684E-01  0.102406E-01  0.740909E-02  0.456137E-02  0.257783E-02
  0.143811E-02  0.814417E-03  0.461007E-03  0.258141E-03  0.146215E-03  0.867468E-04
  0.567877E-04  0.473483E-04  0.567877E-04  0.867468E-04  0.146215E-03  0.258141E-03
  0.461007E-03  0.814417E-03  0.786154E-03  0.143811E-02  0.275641E-02  0.543189E-02
  0.101125E-01  0.161490E-01  0.207134E-01  0.207134E-01  0.161490E-01  0.101125E-01
  0.543189E-02  0.275641E-02  0.143811E-02  0.786154E-03  0.437098E-03  0.244995E-03
  0.143109E-03  0.911535E-04  0.683460E-04  0.683460E-04  0.911535E-04  0.143109E-03
  0.244995E-03  0.437098E-03  0.786154E-03  0.711790E-03  0.131041E-02  0.257783E-02
  0.543189E-02  0.112847E-01  0.206115E-01  0.304291E-01  0.347909E-01  0.304291E-01
  0.206115E-01  0.112847E-01  0.543189E-02  0.257783E-02  0.131041E-02  0.711790E-03
  0.397713E-03  0.229668E-03  0.143317E-03  0.101736E-03  0.889943E-04  0.101736E-03
  0.143317E-03  0.229668E-03  0.397713E-03  0.711790E-03  0.615714E-03  0.110867E-02
  0.214036E-02  0.456137E-02  0.101125E-01  0.206115E-01  0.347428E-01  0.456442E-01
  0.456442E-01  0.347428E-01  0.206115E-01  0.101125E-01  0.456137E-02  0.214036E-02
  0.110867E-02  0.615714E-03  0.355846E-03  0.219694E-03  0.151803E-03  0.122845E-03
  0.122845E-03  0.151803E-03  0.219694E-03  0.355846E-03  0.615714E-03  0.523323E-03
  0.897660E-03  0.164116E-02  0.333358E-02  0.740909E-02  0.161490E-01  0.304291E-01
  0.456442E-01  0.524361E-01  0.456442E-01  0.304291E-01  0.161490E-01  0.740909E-02
  0.333358E-02  0.164116E-02  0.897660E-03  0.523323E-03  0.324366E-03  0.222313E-03
  0.173786E-03  0.159101E-03  0.173786E-03  0.222313E-03  0.324366E-03  0.523323E-03
  0.453938E-03  0.719503E-03  0.121941E-02  0.225955E-02  0.468956E-02  0.102406E-01
  0.207134E-01  0.347909E-01  0.456442E-01  0.456442E-01  0.347909E-01  0.207134E-01
  0.102406E-01  0.468956E-02  0.225955E-02  0.121941E-02  0.719503E-03  0.453938E-03
  0.314349E-03  0.245370E-03  0.216401E-03  0.216401E-03  0.245370E-03  0.314349E-03
  0.453938E-03  0.422973E-03  0.593567E-03  0.914195E-03  0.152051E-02  0.279528E-02
  0.564815E-02  0.114684E-01  0.207134E-01  0.304291E-01  0.347428E-01  0.304291E-01
  0.207134E-01  0.114684E-01  0.564815E-02  0.279528E-02  0.152051E-02  0.914195E-03
  0.593567E-03  0.422973E-03  0.339650E-03  0.303466E-03  0.293308E-03  0.303466E-03
  0.339650E-03  0.422973E-03  0.451565E-03  0.533065E-03  0.716346E-03  0.106209E-02
  0.170884E-02  0.301281E-02  0.564815E-02  0.102406E-01  0.161490E-01  0.206115E-01
  0.206115E-01  0.161490E-01  0.102406E-01  0.564815E-02  0.301281E-02  0.170884E-02
  0.106209E-02  0.716346E-03  0.533065E-03  0.451565E-03  0.427470E-03  0.425338E-03
  0.425338E-03  0.427470E-03  0.451565E-03  0.578415E-03  0.560379E-03  0.618433E-03
  0.789554E-03  0.111793E-02  0.170884E-02  0.279528E-02  0.468956E-02  0.740909E-02
  0.101125E-01  0.112847E-01  0.101125E-01  0.740909E-02  0.468956E-02  0.279528E-02
  0.170884E-02  0.111793E-02  0.789554E-03  0.618433E-03  0.560379E-03  0.578415E-03
  0.623865E-03  0.646491E-03  0.623865E-03  0.578415E-03  0.853859E-03  0.712930E-03
  0.630151E-03  0.651050E-03  0.789554E-03  0.106209E-02  0.152051E-02  0.225955E-02
  0.333358E-02  0.456137E-02  0.543189E-02  0.543189E-02  0.456137E-02  0.333358E-02
  0.225955E-02  0.152051E-02  0.106209E-02  0.789554E-03  0.651050E-03  0.630151E-03
  0.712930E-03  0.853859E-03  0.964791E-03  0.964791E-03  0.853859E-03  0.127887E-02
  0.101752E-02  0.768239E-03  0.630151E-03  0.618433E-03  0.716346E-03  0.914195E-03
  0.121941E-02  0.164116E-02  0.214036E-02  0.257783E-02  0.275641E-02  0.257783E-02
  0.214036E-02  0.164116E-02  0.121941E-02  0.914195E-03  0.716346E-03  0.618433E-03
  0.630151E-03  0.768239E-03  0.101752E-02  0.127887E-02  0.139347E-02  0.127887E-02
  0.171160E-02  0.141427E-02  0.101752E-02  0.712930E-03  0.560379E-03  0.533065E-03
  0.593567E-03  0.719503E-03  0.897660E-03  0.110867E-02  0.131041E-02  0.143811E-02
  0.143811E-02  0.131041E-02  0.110867E-02  0.897660E-03  0.719503E-03  0.593567E-03
  0.533065E-03  0.560379E-03  0.712930E-03  0.101752E-02  0.141427E-02  0.171160E-02
  0.171160E-02  0.190051E-02  0.171160E-02  0.127887E-02  0.853859E-03  0.578415E-03
  0.451565E-03  0.422973E-03  0.453938E-03  0.523323E-03  0.615714E-03  0.711790E-03
  0.786154E-03  0.814417E-03  0.786154E-03  0.711790E-03  0.615714E-03  0.523323E-03
  0.453938E-03  0.422973E-03  0.451565E-03  0.578415E-03  0.853859E-03  0.127887E-02
  0.171160E-02  0.190051E-02  0.539837E-02  0.490505E-02  0.376903E-02  0.264086E-02
  0.189816E-02  0.155375E-02  0.148743E-02  0.160272E-02  0.184300E-02  0.215869E-02
  0.248290E-02  0.273075E-02  0.282423E-02  0.273075E-02  0.248290E-02  0.215869E-02
  0.184300E-02  0.160272E-02  0.148743E-02  0.155375E-02  0.189816E-02  0.264086E-02
  0.376903E-02  0.490505E-02  0.539837E-02  0.490505E-02  0.490505E-02  0.406377E-02
  0.291853E-02  0.199067E-02  0.144175E-02  0.118929E-02  0.111742E-02  0.115557E-02
  0.126487E-02  0.140912E-02  0.154414E-02  0.162575E-02  0.162575E-02  0.154414E-02
  0.140912E-02  0.126487E-02  0.115557E-02  0.111742E-02  0.118929E-02  0.144175E-02
  0.199067E-02  0.291853E-02  0.406377E-02  0.490505E-02  0.376903E-02  0.413259E-02
  0.376903E-02  0.291853E-02  0.204077E-02  0.141274E-02  0.105248E-02  0.872598E-03
  0.798426E-03  0.790566E-03  0.825293E-03  0.878197E-03  0.923415E-03  0.940968E-03
  0.923415E-03  0.878197E-03  0.825293E-03  0.790566E-03  0.798426E-03  0.872598E-03
  0.105248E-02  0.141274E-02  0.204077E-02  0.291853E-02  0.376903E-02  0.264086E-02
  0.309582E-02  0.309582E-02  0.264086E-02  0.199067E-02  0.141274E-02  0.101209E-02
  0.767028E-03  0.625172E-03  0.550142E-03  0.520978E-03  0.520254E-03  0.530831E-03
  0.539440E-03  0.539440E-03  0.530831E-03  0.520254E-03  0.520978E-03  0.550142E-03
  0.625172E-03  0.767028E-03  0.101209E-02  0.141274E-02  0.199067E-02  0.264086E-02
  0.189816E-02  0.229452E-02  0.245540E-02  0.229452E-02  0.189816E-02  0.144175E-02
  0.105248E-02  0.767028E-03  0.571879E-03  0.445629E-03  0.371571E-03  0.334298E-03
  0.318513E-03  0.312656E-03  0.311142E-03  0.312656E-03  0.318513E-03  0.334298E-03
  0.371571E-03  0.445629E-03  0.571879E-03  0.767028E-03  0.105248E-02  0.144175E-02
  0.189816E-02  0.155375E-02  0.189896E-02  0.211660E-02  0.211660E-02  0.189896E-02
  0.155375E-02  0.118929E-02  0.872598E-03  0.625172E-03  0.445629E-03  0.325163E-03
  0.251320E-03  0.209674E-03  0.187727E-03  0.178089E-03  0.178089E-03  0.187727E-03
  0.209674E-03  0.251320E-03  0.325163E-03  0.445629E-03  0.625172E-03  0.872598E-03
  0.118929E-02  0.155375E-02  0.148743E-02  0.185637E-02  0.213892E-02  0.224615E-02
  0.213892E-02  0.185637E-02  0.148743E-02  0.111742E-02  0.798426E-03  0.550142E-03
  0.371571E-03  0.251320E-03  0.175104E-03  0.130236E-03  0.107250E-03  0.100263E-03
  0.107250E-03  0.130236E-03  0.175104E-03  0.251320E-03  0.371571E-03  0.550142E-03
  0.798426E-03  0.111742E-02  0.148743E-02  0.160272E-02  0.208011E-02  0.249661E-02
  0.274361E-02  0.274361E-02  0.249661E-02  0.208011E-02  0.160272E-02  0.115557E-02
  0.790566E-03  0.520978E-03  0.334298E-03  0.209674E-03  0.130236E-03  0.848458E-04
  0.649865E-04  0.649865E-04  0.848458E-04  0.130236E-03  0.209674E-03  0.334298E-03
  0.520978E-03  0.790566E-03  0.115557E-02  0.160272E-02  0.184300E-02  0.251367E-02
  0.317214E-02  0.366753E-02  0.385352E-02  0.366753E-02  0.317214E-02  0.251367E-02
  0.184300E-02  0.126487E-02  0.825293E-03  0.520254E-03  0.318513E-03  0.187727E-03
  0.107250E-03  0.649865E-04  0.521522E-04  0.649865E-04  0.107250E-03  0.187727E-03
  0.318513E-03  0.520254E-03  0.825293E-03  0.126487E-02  0.184300E-02  0.215869E-02
  0.311244E-02  0.417729E-02  0.515216E-02  0.575252E-02  0.575252E-02  0.515216E-02
  0.417729E-02  0.311244E-02  0.215869E-02  0.140912E-02  0.878197E-03  0.530831E-03
  0.312656E-03  0.178089E-03  0.100263E-03  0.649865E-04  0.649865E-04  0.100263E-03
  0.178089E-03  0.312656E-03  0.530831E-03  0.878197E-03  0.140912E-02  0.215869E-02
  0.248290E-02  0.380342E-02  0.551045E-02  0.742120E-02  0.903229E-02  0.967749E-02
  0.903229E-02  0.742120E-02  0.551045E-02  0.380342E-02  0.248290E-02  0.154414E-02
  0.923415E-03  0.539440E-03  0.311142E-03  0.178089E-03  0.107250E-03  0.848458E-04
  0.107250E-03  0.178089E-03  0.311142E-03  0.539440E-03  0.923415E-03  0.154414E-02
  0.248290E-02  0.273075E-02  0.444723E-02  0.702854E-02  0.105638E-01  0.144427E-01
  0.171303E-01  0.171303E-01  0.144427E-01  0.105638E-01  0.702854E-02  0.444723E-02
  0.273075E-02  0.162575E-02  0.940968E-03  0.539440E-03  0.312656E-03  0.187727E-03
  0.130236E-03  0.130236E-03  0.187727E-03  0.312656E-03  0.539440E-03  0.940968E-03
  0.162575E-02  0.273075E-02  0.282423E-02  0.484735E-02  0.832231E-02  0.140352E-01
  0.219139E-01  0.295640E-01  0.328460E-01  0.295640E-01  0.219139E-01  0.140352E-01
  0.832231E-02  0.484735E-02  0.282423E-02  0.162575E-02  0.923415E-03  0.530831E-03
  0.318513E-03  0.209674E-03  0.175104E-03  0.209674E-03  0.318513E-03  0.530831E-03
  0.923415E-03  0.162575E-02  0.282423E-02  0.273075E-02  0.484735E-02  0.884300E-02
  0.164488E-01  0.291715E-01  0.451510E-01  0.570757E-01  0.570757E-01  0.451510E-01
  0.291715E-01  0.164488E-01  0.884300E-02  0.484735E-02  0.273075E-02  0.154414E-02
  0.878197E-03  0.520254E-03  0.334298E-03  0.251320E-03  0.251320E-03  0.334298E-03
  0.520254E-03  0.878197E-03  0.154414E-02  0.273075E-02  0.248290E-02  0.444723E-02
  0.832231E-02  0.164488E-01  0.322856E-01  0.567715E-01  0.821489E-01  0.933527E-01
  0.821489E-01  0.567715E-01  0.322856E-01  0.164488E-01  0.832231E-02  0.444723E-02
  0.248290E-02  0.140912E-02  0.825293E-03  0.520978E-03  0.371571E-03  0.325163E-03
  0.371571E-03  0.520978E-03  0.825293E-03  0.140912E-02  0.248290E-02  0.215869E-02
  0.380342E-02  0.702854E-02  0.140352E-01  0.291715E-01  0.567715E-01  0.932113E-01
  0.121079E+00  0.121079E+00  0.932113E-01  0.567715E-01  0.291715E-01  0.140352E-01
  0.702854E-02  0.380342E-02  0.215869E-02  0.126487E-02  0.790566E-03  0.550142E-03
  0.445629E-03  0.445629E-03  0.550142E-03  0.790566E-03  0.126487E-02  0.215869E-02
  0.184300E-02  0.311244E-02  0.551045E-02  0.105638E-01  0.219139E-01  0.451510E-01
  0.821489E-01  0.121079E+00  0.138373E+00  0.121079E+00  0.821489E-01  0.451510E-01
  0.219139E-01  0.105638E-01  0.551045E-02  0.311244E-02  0.184300E-02  0.115557E-02
  0.798426E-03  0.625172E-03  0.571879E-03  0.625172E-03  0.798426E-03  0.115557E-02
  0.184300E-02  0.160272E-02  0.251367E-02  0.417729E-02  0.742120E-02  0.144427E-01
  0.295640E-01  0.570757E-01  0.933527E-01  0.121079E+00  0.121079E+00  0.933527E-01
  0.570757E-01  0.295640E-01  0.144427E-01  0.742120E-02  0.417729E-02  0.251367E-02
  0.160272E-02  0.111742E-02  0.872598E-03  0.767028E-03  0.767028E-03  0.872598E-03
  0.111742E-02  0.160272E-02  0.148743E-02  0.208011E-02  0.317214E-02  0.515216E-02
  0.903229E-02  0.171303E-01  0.328460E-01  0.570757E-01  0.821489E-01  0.932113E-01
  0.821489E-01  0.570757E-01  0.328460E-01  0.171303E-01  0.903229E-02  0.515216E-02
  0.317214E-02  0.208011E-02  0.148743E-02  0.118929E-02  0.105248E-02  0.101209E-02
  0.105248E-02  0.118929E-02  0.148743E-02  0.155375E-02  0.185637E-02  0.249661E-02
  0.366753E-02  0.575252E-02  0.967749E-02  0.171303E-01  0.295640E-01  0.451510E-01
  0.567715E-01  0.567715E-01  0.451510E-01  0.295640E-01  0.171303E-01  0.967749E-02
  0.575252E-02  0.366753E-02  0.249661E-02  0.185637E-02  0.155375E-02  0.144175E-02
  0.141274E-02  0.141274E-02  0.144175E-02  0.155375E-02  0.189816E-02  0.189896E-02
  0.213892E-02  0.274361E-02  0.385352E-02  0.575252E-02  0.903229E-02  0.144427E-01
  0.219139E-01  0.291715E-01  0.322856E-01  0.291715E-01  0.219139E-01  0.144427E-01
  0.903229E-02  0.575252E-02  0.385352E-02  0.274361E-02  0.213892E-02  0.189896E-02
  0.189816E-02  0.199067E-02  0.204077E-02  0.199067E-02  0.189816E-02  0.264086E-02
  0.229452E-02  0.211660E-02  0.224615E-02  0.274361E-02  0.366753E-02  0.515216E-02
  0.742120E-02  0.105638E-01  0.140352E-01  0.164488E-01  0.164488E-01  0.140352E-01
  0.105638E-01  0.742120E-02  0.515216E-02  0.366753E-02  0.274361E-02  0.224615E-02
  0.211660E-02  0.229452E-02  0.264086E-02  0.291853E-02  0.291853E-02  0.264086E-02
  0.376903E-02  0.309582E-02  0.245540E-02  0.211660E-02  0.213892E-02  0.249661E-02
  0.317214E-02  0.417729E-02  0.551045E-02  0.702854E-02  0.832231E-02  0.884300E-02
  0.832231E-02  0.702854E-02  0.551045E-02  0.417729E-02  0.317214E-02  0.249661E-02
  0.213892E-02  0.211660E-02  0.245540E-02  0.309582E-02  0.376903E-02  0.406377E-02
  0.376903E-02  0.490505E-02  0.413259E-02  0.309582E-02  0.229452E-02  0.189896E-02
  0.185637E-02  0.208011E-02  0.251367E-02  0.311244E-02  0.380342E-02  0.444723E-02
  0.484735E-02  0.484735E-02  0.444723E-02  0.380342E-02  0.311244E-02  0.251367E-02
  0.208011E-02  0.185637E-02  0.189896E-02  0.229452E-02  0.309582E-02  0.413259E-02
  0.490505E-02  0.490505E-02  0.539837E-02  0.490505E-02  0.376903E-02  0.264086E-02
  0.189816E-02  0.155375E-02  0.148743E-02  0.160272E-02  0.184300E-02  0.215869E-02
  0.248290E-02  0.273075E-02  0.282423E-02  0.273075E-02  0.248290E-02  0.215869E-02
  0.184300E-02  0.160272E-02  0.148743E-02  0.155375E-02  0.189816E-02  0.264086E-02
  0.376903E-02  0.490505E-02  0.539837E-02  0.722085E-02  0.666438E-02  0.537122E-02
  0.406322E-02  0.318171E-02  0.277251E-02  0.272596E-02  0.294796E-02  0.337390E-02
  0.392446E-02  0.448125E-02  0.490033E-02  0.505683E-02  0.490033E-02  0.448125E-02
  0.392446E-02  0.337390E-02  0.294796E-02  0.272596E-02  0.277251E-02  0.318171E-02
  0.406322E-02  0.537122E-02  0.666438E-02  0.722085E-02  0.666438E-02  0.666438E-02
  0.569045E-02  0.433948E-02  0.320851E-02  0.250872E-02  0.217208E-02  0.207988E-02
  0.215613E-02  0.235083E-02  0.260442E-02  0.283997E-02  0.298155E-02  0.298155E-02
  0.283997E-02  0.260442E-02  0.235083E-02  0.215613E-02  0.207988E-02  0.217208E-02
  0.250872E-02  0.320851E-02  0.433948E-02  0.569045E-02  0.666438E-02  0.537122E-02
  0.580524E-02  0.537122E-02  0.433948E-02  0.323846E-02  0.240888E-02  0.189987E-02
  0.162687E-02  0.150874E-02  0.149854E-02  0.156090E-02  0.165406E-02  0.173315E-02
  0.176377E-02  0.173315E-02  0.165406E-02  0.156090E-02  0.149854E-02  0.150874E-02
  0.162687E-02  0.189987E-02  0.240888E-02  0.323846E-02  0.433948E-02  0.537122E-02
  0.406322E-02  0.464335E-02  0.464335E-02  0.406322E-02  0.320851E-02  0.240888E-02
  0.181520E-02  0.142412E-02  0.118419E-02  0.105372E-02  0.100277E-02  0.100148E-02
  0.101970E-02  0.103447E-02  0.103447E-02  0.101970E-02  0.100148E-02  0.100277E-02
  0.105372E-02  0.118419E-02  0.142412E-02  0.181520E-02  0.240888E-02  0.320851E-02
  0.406322E-02  0.318171E-02  0.374165E-02  0.396400E-02  0.374165E-02  0.318171E-02
  0.250872E-02  0.189987E-02  0.142412E-02  0.108201E-02  0.854665E-03  0.720056E-03
  0.651722E-03  0.621912E-03  0.610098E-03  0.606846E-03  0.610098E-03  0.621912E-03
  0.651722E-03  0.720056E-03  0.854665E-03  0.108201E-02  0.142412E-02  0.189987E-02
  0.250872E-02  0.318171E-02  0.277251E-02  0.331961E-02  0.365576E-02  0.365576E-02
  0.331961E-02  0.277251E-02  0.217208E-02  0.162687E-02  0.118419E-02  0.854665E-03
  0.630580E-03  0.492006E-03  0.412781E-03  0.370043E-03  0.350813E-03  0.350813E-03
  0.370043E-03  0.412781E-03  0.492006E-03  0.630580E-03  0.854665E-03  0.118419E-02
  0.162687E-02  0.217208E-02  0.277251E-02  0.272596E-02  0.335536E-02  0.382887E-02
  0.400687E-02  0.382887E-02  0.335536E-02  0.272596E-02  0.207988E-02  0.150874E-02
  0.105372E-02  0.720056E-03  0.492006E-03  0.345750E-03  0.258550E-03  0.213189E-03
  0.199231E-03  0.213189E-03  0.258550E-03  0.345750E-03  0.492006E-03  0.720056E-03
  0.105372E-02  0.150874E-02  0.207988E-02  0.272596E-02  0.294796E-02  0.378151E-02
  0.450073E-02  0.492418E-02  0.492418E-02  0.450073E-02  0.378151E-02  0.294796E-02
  0.215613E-02  0.149854E-02  0.100277E-02  0.651722E-03  0.412781E-03  0.258550E-03
  0.169789E-03  0.130756E-03  0.130756E-03  0.169789E-03  0.258550E-03  0.412781E-03
  0.651722E-03  0.100277E-02  0.149854E-02  0.215613E-02  0.294796E-02  0.337390E-02