
     Program PWSCF v.7.2 starts on 16Apr2024 at 12:30: 4 

     This program is part of the open-source Quantum ESPRESSO suite
     for quantum simulation of materials; please cite
         "P. Giannozzi et al., J. Phys.:Condens. Matter 21 395502 (2009);
         "P. Giannozzi et al., J. Phys.:Condens. Matter 29 465901 (2017);
         "P. Giannozzi et al., J. Chem. Phys. 152 154105 (2020);
          URL http://www.quantum-espresso.org", 
     in publications or presentations arising from this work. More details at
     http://www.quantum-espresso.org/quote

     Parallel version (MPI & OpenMP), running on       8 processor cores
     Number of MPI processes:                 8
     Threads/MPI process:                     1

     MPI processes distributed on     1 nodes
     0 MiB available memory on the printing compute node when the environment starts

     Waiting for input...
     Reading input from standard input
Warning: card / ignored
Warning: card $IONS ignored
Warning: card / ignored
Warning: card $CELL ignored
Warning: card / ignored

     Current dimensions of program PWSCF are:
     Max number of different atomic species (ntypx) = 10
     Max number of k-points (npk) =  40000
     Max angular momentum in pseudopotentials (lmaxx) =  4

     Atomic positions and unit cell read from directory:
     ./tmp40/hBN_1l_PBE_vdW.save/
     Atomic positions from file used, from input discarded


     IMPORTANT: XC functional enforced from input :
     Exchange-correlation= VDW-DF2-B86R
                           (   1   4  26   0   2   0   0)
     Any further DFT definition will be discarded
     Please, verify this is what you really want


     R & G space division:  proc/nbgrp/npool/nimage =       8
     Subspace diagonalization in iterative solution of the eigenvalue problem:
     a serial algorithm will be used


     Parallelization info
     --------------------
     sticks:   dense  smooth     PW     G-vecs:    dense   smooth      PW
     Min          45      45     14                 4333     4333     748
     Max          46      46     16                 4356     4356     759
     Sum         367     367    121                34803    34803    6043

     Using Slab Decomposition



     bravais-lattice index     =            4
     lattice parameter (alat)  =       4.7470  a.u.
     unit-cell volume          =     555.8269 (a.u.)^3
     number of atoms/cell      =            2
     number of atomic types    =            2
     number of electrons       =         8.00
     number of Kohn-Sham states=            8
     kinetic-energy cutoff     =      60.0000  Ry
     charge density cutoff     =     240.0000  Ry
     Exchange-correlation= VDW-DF2-B86R
                           (   1   4  26   0   2   0   0)

     celldm(1)=   4.747000  celldm(2)=   0.000000  celldm(3)=   6.000000
     celldm(4)=   0.000000  celldm(5)=   0.000000  celldm(6)=   0.000000

     crystal axes: (cart. coord. in units of alat)
               a(1) = (   1.000000   0.000000   0.000000 )  
               a(2) = (  -0.500000   0.866025   0.000000 )  
               a(3) = (   0.000000   0.000000   6.000000 )  

     reciprocal axes: (cart. coord. in units 2 pi/alat)
               b(1) = (  1.000000  0.577350 -0.000000 )  
               b(2) = (  0.000000  1.154701  0.000000 )  
               b(3) = (  0.000000 -0.000000  0.166667 )  


     PseudoPot. # 1 for N  read from file:
     ../../../Pseudo/PBE/N.upf
     MD5 check sum: d34365f73bb0e2ee98afc20ec3e87676
     Pseudo is Norm-conserving + core correction, Zval =  5.0
     Generated using ONCVPSP code by D. R. Hamann
     Using radial grid of 1058 points,  4 beta functions with: 
                l(1) =   0
                l(2) =   0
                l(3) =   1
                l(4) =   1

     PseudoPot. # 2 for B  read from file:
     ../../../Pseudo/PBE/B.upf
     MD5 check sum: 72f82fc31bc892420d0cab7e25c88ab8
     Pseudo is Norm-conserving + core correction, Zval =  3.0
     Generated using ONCVPSP code by D. R. Hamann
     Using radial grid of 1534 points,  4 beta functions with: 
                l(1) =   0
                l(2) =   0
                l(3) =   1
                l(4) =   1

     atomic species   valence    mass     pseudopotential
        N              5.00    14.00670     N ( 1.00)
        B              3.00    10.80100     B ( 1.00)

     12 Sym. Ops. (no inversion) found


                                    s                        frac. trans.

      isym =  1     identity                                     

 cryst.   s( 1) = (     1          0          0      )
                  (     0          1          0      )
                  (     0          0          1      )

 cart.    s( 1) = (  1.0000000  0.0000000  0.0000000 )
                  (  0.0000000  1.0000000  0.0000000 )
                  (  0.0000000  0.0000000  1.0000000 )


      isym =  2     180 deg rotation - cart. axis [0,1,0]        

 cryst.   s( 2) = (    -1          0          0      )
                  (     1          1          0      )
                  (     0          0         -1      )

 cart.    s( 2) = ( -1.0000000  0.0000000  0.0000000 )
                  (  0.0000000  1.0000000  0.0000000 )
                  (  0.0000000  0.0000000 -1.0000000 )


      isym =  3     120 deg rotation - cryst. axis [0,0,1]       

 cryst.   s( 3) = (     0          1          0      )
                  (    -1         -1          0      )
                  (     0          0          1      )

 cart.    s( 3) = ( -0.5000000 -0.8660254  0.0000000 )
                  (  0.8660254 -0.5000000  0.0000000 )
                  (  0.0000000  0.0000000  1.0000000 )


      isym =  4     120 deg rotation - cryst. axis [0,0,-1]      

 cryst.   s( 4) = (    -1         -1          0      )
                  (     1          0          0      )
                  (     0          0          1      )

 cart.    s( 4) = ( -0.5000000  0.8660254  0.0000000 )
                  ( -0.8660254 -0.5000000  0.0000000 )
                  (  0.0000000  0.0000000  1.0000000 )


      isym =  5     180 deg rotation - cryst. axis [1,-1,0]      

 cryst.   s( 5) = (     0         -1          0      )
                  (    -1          0          0      )
                  (     0          0         -1      )

 cart.    s( 5) = (  0.5000000 -0.8660254  0.0000000 )
                  ( -0.8660254 -0.5000000  0.0000000 )
                  (  0.0000000  0.0000000 -1.0000000 )


      isym =  6     180 deg rotation - cryst. axis [2,1,0]       

 cryst.   s( 6) = (     1          1          0      )
                  (     0         -1          0      )
                  (     0          0         -1      )

 cart.    s( 6) = (  0.5000000  0.8660254  0.0000000 )
                  (  0.8660254 -0.5000000  0.0000000 )
                  (  0.0000000  0.0000000 -1.0000000 )


      isym =  7     inv. 180 deg rotation - cart. axis [0,0,1]   

 cryst.   s( 7) = (     1          0          0      )
                  (     0          1          0      )
                  (     0          0         -1      )

 cart.    s( 7) = (  1.0000000  0.0000000  0.0000000 )
                  (  0.0000000  1.0000000  0.0000000 )
                  (  0.0000000  0.0000000 -1.0000000 )


      isym =  8     inv. 180 deg rotation - cart. axis [1,0,0]   

 cryst.   s( 8) = (    -1          0          0      )
                  (     1          1          0      )
                  (     0          0          1      )

 cart.    s( 8) = ( -1.0000000  0.0000000  0.0000000 )
                  (  0.0000000  1.0000000  0.0000000 )
                  (  0.0000000  0.0000000  1.0000000 )


      isym =  9     inv.  60 deg rotation - cryst. axis [0,0,1]  

 cryst.   s( 9) = (    -1         -1          0      )
                  (     1          0          0      )
                  (     0          0         -1      )

 cart.    s( 9) = ( -0.5000000  0.8660254  0.0000000 )
                  ( -0.8660254 -0.5000000  0.0000000 )
                  (  0.0000000  0.0000000 -1.0000000 )


      isym = 10     inv.  60 deg rotation - cryst. axis [0,0,-1] 

 cryst.   s(10) = (     0          1          0      )
                  (    -1         -1          0      )
                  (     0          0         -1      )

 cart.    s(10) = ( -0.5000000 -0.8660254  0.0000000 )
                  (  0.8660254 -0.5000000  0.0000000 )
                  (  0.0000000  0.0000000 -1.0000000 )


      isym = 11     inv. 180 deg rotation - cryst. axis [0,1,0]  

 cryst.   s(11) = (     1          1          0      )
                  (     0         -1          0      )
                  (     0          0          1      )

 cart.    s(11) = (  0.5000000  0.8660254  0.0000000 )
                  (  0.8660254 -0.5000000  0.0000000 )
                  (  0.0000000  0.0000000  1.0000000 )


      isym = 12     inv. 180 deg rotation - cryst. axis [1,1,0]  

 cryst.   s(12) = (     0         -1          0      )
                  (    -1          0          0      )
                  (     0          0          1      )

 cart.    s(12) = (  0.5000000 -0.8660254  0.0000000 )
                  ( -0.8660254 -0.5000000  0.0000000 )
                  (  0.0000000  0.0000000  1.0000000 )


     point group D_3h (-62m)
     there are  6 classes
     the character table:

       E     2C3   3C2   s_h   2S3   3s_v 
A'_1   1.00  1.00  1.00  1.00  1.00  1.00
A'_2   1.00  1.00 -1.00  1.00  1.00 -1.00
E'     2.00 -1.00  0.00  2.00 -1.00  0.00
A''1   1.00  1.00  1.00 -1.00 -1.00 -1.00
A''2   1.00  1.00 -1.00 -1.00 -1.00  1.00
E''    2.00 -1.00  0.00 -2.00  1.00  0.00

     the symmetry operations in each class and the name of the first element:

     E        1
          identity                                               
     2C3      3    4
          120 deg rotation - cryst. axis [0,0,1]                 
     3C2      2    6    5
          180 deg rotation - cart. axis [0,1,0]                  
     s_h      7
          inv. 180 deg rotation - cart. axis [0,0,1]             
     2S3      9   10
          inv.  60 deg rotation - cryst. axis [0,0,1]            
     3s_v     8   11   12
          inv. 180 deg rotation - cart. axis [1,0,0]             

   Cartesian axes

     site n.     atom                  positions (alat units)
         1           B   tau(   1) = (   0.0000000   0.0000000   0.0000000  )
         2           N   tau(   2) = (  -0.0000000   0.5773503   0.0000000  )

   Crystallographic axes

     site n.     atom                  positions (cryst. coord.)
         1           B   tau(   1) = (  0.0000000  0.0000000  0.0000000  )
         2           N   tau(   2) = (  0.3333333  0.6666667  0.0000000  )

     number of k points=   154  Marzari-Vanderbilt smearing, width (Ry)=  0.0050
                       cart. coord. in units 2pi/alat
        k(    1) = (   0.0000000   0.0000000   0.0000000), wk =   0.0012500
        k(    2) = (   0.0000000   0.0288675   0.0000000), wk =   0.0075000
        k(    3) = (   0.0000000   0.0577350   0.0000000), wk =   0.0075000
        k(    4) = (   0.0000000   0.0866025   0.0000000), wk =   0.0075000
        k(    5) = (   0.0000000   0.1154701   0.0000000), wk =   0.0075000
        k(    6) = (   0.0000000   0.1443376   0.0000000), wk =   0.0075000
        k(    7) = (   0.0000000   0.1732051   0.0000000), wk =   0.0075000
        k(    8) = (   0.0000000   0.2020726   0.0000000), wk =   0.0075000
        k(    9) = (   0.0000000   0.2309401   0.0000000), wk =   0.0075000
        k(   10) = (   0.0000000   0.2598076   0.0000000), wk =   0.0075000
        k(   11) = (   0.0000000   0.2886751   0.0000000), wk =   0.0075000
        k(   12) = (   0.0000000   0.3175426   0.0000000), wk =   0.0075000
        k(   13) = (   0.0000000   0.3464102   0.0000000), wk =   0.0075000
        k(   14) = (   0.0000000   0.3752777   0.0000000), wk =   0.0075000
        k(   15) = (   0.0000000   0.4041452   0.0000000), wk =   0.0075000
        k(   16) = (   0.0000000   0.4330127   0.0000000), wk =   0.0075000
        k(   17) = (   0.0000000   0.4618802   0.0000000), wk =   0.0075000
        k(   18) = (   0.0000000   0.4907477   0.0000000), wk =   0.0075000
        k(   19) = (   0.0000000   0.5196152   0.0000000), wk =   0.0075000
        k(   20) = (   0.0000000   0.5484828   0.0000000), wk =   0.0075000
        k(   21) = (   0.0000000  -0.5773503   0.0000000), wk =   0.0037500
        k(   22) = (   0.0250000   0.0433013   0.0000000), wk =   0.0075000
        k(   23) = (   0.0250000   0.0721688   0.0000000), wk =   0.0150000
        k(   24) = (   0.0250000   0.1010363   0.0000000), wk =   0.0150000
        k(   25) = (   0.0250000   0.1299038   0.0000000), wk =   0.0150000
        k(   26) = (   0.0250000   0.1587713   0.0000000), wk =   0.0150000
        k(   27) = (   0.0250000   0.1876388   0.0000000), wk =   0.0150000
        k(   28) = (   0.0250000   0.2165064   0.0000000), wk =   0.0150000
        k(   29) = (   0.0250000   0.2453739   0.0000000), wk =   0.0150000
        k(   30) = (   0.0250000   0.2742414   0.0000000), wk =   0.0150000
        k(   31) = (   0.0250000   0.3031089   0.0000000), wk =   0.0150000
        k(   32) = (   0.0250000   0.3319764   0.0000000), wk =   0.0150000
        k(   33) = (   0.0250000   0.3608439   0.0000000), wk =   0.0150000
        k(   34) = (   0.0250000   0.3897114   0.0000000), wk =   0.0150000
        k(   35) = (   0.0250000   0.4185789   0.0000000), wk =   0.0150000
        k(   36) = (   0.0250000   0.4474465   0.0000000), wk =   0.0150000
        k(   37) = (   0.0250000   0.4763140   0.0000000), wk =   0.0150000
        k(   38) = (   0.0250000   0.5051815   0.0000000), wk =   0.0150000
        k(   39) = (   0.0250000   0.5340490   0.0000000), wk =   0.0150000
        k(   40) = (   0.0250000   0.5629165   0.0000000), wk =   0.0150000
        k(   41) = (   0.0500000   0.0866025   0.0000000), wk =   0.0075000
        k(   42) = (   0.0500000   0.1154701   0.0000000), wk =   0.0150000
        k(   43) = (   0.0500000   0.1443376   0.0000000), wk =   0.0150000
        k(   44) = (   0.0500000   0.1732051   0.0000000), wk =   0.0150000
        k(   45) = (   0.0500000   0.2020726   0.0000000), wk =   0.0150000
        k(   46) = (   0.0500000   0.2309401   0.0000000), wk =   0.0150000
        k(   47) = (   0.0500000   0.2598076   0.0000000), wk =   0.0150000
        k(   48) = (   0.0500000   0.2886751   0.0000000), wk =   0.0150000
        k(   49) = (   0.0500000   0.3175426   0.0000000), wk =   0.0150000
        k(   50) = (   0.0500000   0.3464102   0.0000000), wk =   0.0150000
        k(   51) = (   0.0500000   0.3752777   0.0000000), wk =   0.0150000
        k(   52) = (   0.0500000   0.4041452   0.0000000), wk =   0.0150000
        k(   53) = (   0.0500000   0.4330127   0.0000000), wk =   0.0150000
        k(   54) = (   0.0500000   0.4618802   0.0000000), wk =   0.0150000
        k(   55) = (   0.0500000   0.4907477   0.0000000), wk =   0.0150000
        k(   56) = (   0.0500000   0.5196152   0.0000000), wk =   0.0150000
        k(   57) = (   0.0500000   0.5484828   0.0000000), wk =   0.0150000
        k(   58) = (   0.0500000   0.5773503   0.0000000), wk =   0.0075000
        k(   59) = (   0.0750000   0.1299038   0.0000000), wk =   0.0075000
        k(   60) = (   0.0750000   0.1587713   0.0000000), wk =   0.0150000
        k(   61) = (   0.0750000   0.1876388   0.0000000), wk =   0.0150000
        k(   62) = (   0.0750000   0.2165064   0.0000000), wk =   0.0150000
        k(   63) = (   0.0750000   0.2453739   0.0000000), wk =   0.0150000
        k(   64) = (   0.0750000   0.2742414   0.0000000), wk =   0.0150000
        k(   65) = (   0.0750000   0.3031089   0.0000000), wk =   0.0150000
        k(   66) = (   0.0750000   0.3319764   0.0000000), wk =   0.0150000
        k(   67) = (   0.0750000   0.3608439   0.0000000), wk =   0.0150000
        k(   68) = (   0.0750000   0.3897114   0.0000000), wk =   0.0150000
        k(   69) = (   0.0750000   0.4185789   0.0000000), wk =   0.0150000
        k(   70) = (   0.0750000   0.4474465   0.0000000), wk =   0.0150000
        k(   71) = (   0.0750000   0.4763140   0.0000000), wk =   0.0150000
        k(   72) = (   0.0750000   0.5051815   0.0000000), wk =   0.0150000
        k(   73) = (   0.0750000   0.5340490   0.0000000), wk =   0.0150000
        k(   74) = (   0.0750000   0.5629165   0.0000000), wk =   0.0150000
        k(   75) = (   0.1000000   0.1732051   0.0000000), wk =   0.0075000
        k(   76) = (   0.1000000   0.2020726   0.0000000), wk =   0.0150000
        k(   77) = (   0.1000000   0.2309401   0.0000000), wk =   0.0150000
        k(   78) = (   0.1000000   0.2598076   0.0000000), wk =   0.0150000
        k(   79) = (   0.1000000   0.2886751   0.0000000), wk =   0.0150000
        k(   80) = (   0.1000000   0.3175426   0.0000000), wk =   0.0150000
        k(   81) = (   0.1000000   0.3464102   0.0000000), wk =   0.0150000
        k(   82) = (   0.1000000   0.3752777   0.0000000), wk =   0.0150000
        k(   83) = (   0.1000000   0.4041452   0.0000000), wk =   0.0150000
        k(   84) = (   0.1000000   0.4330127   0.0000000), wk =   0.0150000
        k(   85) = (   0.1000000   0.4618802   0.0000000), wk =   0.0150000
        k(   86) = (   0.1000000   0.4907477   0.0000000), wk =   0.0150000
        k(   87) = (   0.1000000   0.5196152   0.0000000), wk =   0.0150000
        k(   88) = (   0.1000000   0.5484828   0.0000000), wk =   0.0150000
        k(   89) = (   0.1000000   0.5773503   0.0000000), wk =   0.0075000
        k(   90) = (   0.1250000   0.2165064   0.0000000), wk =   0.0075000
        k(   91) = (   0.1250000   0.2453739   0.0000000), wk =   0.0150000
        k(   92) = (   0.1250000   0.2742414   0.0000000), wk =   0.0150000
        k(   93) = (   0.1250000   0.3031089   0.0000000), wk =   0.0150000
        k(   94) = (   0.1250000   0.3319764   0.0000000), wk =   0.0150000
        k(   95) = (   0.1250000   0.3608439   0.0000000), wk =   0.0150000
        k(   96) = (   0.1250000   0.3897114   0.0000000), wk =   0.0150000
        k(   97) = (   0.1250000   0.4185789   0.0000000), wk =   0.0150000
        k(   98) = (   0.1250000   0.4474465   0.0000000), wk =   0.0150000
        k(   99) = (   0.1250000   0.4763140   0.0000000), wk =   0.0150000
        k(  100) = (   0.1250000   0.5051815   0.0000000), wk =   0.0150000
        k(  101) = (   0.1250000   0.5340490   0.0000000), wk =   0.0150000
        k(  102) = (   0.1250000   0.5629165   0.0000000), wk =   0.0150000
        k(  103) = (   0.1500000   0.2598076   0.0000000), wk =   0.0075000
        k(  104) = (   0.1500000   0.2886751   0.0000000), wk =   0.0150000
        k(  105) = (   0.1500000   0.3175426   0.0000000), wk =   0.0150000
        k(  106) = (   0.1500000   0.3464102   0.0000000), wk =   0.0150000
        k(  107) = (   0.1500000   0.3752777   0.0000000), wk =   0.0150000
        k(  108) = (   0.1500000   0.4041452   0.0000000), wk =   0.0150000
        k(  109) = (   0.1500000   0.4330127   0.0000000), wk =   0.0150000
        k(  110) = (   0.1500000   0.4618802   0.0000000), wk =   0.0150000
        k(  111) = (   0.1500000   0.4907477   0.0000000), wk =   0.0150000
        k(  112) = (   0.1500000   0.5196152   0.0000000), wk =   0.0150000
        k(  113) = (   0.1500000   0.5484828   0.0000000), wk =   0.0150000
        k(  114) = (   0.1500000   0.5773503   0.0000000), wk =   0.0075000
        k(  115) = (   0.1750000   0.3031089   0.0000000), wk =   0.0075000
        k(  116) = (   0.1750000   0.3319764   0.0000000), wk =   0.0150000
        k(  117) = (   0.1750000   0.3608439   0.0000000), wk =   0.0150000
        k(  118) = (   0.1750000   0.3897114   0.0000000), wk =   0.0150000
        k(  119) = (   0.1750000   0.4185789   0.0000000), wk =   0.0150000
        k(  120) = (   0.1750000   0.4474465   0.0000000), wk =   0.0150000
        k(  121) = (   0.1750000   0.4763140   0.0000000), wk =   0.0150000
        k(  122) = (   0.1750000   0.5051815   0.0000000), wk =   0.0150000
        k(  123) = (   0.1750000   0.5340490   0.0000000), wk =   0.0150000
        k(  124) = (   0.1750000   0.5629165   0.0000000), wk =   0.0150000
        k(  125) = (   0.2000000   0.3464102   0.0000000), wk =   0.0075000
        k(  126) = (   0.2000000   0.3752777   0.0000000), wk =   0.0150000
        k(  127) = (   0.2000000   0.4041452   0.0000000), wk =   0.0150000
        k(  128) = (   0.2000000   0.4330127   0.0000000), wk =   0.0150000
        k(  129) = (   0.2000000   0.4618802   0.0000000), wk =   0.0150000
        k(  130) = (   0.2000000   0.4907477   0.0000000), wk =   0.0150000
        k(  131) = (   0.2000000   0.5196152   0.0000000), wk =   0.0150000
        k(  132) = (   0.2000000   0.5484828   0.0000000), wk =   0.0150000
        k(  133) = (   0.2000000   0.5773503   0.0000000), wk =   0.0075000
        k(  134) = (   0.2250000   0.3897114   0.0000000), wk =   0.0075000
        k(  135) = (   0.2250000   0.4185789   0.0000000), wk =   0.0150000
        k(  136) = (   0.2250000   0.4474465   0.0000000), wk =   0.0150000
        k(  137) = (   0.2250000   0.4763140   0.0000000), wk =   0.0150000
        k(  138) = (   0.2250000   0.5051815   0.0000000), wk =   0.0150000
        k(  139) = (   0.2250000   0.5340490   0.0000000), wk =   0.0150000
        k(  140) = (   0.2250000   0.5629165   0.0000000), wk =   0.0150000
        k(  141) = (   0.2500000   0.4330127   0.0000000), wk =   0.0075000
        k(  142) = (   0.2500000   0.4618802   0.0000000), wk =   0.0150000
        k(  143) = (   0.2500000   0.4907477   0.0000000), wk =   0.0150000
        k(  144) = (   0.2500000   0.5196152   0.0000000), wk =   0.0150000
        k(  145) = (   0.2500000   0.5484828   0.0000000), wk =   0.0150000
        k(  146) = (   0.2500000   0.5773503   0.0000000), wk =   0.0075000
        k(  147) = (   0.2750000   0.4763140   0.0000000), wk =   0.0075000
        k(  148) = (   0.2750000   0.5051815   0.0000000), wk =   0.0150000
        k(  149) = (   0.2750000   0.5340490   0.0000000), wk =   0.0150000
        k(  150) = (   0.2750000   0.5629165   0.0000000), wk =   0.0150000
        k(  151) = (   0.3000000   0.5196152   0.0000000), wk =   0.0075000
        k(  152) = (   0.3000000   0.5484828   0.0000000), wk =   0.0150000
        k(  153) = (   0.3000000   0.5773503   0.0000000), wk =   0.0075000
        k(  154) = (   0.3250000   0.5629165   0.0000000), wk =   0.0075000

                       cryst. coord.
        k(    1) = (   0.0000000   0.0000000   0.0000000), wk =   0.0012500
        k(    2) = (   0.0000000   0.0250000   0.0000000), wk =   0.0075000
        k(    3) = (   0.0000000   0.0500000   0.0000000), wk =   0.0075000
        k(    4) = (   0.0000000   0.0750000   0.0000000), wk =   0.0075000
        k(    5) = (   0.0000000   0.1000000   0.0000000), wk =   0.0075000
        k(    6) = (   0.0000000   0.1250000   0.0000000), wk =   0.0075000
        k(    7) = (   0.0000000   0.1500000   0.0000000), wk =   0.0075000
        k(    8) = (   0.0000000   0.1750000   0.0000000), wk =   0.0075000
        k(    9) = (   0.0000000   0.2000000   0.0000000), wk =   0.0075000
        k(   10) = (   0.0000000   0.2250000   0.0000000), wk =   0.0075000
        k(   11) = (   0.0000000   0.2500000   0.0000000), wk =   0.0075000
        k(   12) = (   0.0000000   0.2750000   0.0000000), wk =   0.0075000
        k(   13) = (   0.0000000   0.3000000   0.0000000), wk =   0.0075000
        k(   14) = (   0.0000000   0.3250000   0.0000000), wk =   0.0075000
        k(   15) = (   0.0000000   0.3500000   0.0000000), wk =   0.0075000
        k(   16) = (   0.0000000   0.3750000   0.0000000), wk =   0.0075000
        k(   17) = (   0.0000000   0.4000000   0.0000000), wk =   0.0075000
        k(   18) = (   0.0000000   0.4250000   0.0000000), wk =   0.0075000
        k(   19) = (   0.0000000   0.4500000   0.0000000), wk =   0.0075000
        k(   20) = (   0.0000000   0.4750000   0.0000000), wk =   0.0075000
        k(   21) = (   0.0000000  -0.5000000   0.0000000), wk =   0.0037500
        k(   22) = (   0.0250000   0.0250000   0.0000000), wk =   0.0075000
        k(   23) = (   0.0250000   0.0500000   0.0000000), wk =   0.0150000
        k(   24) = (   0.0250000   0.0750000   0.0000000), wk =   0.0150000
        k(   25) = (   0.0250000   0.1000000   0.0000000), wk =   0.0150000
        k(   26) = (   0.0250000   0.1250000   0.0000000), wk =   0.0150000
        k(   27) = (   0.0250000   0.1500000   0.0000000), wk =   0.0150000
        k(   28) = (   0.0250000   0.1750000   0.0000000), wk =   0.0150000
        k(   29) = (   0.0250000   0.2000000   0.0000000), wk =   0.0150000
        k(   30) = (   0.0250000   0.2250000   0.0000000), wk =   0.0150000
        k(   31) = (   0.0250000   0.2500000   0.0000000), wk =   0.0150000
        k(   32) = (   0.0250000   0.2750000   0.0000000), wk =   0.0150000
        k(   33) = (   0.0250000   0.3000000   0.0000000), wk =   0.0150000
        k(   34) = (   0.0250000   0.3250000   0.0000000), wk =   0.0150000
        k(   35) = (   0.0250000   0.3500000   0.0000000), wk =   0.0150000
        k(   36) = (   0.0250000   0.3750000   0.0000000), wk =   0.0150000
        k(   37) = (   0.0250000   0.4000000   0.0000000), wk =   0.0150000
        k(   38) = (   0.0250000   0.4250000   0.0000000), wk =   0.0150000
        k(   39) = (   0.0250000   0.4500000   0.0000000), wk =   0.0150000
        k(   40) = (   0.0250000   0.4750000   0.0000000), wk =   0.0150000
        k(   41) = (   0.0500000   0.0500000   0.0000000), wk =   0.0075000
        k(   42) = (   0.0500000   0.0750000   0.0000000), wk =   0.0150000
        k(   43) = (   0.0500000   0.1000000   0.0000000), wk =   0.0150000
        k(   44) = (   0.0500000   0.1250000   0.0000000), wk =   0.0150000
        k(   45) = (   0.0500000   0.1500000   0.0000000), wk =   0.0150000
        k(   46) = (   0.0500000   0.1750000   0.0000000), wk =   0.0150000
        k(   47) = (   0.0500000   0.2000000   0.0000000), wk =   0.0150000
        k(   48) = (   0.0500000   0.2250000   0.0000000), wk =   0.0150000
        k(   49) = (   0.0500000   0.2500000   0.0000000), wk =   0.0150000
        k(   50) = (   0.0500000   0.2750000   0.0000000), wk =   0.0150000
        k(   51) = (   0.0500000   0.3000000   0.0000000), wk =   0.0150000
        k(   52) = (   0.0500000   0.3250000   0.0000000), wk =   0.0150000
        k(   53) = (   0.0500000   0.3500000   0.0000000), wk =   0.0150000
        k(   54) = (   0.0500000   0.3750000   0.0000000), wk =   0.0150000
        k(   55) = (   0.0500000   0.4000000   0.0000000), wk =   0.0150000
        k(   56) = (   0.0500000   0.4250000   0.0000000), wk =   0.0150000
        k(   57) = (   0.0500000   0.4500000   0.0000000), wk =   0.0150000
        k(   58) = (   0.0500000   0.4750000   0.0000000), wk =   0.0075000
        k(   59) = (   0.0750000   0.0750000   0.0000000), wk =   0.0075000
        k(   60) = (   0.0750000   0.1000000   0.0000000), wk =   0.0150000
        k(   61) = (   0.0750000   0.1250000   0.0000000), wk =   0.0150000
        k(   62) = (   0.0750000   0.1500000   0.0000000), wk =   0.0150000
        k(   63) = (   0.0750000   0.1750000   0.0000000), wk =   0.0150000
        k(   64) = (   0.0750000   0.2000000   0.0000000), wk =   0.0150000
        k(   65) = (   0.0750000   0.2250000   0.0000000), wk =   0.0150000
        k(   66) = (   0.0750000   0.2500000   0.0000000), wk =   0.0150000
        k(   67) = (   0.0750000   0.2750000   0.0000000), wk =   0.0150000
        k(   68) = (   0.0750000   0.3000000   0.0000000), wk =   0.0150000
        k(   69) = (   0.0750000   0.3250000   0.0000000), wk =   0.0150000
        k(   70) = (   0.0750000   0.3500000   0.0000000), wk =   0.0150000
        k(   71) = (   0.0750000   0.3750000   0.0000000), wk =   0.0150000
        k(   72) = (   0.0750000   0.4000000   0.0000000), wk =   0.0150000
        k(   73) = (   0.0750000   0.4250000   0.0000000), wk =   0.0150000
        k(   74) = (   0.0750000   0.4500000   0.0000000), wk =   0.0150000
        k(   75) = (   0.1000000   0.1000000   0.0000000), wk =   0.0075000
        k(   76) = (   0.1000000   0.1250000   0.0000000), wk =   0.0150000
        k(   77) = (   0.1000000   0.1500000   0.0000000), wk =   0.0150000
        k(   78) = (   0.1000000   0.1750000   0.0000000), wk =   0.0150000
        k(   79) = (   0.1000000   0.2000000   0.0000000), wk =   0.0150000
        k(   80) = (   0.1000000   0.2250000   0.0000000), wk =   0.0150000
        k(   81) = (   0.1000000   0.2500000   0.0000000), wk =   0.0150000
        k(   82) = (   0.1000000   0.2750000   0.0000000), wk =   0.0150000
        k(   83) = (   0.1000000   0.3000000   0.0000000), wk =   0.0150000
        k(   84) = (   0.1000000   0.3250000   0.0000000), wk =   0.0150000
        k(   85) = (   0.1000000   0.3500000   0.0000000), wk =   0.0150000
        k(   86) = (   0.1000000   0.3750000   0.0000000), wk =   0.0150000
        k(   87) = (   0.1000000   0.4000000   0.0000000), wk =   0.0150000
        k(   88) = (   0.1000000   0.4250000   0.0000000), wk =   0.0150000
        k(   89) = (   0.1000000   0.4500000   0.0000000), wk =   0.0075000
        k(   90) = (   0.1250000   0.1250000   0.0000000), wk =   0.0075000
        k(   91) = (   0.1250000   0.1500000   0.0000000), wk =   0.0150000
        k(   92) = (   0.1250000   0.1750000   0.0000000), wk =   0.0150000
        k(   93) = (   0.1250000   0.2000000   0.0000000), wk =   0.0150000
        k(   94) = (   0.1250000   0.2250000   0.0000000), wk =   0.0150000
        k(   95) = (   0.1250000   0.2500000   0.0000000), wk =   0.0150000
        k(   96) = (   0.1250000   0.2750000   0.0000000), wk =   0.0150000
        k(   97) = (   0.1250000   0.3000000   0.0000000), wk =   0.0150000
        k(   98) = (   0.1250000   0.3250000   0.0000000), wk =   0.0150000
        k(   99) = (   0.1250000   0.3500000   0.0000000), wk =   0.0150000
        k(  100) = (   0.1250000   0.3750000   0.0000000), wk =   0.0150000
        k(  101) = (   0.1250000   0.4000000   0.0000000), wk =   0.0150000
        k(  102) = (   0.1250000   0.4250000   0.0000000), wk =   0.0150000
        k(  103) = (   0.1500000   0.1500000   0.0000000), wk =   0.0075000
        k(  104) = (   0.1500000   0.1750000   0.0000000), wk =   0.0150000
        k(  105) = (   0.1500000   0.2000000   0.0000000), wk =   0.0150000
        k(  106) = (   0.1500000   0.2250000   0.0000000), wk =   0.0150000
        k(  107) = (   0.1500000   0.2500000   0.0000000), wk =   0.0150000
        k(  108) = (   0.1500000   0.2750000   0.0000000), wk =   0.0150000
        k(  109) = (   0.1500000   0.3000000   0.0000000), wk =   0.0150000
        k(  110) = (   0.1500000   0.3250000   0.0000000), wk =   0.0150000
        k(  111) = (   0.1500000   0.3500000   0.0000000), wk =   0.0150000
        k(  112) = (   0.1500000   0.3750000   0.0000000), wk =   0.0150000
        k(  113) = (   0.1500000   0.4000000   0.0000000), wk =   0.0150000
        k(  114) = (   0.1500000   0.4250000   0.0000000), wk =   0.0075000
        k(  115) = (   0.1750000   0.1750000   0.0000000), wk =   0.0075000
        k(  116) = (   0.1750000   0.2000000   0.0000000), wk =   0.0150000
        k(  117) = (   0.1750000   0.2250000   0.0000000), wk =   0.0150000
        k(  118) = (   0.1750000   0.2500000   0.0000000), wk =   0.0150000
        k(  119) = (   0.1750000   0.2750000   0.0000000), wk =   0.0150000
        k(  120) = (   0.1750000   0.3000000   0.0000000), wk =   0.0150000
        k(  121) = (   0.1750000   0.3250000   0.0000000), wk =   0.0150000
        k(  122) = (   0.1750000   0.3500000   0.0000000), wk =   0.0150000
        k(  123) = (   0.1750000   0.3750000   0.0000000), wk =   0.0150000
        k(  124) = (   0.1750000   0.4000000   0.0000000), wk =   0.0150000
        k(  125) = (   0.2000000   0.2000000   0.0000000), wk =   0.0075000
        k(  126) = (   0.2000000   0.2250000   0.0000000), wk =   0.0150000
        k(  127) = (   0.2000000   0.2500000   0.0000000), wk =   0.0150000
        k(  128) = (   0.2000000   0.2750000   0.0000000), wk =   0.0150000
        k(  129) = (   0.2000000   0.3000000   0.0000000), wk =   0.0150000
        k(  130) = (   0.2000000   0.3250000   0.0000000), wk =   0.0150000
        k(  131) = (   0.2000000   0.3500000   0.0000000), wk =   0.0150000
        k(  132) = (   0.2000000   0.3750000   0.0000000), wk =   0.0150000
        k(  133) = (   0.2000000   0.4000000   0.0000000), wk =   0.0075000
        k(  134) = (   0.2250000   0.2250000   0.0000000), wk =   0.0075000
        k(  135) = (   0.2250000   0.2500000   0.0000000), wk =   0.0150000
        k(  136) = (   0.2250000   0.2750000   0.0000000), wk =   0.0150000
        k(  137) = (   0.2250000   0.3000000   0.0000000), wk =   0.0150000
        k(  138) = (   0.2250000   0.3250000   0.0000000), wk =   0.0150000
        k(  139) = (   0.2250000   0.3500000   0.0000000), wk =   0.0150000
        k(  140) = (   0.2250000   0.3750000   0.0000000), wk =   0.0150000
        k(  141) = (   0.2500000   0.2500000   0.0000000), wk =   0.0075000
        k(  142) = (   0.2500000   0.2750000   0.0000000), wk =   0.0150000
        k(  143) = (   0.2500000   0.3000000   0.0000000), wk =   0.0150000
        k(  144) = (   0.2500000   0.3250000   0.0000000), wk =   0.0150000
        k(  145) = (   0.2500000   0.3500000   0.0000000), wk =   0.0150000
        k(  146) = (   0.2500000   0.3750000   0.0000000), wk =   0.0075000
        k(  147) = (   0.2750000   0.2750000   0.0000000), wk =   0.0075000
        k(  148) = (   0.2750000   0.3000000   0.0000000), wk =   0.0150000
        k(  149) = (   0.2750000   0.3250000   0.0000000), wk =   0.0150000
        k(  150) = (   0.2750000   0.3500000   0.0000000), wk =   0.0150000
        k(  151) = (   0.3000000   0.3000000   0.0000000), wk =   0.0075000
        k(  152) = (   0.3000000   0.3250000   0.0000000), wk =   0.0150000
        k(  153) = (   0.3000000   0.3500000   0.0000000), wk =   0.0075000
        k(  154) = (   0.3250000   0.3250000   0.0000000), wk =   0.0075000

     Dense  grid:    34803 G-vectors     FFT dimensions: (  24,  24, 144)

     Dynamical RAM for                 wfc:       0.07 MB

     Dynamical RAM for     wfc (w. buffer):       0.07 MB

     Dynamical RAM for           str. fact:       0.13 MB

     Dynamical RAM for           local pot:       0.00 MB

     Dynamical RAM for          nlocal pot:       0.13 MB

     Dynamical RAM for                qrad:       0.71 MB

     Dynamical RAM for          rho,v,vnew:       0.44 MB

     Dynamical RAM for           G-vectors:       0.28 MB

     Dynamical RAM for          h,s,v(r/c):       0.01 MB

     Dynamical RAM for          <psi|beta>:       0.00 MB

     Dynamical RAM for                 psi:       0.13 MB

     Dynamical RAM for                hpsi:       0.13 MB

     Dynamical RAM for      wfcinit/wfcrot:       0.13 MB

     Estimated static dynamical RAM per process >       2.36 MB

     Estimated max dynamical RAM per process >       2.64 MB

     Estimated total dynamical RAM >      21.10 MB

     The potential is recalculated from file :
     ./tmp40/hBN_1l_PBE_vdW.save/charge-density



     %%%%%%%%%%%%%%%%%%%%%%%%%%%%%%%%%%%%%%%%%%%%%%%%%%%%%%%%%%%%%%%%%%%%%%%%
     %                                                                      %
     % You are using vdW-DF, which was implemented by the Thonhauser group. %
     % Please cite the following two papers that made this development      %
     % possible and the two reviews that describe the various versions:     %
     %                                                                      %
     %   T. Thonhauser et al., PRL 115, 136402 (2015).                      %
     %   T. Thonhauser et al., PRB 76, 125112 (2007).                       %
     %   K. Berland et al., Rep. Prog. Phys. 78, 066501 (2015).             %
     %   D.C. Langreth et al., J. Phys.: Condens. Matter 21, 084203 (2009). %
     %                                                                      %
     % If you are calculating stress with vdW-DF, please also cite:         %
     %                                                                      %
     %   R. Sabatini et al., J. Phys.: Condens. Matter 24, 424209 (2012).   %
     %                                                                      %
     %%%%%%%%%%%%%%%%%%%%%%%%%%%%%%%%%%%%%%%%%%%%%%%%%%%%%%%%%%%%%%%%%%%%%%%%

     %%%%%%%%%%%%%%%%%%%%%%%%%%%%%%%%%%%%%%%%%%%%%%%%%%%%%%%%%%%%%%%%%%%%%%%%
     %                                                                      %
     %  vdW-DF NEWS:                                                        %
     %                                                                      %
     %  * vdW-DF3 is now available. DOI: 10.1021/acs.jctc.0c00471           %
     %    use with input_dft = 'vdW-DF3-opt1' or 'vdW-DF3-opt2'             %
     %                                                                      %
     %  * Unscreened and range-separated hybrid vdW-DF-cx functionals       %
     %    DOI: 10.1063/1.4986522 and 10.1088/1361-648X/ac2ad2               %
     %    use with input_dft = 'vdW-DF-cx0'    and 'vdW-DF-ahcx'            %
     %  * Unscreened and range-separated hybrid vdW-DF2-b86r functionals    %
     %    DOI: 10.1063/1.4986522 and DOI: 10.1103/PhysRevX.12.041003        %
     %    use with input_dft = 'vdW-DF2-br0' and 'vdW-DF2-ahbr'             %
     %                                                                      %
     %%%%%%%%%%%%%%%%%%%%%%%%%%%%%%%%%%%%%%%%%%%%%%%%%%%%%%%%%%%%%%%%%%%%%%%%


     Carrying out vdW-DF run using the following parameters:
     Nqs    =  20  Npoints =  1024  r_max =  100.000
     q_mesh =  0.00001000  0.04494208  0.09755937  0.15916263
               0.23128650  0.31572767  0.41458969  0.53033537
               0.66584808  0.82450364  1.01025438  1.22772762
               1.48234092  1.78043706  2.12944203  2.53805004
               3.01644009  3.57652955  4.23227104  5.00000000


     -----------------------------------------------
     Non-local corr. energy    =       0.10705985 Ry
     -----------------------------------------------

     Starting wfcs are    8 randomized atomic wfcs

     Band Structure Calculation
     Davidson diagonalization with overlap

     Computing kpt #:     1  of   154
     total cpu time spent up to now is        9.6 secs

     Computing kpt #:     2  of   154
     total cpu time spent up to now is        9.7 secs

     Computing kpt #:     3  of   154
     total cpu time spent up to now is        9.7 secs

     Computing kpt #:     4  of   154
     total cpu time spent up to now is        9.8 secs

     Computing kpt #:     5  of   154
     total cpu time spent up to now is        9.9 secs

     Computing kpt #:     6  of   154
     total cpu time spent up to now is        9.9 secs

     Computing kpt #:     7  of   154
     total cpu time spent up to now is       10.0 secs

     Computing kpt #:     8  of   154
     total cpu time spent up to now is       10.0 secs

     Computing kpt #:     9  of   154
     total cpu time spent up to now is       10.1 secs

     Computing kpt #:    10  of   154
     total cpu time spent up to now is       10.2 secs

     Computing kpt #:    11  of   154
     total cpu time spent up to now is       10.2 secs

     Computing kpt #:    12  of   154
     total cpu time spent up to now is       10.3 secs

     Computing kpt #:    13  of   154
     total cpu time spent up to now is       10.3 secs

     Computing kpt #:    14  of   154
     total cpu time spent up to now is       10.4 secs

     Computing kpt #:    15  of   154
     total cpu time spent up to now is       10.5 secs

     Computing kpt #:    16  of   154
     total cpu time spent up to now is       10.5 secs

     Computing kpt #:    17  of   154
     total cpu time spent up to now is       10.6 secs

     Computing kpt #:    18  of   154
     total cpu time spent up to now is       10.6 secs

     Computing kpt #:    19  of   154
     total cpu time spent up to now is       10.7 secs

     Computing kpt #:    20  of   154
     total cpu time spent up to now is       10.7 secs

     Computing kpt #:    21  of   154
     total cpu time spent up to now is       10.8 secs

     Computing kpt #:    22  of   154
     total cpu time spent up to now is       10.9 secs

     Computing kpt #:    23  of   154
     total cpu time spent up to now is       11.0 secs

     Computing kpt #:    24  of   154
     total cpu time spent up to now is       11.0 secs

     Computing kpt #:    25  of   154
     total cpu time spent up to now is       11.1 secs

     Computing kpt #:    26  of   154
     total cpu time spent up to now is       11.2 secs

     Computing kpt #:    27  of   154
     total cpu time spent up to now is       11.2 secs

     Computing kpt #:    28  of   154
     total cpu time spent up to now is       11.3 secs

     Computing kpt #:    29  of   154
     total cpu time spent up to now is       11.4 secs

     Computing kpt #:    30  of   154
     total cpu time spent up to now is       11.4 secs

     Computing kpt #:    31  of   154
     total cpu time spent up to now is       11.5 secs

     Computing kpt #:    32  of   154
     total cpu time spent up to now is       11.6 secs

     Computing kpt #:    33  of   154
     total cpu time spent up to now is       11.6 secs

     Computing kpt #:    34  of   154
     total cpu time spent up to now is       11.7 secs

     Computing kpt #:    35  of   154
     total cpu time spent up to now is       11.8 secs

     Computing kpt #:    36  of   154
     total cpu time spent up to now is       11.8 secs

     Computing kpt #:    37  of   154
     total cpu time spent up to now is       11.9 secs

     Computing kpt #:    38  of   154
     total cpu time spent up to now is       12.0 secs

     Computing kpt #:    39  of   154
     total cpu time spent up to now is       12.0 secs

     Computing kpt #:    40  of   154
     total cpu time spent up to now is       12.1 secs

     Computing kpt #:    41  of   154
     total cpu time spent up to now is       12.2 secs

     Computing kpt #:    42  of   154
     total cpu time spent up to now is       12.2 secs

     Computing kpt #:    43  of   154
     total cpu time spent up to now is       12.3 secs

     Computing kpt #:    44  of   154
     total cpu time spent up to now is       12.4 secs

     Computing kpt #:    45  of   154
     total cpu time spent up to now is       12.4 secs

     Computing kpt #:    46  of   154
     total cpu time spent up to now is       12.5 secs

     Computing kpt #:    47  of   154
     total cpu time spent up to now is       12.6 secs

     Computing kpt #:    48  of   154
     total cpu time spent up to now is       12.6 secs

     Computing kpt #:    49  of   154
     total cpu time spent up to now is       12.7 secs

     Computing kpt #:    50  of   154
     total cpu time spent up to now is       12.8 secs

     Computing kpt #:    51  of   154
     total cpu time spent up to now is       12.8 secs

     Computing kpt #:    52  of   154
     total cpu time spent up to now is       12.9 secs

     Computing kpt #:    53  of   154
     total cpu time spent up to now is       13.0 secs

     Computing kpt #:    54  of   154
     total cpu time spent up to now is       13.0 secs

     Computing kpt #:    55  of   154
     total cpu time spent up to now is       13.1 secs

     Computing kpt #:    56  of   154
     total cpu time spent up to now is       13.1 secs

     Computing kpt #:    57  of   154
     total cpu time spent up to now is       13.2 secs

     Computing kpt #:    58  of   154
     total cpu time spent up to now is       13.3 secs

     Computing kpt #:    59  of   154
     total cpu time spent up to now is       13.3 secs

     Computing kpt #:    60  of   154
     total cpu time spent up to now is       13.4 secs

     Computing kpt #:    61  of   154
     total cpu time spent up to now is       13.5 secs

     Computing kpt #:    62  of   154
     total cpu time spent up to now is       13.5 secs

     Computing kpt #:    63  of   154
     total cpu time spent up to now is       13.6 secs

     Computing kpt #:    64  of   154
     total cpu time spent up to now is       13.7 secs

     Computing kpt #:    65  of   154
     total cpu time spent up to now is       13.7 secs

     Computing kpt #:    66  of   154
     total cpu time spent up to now is       13.8 secs

     Computing kpt #:    67  of   154
     total cpu time spent up to now is       13.8 secs

     Computing kpt #:    68  of   154
     total cpu time spent up to now is       13.9 secs

     Computing kpt #:    69  of   154
     total cpu time spent up to now is       13.9 secs

     Computing kpt #:    70  of   154
     total cpu time spent up to now is       14.0 secs

     Computing kpt #:    71  of   154
     total cpu time spent up to now is       14.1 secs

     Computing kpt #:    72  of   154
     total cpu time spent up to now is       14.1 secs

     Computing kpt #:    73  of   154
     total cpu time spent up to now is       14.2 secs

     Computing kpt #:    74  of   154
     total cpu time spent up to now is       14.3 secs

     Computing kpt #:    75  of   154
     total cpu time spent up to now is       14.3 secs

     Computing kpt #:    76  of   154
     total cpu time spent up to now is       14.4 secs

     Computing kpt #:    77  of   154
     total cpu time spent up to now is       14.5 secs

     Computing kpt #:    78  of   154
     total cpu time spent up to now is       14.5 secs

     Computing kpt #:    79  of   154
     total cpu time spent up to now is       14.6 secs

     Computing kpt #:    80  of   154
     total cpu time spent up to now is       14.6 secs

     Computing kpt #:    81  of   154
     total cpu time spent up to now is       14.7 secs

     Computing kpt #:    82  of   154
     total cpu time spent up to now is       14.7 secs

     Computing kpt #:    83  of   154
     total cpu time spent up to now is       14.8 secs

     Computing kpt #:    84  of   154
     total cpu time spent up to now is       14.9 secs

     Computing kpt #:    85  of   154
     total cpu time spent up to now is       15.0 secs

     Computing kpt #:    86  of   154
     total cpu time spent up to now is       15.0 secs

     Computing kpt #:    87  of   154
     total cpu time spent up to now is       15.1 secs

     Computing kpt #:    88  of   154
     total cpu time spent up to now is       15.2 secs

     Computing kpt #:    89  of   154
     total cpu time spent up to now is       15.2 secs

     Computing kpt #:    90  of   154
     total cpu time spent up to now is       15.3 secs

     Computing kpt #:    91  of   154
     total cpu time spent up to now is       15.3 secs

     Computing kpt #:    92  of   154
     total cpu time spent up to now is       15.4 secs

     Computing kpt #:    93  of   154
     total cpu time spent up to now is       15.4 secs

     Computing kpt #:    94  of   154
     total cpu time spent up to now is       15.5 secs

     Computing kpt #:    95  of   154
     total cpu time spent up to now is       15.5 secs

     Computing kpt #:    96  of   154
     total cpu time spent up to now is       15.6 secs

     Computing kpt #:    97  of   154
     total cpu time spent up to now is       15.7 secs

     Computing kpt #:    98  of   154
     total cpu time spent up to now is       15.7 secs

     Computing kpt #:    99  of   154
     total cpu time spent up to now is       15.8 secs

     Computing kpt #:   100  of   154
     total cpu time spent up to now is       15.9 secs

     Computing kpt #:   101  of   154
     total cpu time spent up to now is       15.9 secs

     Computing kpt #:   102  of   154
     total cpu time spent up to now is       16.0 secs

     Computing kpt #:   103  of   154
     total cpu time spent up to now is       16.0 secs

     Computing kpt #:   104  of   154
     total cpu time spent up to now is       16.1 secs

     Computing kpt #:   105  of   154
     total cpu time spent up to now is       16.1 secs

     Computing kpt #:   106  of   154
     total cpu time spent up to now is       16.2 secs

     Computing kpt #:   107  of   154
     total cpu time spent up to now is       16.3 secs

     Computing kpt #:   108  of   154
     total cpu time spent up to now is       16.3 secs

     Computing kpt #:   109  of   154
     total cpu time spent up to now is       16.4 secs

     Computing kpt #:   110  of   154
     total cpu time spent up to now is       16.5 secs

     Computing kpt #:   111  of   154
     total cpu time spent up to now is       16.5 secs

     Computing kpt #:   112  of   154
     total cpu time spent up to now is       16.6 secs

     Computing kpt #:   113  of   154
     total cpu time spent up to now is       16.6 secs

     Computing kpt #:   114  of   154
     total cpu time spent up to now is       16.7 secs

     Computing kpt #:   115  of   154
     total cpu time spent up to now is       16.8 secs

     Computing kpt #:   116  of   154
     total cpu time spent up to now is       16.8 secs

     Computing kpt #:   117  of   154
     total cpu time spent up to now is       16.9 secs

     Computing kpt #:   118  of   154
     total cpu time spent up to now is       16.9 secs

     Computing kpt #:   119  of   154
     total cpu time spent up to now is       17.0 secs

     Computing kpt #:   120  of   154
     total cpu time spent up to now is       17.1 secs

     Computing kpt #:   121  of   154
     total cpu time spent up to now is       17.2 secs

     Computing kpt #:   122  of   154
     total cpu time spent up to now is       17.2 secs

     Computing kpt #:   123  of   154
     total cpu time spent up to now is       17.3 secs

     Computing kpt #:   124  of   154
     total cpu time spent up to now is       17.4 secs

     Computing kpt #:   125  of   154
     total cpu time spent up to now is       17.4 secs

     Computing kpt #:   126  of   154
     total cpu time spent up to now is       17.5 secs

     Computing kpt #:   127  of   154
     total cpu time spent up to now is       17.5 secs

     Computing kpt #:   128  of   154
     total cpu time spent up to now is       17.6 secs

     Computing kpt #:   129  of   154
     total cpu time spent up to now is       17.7 secs

     Computing kpt #:   130  of   154
     total cpu time spent up to now is       17.8 secs

     Computing kpt #:   131  of   154
     total cpu time spent up to now is       17.9 secs

     Computing kpt #:   132  of   154
     total cpu time spent up to now is       17.9 secs

     Computing kpt #:   133  of   154
     total cpu time spent up to now is       18.0 secs

     Computing kpt #:   134  of   154
     total cpu time spent up to now is       18.1 secs

     Computing kpt #:   135  of   154
     total cpu time spent up to now is       18.1 secs

     Computing kpt #:   136  of   154
     total cpu time spent up to now is       18.2 secs

     Computing kpt #:   137  of   154
     total cpu time spent up to now is       18.3 secs

     Computing kpt #:   138  of   154
     total cpu time spent up to now is       18.4 secs

     Computing kpt #:   139  of   154
     total cpu time spent up to now is       18.4 secs

     Computing kpt #:   140  of   154
     total cpu time spent up to now is       18.5 secs

     Computing kpt #:   141  of   154
     total cpu time spent up to now is       18.6 secs

     Computing kpt #:   142  of   154
     total cpu time spent up to now is       18.6 secs

     Computing kpt #:   143  of   154
     total cpu time spent up to now is       18.7 secs

     Computing kpt #:   144  of   154
     total cpu time spent up to now is       18.8 secs

     Computing kpt #:   145  of   154
     total cpu time spent up to now is       18.8 secs

     Computing kpt #:   146  of   154
     total cpu time spent up to now is       18.9 secs

     Computing kpt #:   147  of   154
     total cpu time spent up to now is       19.0 secs

     Computing kpt #:   148  of   154
     total cpu time spent up to now is       19.1 secs

     Computing kpt #:   149  of   154
     total cpu time spent up to now is       19.1 secs

     Computing kpt #:   150  of   154
     total cpu time spent up to now is       19.2 secs

     Computing kpt #:   151  of   154
     total cpu time spent up to now is       19.3 secs

     Computing kpt #:   152  of   154
     total cpu time spent up to now is       19.3 secs

     Computing kpt #:   153  of   154
     total cpu time spent up to now is       19.4 secs

     Computing kpt #:   154  of   154
     total cpu time spent up to now is       19.5 secs

     ethr =  5.00E-06,  avg # of iterations = 23.1

     total cpu time spent up to now is       19.5 secs

     End of band structure calculation

          k = 0.0000 0.0000 0.0000 (  4301 PWs)   bands (ev):

   -21.2170  -8.8406  -5.0155  -5.0155   0.7508   1.8471   2.5827   4.2890

     occupation numbers 
     1.0000   1.0000   1.0000   1.0000   0.0000   0.0000   0.0000   0.0000

          k = 0.0000 0.0289 0.0000 (  4337 PWs)   bands (ev):

   -21.2052  -8.8250  -5.0685  -5.0404   0.7717   1.8656   2.6027   4.3068

     occupation numbers 
     1.0000   1.0000   1.0000   1.0000   0.0000   0.0000   0.0000   0.0000

          k = 0.0000 0.0577 0.0000 (  4335 PWs)   bands (ev):

   -21.1694  -8.7767  -5.2214  -5.1109   0.8341   1.9214   2.6628   4.3605

     occupation numbers 
     1.0000   1.0000   1.0000   1.0000   0.0000   0.0000   0.0000   0.0000

          k = 0.0000 0.0866 0.0000 (  4346 PWs)   bands (ev):

   -21.1100  -8.6965  -5.4672  -5.2248   0.9368   2.0140   2.7627   4.4493

     occupation numbers 
     1.0000   1.0000   1.0000   1.0000   0.0000   0.0000   0.0000   0.0000

          k = 0.0000 0.1155 0.0000 (  4324 PWs)   bands (ev):

   -21.0270  -8.5843  -5.7936  -5.3738   1.0787   2.1431   2.9023   4.5721

     occupation numbers 
     1.0000   1.0000   1.0000   1.0000   0.0000   0.0000   0.0000   0.0000

          k = 0.0000 0.1443 0.0000 (  4326 PWs)   bands (ev):

   -20.9212  -8.4408  -6.1888  -5.5520   1.2586   2.3078   3.0810   4.7265

     occupation numbers 
     1.0000   1.0000   1.0000   1.0000   0.0000   0.0000   0.0000   0.0000

          k = 0.0000 0.1732 0.0000 (  4322 PWs)   bands (ev):

   -20.7930  -8.2669  -6.6376  -5.7507   1.4755   2.5067   3.2989   4.9078

     occupation numbers 
     1.0000   1.0000   1.0000   1.0000   0.0000   0.0000   0.0000   0.0000

          k = 0.0000 0.2021 0.0000 (  4330 PWs)   bands (ev):

   -20.6433  -8.0632  -7.1272  -5.9629   1.7286   2.7373   3.5555   5.1065

     occupation numbers 
     1.0000   1.0000   1.0000   1.0000   0.0000   0.0000   0.0000   0.0000

          k = 0.0000 0.2309 0.0000 (  4324 PWs)   bands (ev):

   -20.4730  -7.8310  -7.6451  -6.1813   2.0176   2.9950   3.8506   5.3008

     occupation numbers 
     1.0000   1.0000   1.0000   1.0000   0.0000   0.0000   0.0000   0.0000

          k = 0.0000 0.2598 0.0000 (  4336 PWs)   bands (ev):

   -20.2835  -8.1814  -7.5717  -6.4000   2.3416   3.2694   4.1839   5.4385

     occupation numbers 
     1.0000   1.0000   1.0000   1.0000   0.0000   0.0000   0.0000   0.0000

          k = 0.0000 0.2887 0.0000 (  4354 PWs)   bands (ev):

   -20.0767  -8.7255  -7.2875  -6.6136   2.6998   3.5363   4.5548   5.4428

     occupation numbers 
     1.0000   1.0000   1.0000   1.0000   0.0000   0.0000   0.0000   0.0000

          k = 0.0000 0.3175 0.0000 (  4352 PWs)   bands (ev):

   -19.8547  -9.2683  -6.9805  -6.8171   3.0912   3.7323   4.9620   5.3423

     occupation numbers 
     1.0000   1.0000   1.0000   1.0000   0.0000   0.0000   0.0000   0.0000

          k = 0.0000 0.3464 0.0000 (  4362 PWs)   bands (ev):

   -19.6206  -9.8020  -7.0072  -6.6548   3.5133   3.7311   5.3402   5.4029

     occupation numbers 
     1.0000   1.0000   1.0000   1.0000   0.0000   0.0000   0.0000   0.0000

          k = 0.0000 0.3753 0.0000 (  4370 PWs)   bands (ev):

   -19.3786 -10.3173  -7.1810  -6.3149   3.4777   3.9625   5.5669   5.8701

     occupation numbers 
     1.0000   1.0000   1.0000   1.0000   0.0000   0.0000   0.0000   0.0000

          k = 0.0000 0.4041 0.0000 (  4386 PWs)   bands (ev):

   -19.1342 -10.8056  -7.3360  -5.9674   3.0763   4.4314   5.9586   6.3358

     occupation numbers 
     1.0000   1.0000   1.0000   1.0000   0.0000   0.0000   0.0000   0.0000

          k = 0.0000 0.4330 0.0000 (  4392 PWs)   bands (ev):

   -18.8945 -11.2555  -7.4704  -5.6216   2.6264   4.9056   6.4430   6.7016

     occupation numbers 
     1.0000   1.0000   1.0000   1.0000   0.0000   0.0000   0.0000   0.0000

          k = 0.0000 0.4619 0.0000 (  4398 PWs)   bands (ev):

   -18.6692 -11.6559  -7.5822  -5.2899   2.1834   5.3540   6.9243   6.9870

     occupation numbers 
     1.0000   1.0000   1.0000   1.0000   0.0000   0.0000   0.0000   0.0000

          k = 0.0000 0.4907 0.0000 (  4388 PWs)   bands (ev):

   -18.4702 -11.9927  -7.6703  -4.9901   1.7852   5.7219   7.1778   7.5748

     occupation numbers 
     1.0000   1.0000   1.0000   1.0000   0.0000   0.0000   0.0000   0.0000

          k = 0.0000 0.5196 0.0000 (  4380 PWs)   bands (ev):

   -18.3121 -12.2501  -7.7337  -4.7462   1.4652   5.9582   7.5680   8.1937

     occupation numbers 
     1.0000   1.0000   1.0000   1.0000   0.0000   0.0000   0.0000   0.0000

          k = 0.0000 0.5485 0.0000 (  4368 PWs)   bands (ev):

   -18.2094 -12.4125  -7.7718  -4.5844   1.2555   6.0733   8.0837   8.8174

     occupation numbers 
     1.0000   1.0000   1.0000   1.0000   0.0000   0.0000   0.0000   0.0000

          k = 0.0000-0.5774 0.0000 (  4348 PWs)   bands (ev):

   -18.1736 -12.4679  -7.7843  -4.5273   1.1823   6.1063   8.5123   8.9998

     occupation numbers 
     1.0000   1.0000   1.0000   1.0000   0.0000   0.0000   0.0000   0.0000

          k = 0.0250 0.0433 0.0000 (  4343 PWs)   bands (ev):

   -21.1814  -8.7930  -5.1702  -5.0887   0.8133   1.9028   2.6428   4.3426

     occupation numbers 
     1.0000   1.0000   1.0000   1.0000   0.0000   0.0000   0.0000   0.0000

          k = 0.0250 0.0722 0.0000 (  4339 PWs)   bands (ev):

   -21.1337  -8.7286  -5.3675  -5.1827   0.8959   1.9770   2.7228   4.4139

     occupation numbers 
     1.0000   1.0000   1.0000   1.0000   0.0000   0.0000   0.0000   0.0000

          k = 0.0250 0.1010 0.0000 (  4332 PWs)   bands (ev):

   -21.0625  -8.6323  -5.6510  -5.3165   1.0182   2.0878   2.8426   4.5198

     occupation numbers 
     1.0000   1.0000   1.0000   1.0000   0.0000   0.0000   0.0000   0.0000

          k = 0.0250 0.1299 0.0000 (  4327 PWs)   bands (ev):

   -20.9681  -8.5045  -6.0090  -5.4830   1.1791   2.2348   3.0017   4.6586

     occupation numbers 
     1.0000   1.0000   1.0000   1.0000   0.0000   0.0000   0.0000   0.0000

          k = 0.0250 0.1588 0.0000 (  4318 PWs)   bands (ev):

   -20.8511  -8.3458  -6.4279  -5.6745   1.3776   2.4167   3.2001   4.8266

     occupation numbers 
     1.0000   1.0000   1.0000   1.0000   0.0000   0.0000   0.0000   0.0000

          k = 0.0250 0.1876 0.0000 (  4329 PWs)   bands (ev):

   -20.7122  -8.1571  -6.8944  -5.8829   1.6127   2.6316   3.4373   5.0175

     occupation numbers 
     1.0000   1.0000   1.0000   1.0000   0.0000   0.0000   0.0000   0.0000

          k = 0.0250 0.2165 0.0000 (  4332 PWs)   bands (ev):

   -20.5521  -7.9391  -7.3956  -6.1008   1.8839   2.8762   3.7133   5.2168

     occupation numbers 
     1.0000   1.0000   1.0000   1.0000   0.0000   0.0000   0.0000   0.0000

          k = 0.0250 0.2454 0.0000 (  4336 PWs)   bands (ev):

   -20.3721  -7.9206  -7.6933  -6.3214   2.1906   3.1434   4.0276   5.3887

     occupation numbers 
     1.0000   1.0000   1.0000   1.0000   0.0000   0.0000   0.0000   0.0000

          k = 0.0250 0.2742 0.0000 (  4341 PWs)   bands (ev):

   -20.1738  -8.4587  -7.4214  -6.5393   2.5321   3.4176   4.3800   5.4630

     occupation numbers 
     1.0000   1.0000   1.0000   1.0000   0.0000   0.0000   0.0000   0.0000

          k = 0.0250 0.3031 0.0000 (  4346 PWs)   bands (ev):

   -19.9593  -9.0008  -7.1255  -6.7494   2.9074   3.6586   4.7694   5.3953

     occupation numbers 
     1.0000   1.0000   1.0000   1.0000   0.0000   0.0000   0.0000   0.0000

          k = 0.0250 0.3320 0.0000 (  4359 PWs)   bands (ev):

   -19.7310  -9.5381  -6.9477  -6.8089   3.3149   3.7682   5.1944   5.3182

     occupation numbers 
     1.0000   1.0000   1.0000   1.0000   0.0000   0.0000   0.0000   0.0000

          k = 0.0250 0.3608 0.0000 (  4365 PWs)   bands (ev):

   -19.4926 -10.0619  -7.1307  -6.4756   3.6301   3.7519   5.4353   5.6508

     occupation numbers 
     1.0000   1.0000   1.0000   1.0000   0.0000   0.0000   0.0000   0.0000

          k = 0.0250 0.3897 0.0000 (  4382 PWs)   bands (ev):

   -19.2489 -10.5633  -7.2961  -6.1312   3.2852   4.2133   5.7591   6.1258

     occupation numbers 
     1.0000   1.0000   1.0000   1.0000   0.0000   0.0000   0.0000   0.0000

          k = 0.0250 0.4186 0.0000 (  4386 PWs)   bands (ev):

   -19.0060 -11.0322  -7.4413  -5.7834   2.8514   4.6894   6.2041   6.5680

     occupation numbers 
     1.0000   1.0000   1.0000   1.0000   0.0000   0.0000   0.0000   0.0000

          k = 0.0250 0.4474 0.0000 (  4388 PWs)   bands (ev):

   -18.7724 -11.4580  -7.5646  -5.4431   2.4008   5.1597   6.7210   6.8583

     occupation numbers 
     1.0000   1.0000   1.0000   1.0000   0.0000   0.0000   0.0000   0.0000

          k = 0.0250 0.4763 0.0000 (  4380 PWs)   bands (ev):

   -18.5588 -11.8275  -7.6648  -5.1248   1.9770   5.5825   7.0732   7.2881

     occupation numbers 
     1.0000   1.0000   1.0000   1.0000   0.0000   0.0000   0.0000   0.0000

          k = 0.0250 0.5052 0.0000 (  4378 PWs)   bands (ev):

   -18.3788 -12.1259  -7.7409  -4.8505   1.6146   5.8966   7.3816   7.8926

     occupation numbers 
     1.0000   1.0000   1.0000   1.0000   0.0000   0.0000   0.0000   0.0000

          k = 0.0250 0.5340 0.0000 (  4376 PWs)   bands (ev):

   -18.2469 -12.3373  -7.7919  -4.6446   1.3467   6.0742   7.8348   8.5184

     occupation numbers 
     1.0000   1.0000   1.0000   1.0000   0.0000   0.0000   0.0000   0.0000

          k = 0.0250 0.5629 0.0000 (  4366 PWs)   bands (ev):

   -18.1767 -12.4470  -7.8176  -4.5330   1.2031   6.1471   8.3678   9.1013

     occupation numbers 
     1.0000   1.0000   1.0000   1.0000   0.0000   0.0000   0.0000   0.0000

          k = 0.0500 0.0866 0.0000 (  4331 PWs)   bands (ev):

   -21.0744  -8.6483  -5.5992  -5.3005   0.9980   2.0694   2.8226   4.5022

     occupation numbers 
     1.0000   1.0000   1.0000   1.0000   0.0000   0.0000   0.0000   0.0000

          k = 0.0500 0.1155 0.0000 (  4333 PWs)   bands (ev):

   -20.9917  -8.5364  -5.9087  -5.4575   1.1394   2.1981   2.9621   4.6241

     occupation numbers 
     1.0000   1.0000   1.0000   1.0000   0.0000   0.0000   0.0000   0.0000

          k = 0.0500 0.1443 0.0000 (  4326 PWs)   bands (ev):

   -20.8861  -8.3933  -6.2843  -5.6438   1.3189   2.3623   3.1409   4.7768

     occupation numbers 
     1.0000   1.0000   1.0000   1.0000   0.0000   0.0000   0.0000   0.0000

          k = 0.0500 0.1732 0.0000 (  4332 PWs)   bands (ev):

   -20.7583  -8.2198  -6.7144  -5.8514   1.5357   2.5605   3.3587   4.9557

     occupation numbers 
     1.0000   1.0000   1.0000   1.0000   0.0000   0.0000   0.0000   0.0000

          k = 0.0500 0.2021 0.0000 (  4337 PWs)   bands (ev):

   -20.6089  -8.0167  -7.1866  -6.0716   1.7891   2.7899   3.6155   5.1498

     occupation numbers 
     1.0000   1.0000   1.0000   1.0000   0.0000   0.0000   0.0000   0.0000

          k = 0.0500 0.2309 0.0000 (  4337 PWs)   bands (ev):

   -20.4391  -7.7849  -7.6893  -6.2966   2.0785   3.0457   3.9108   5.3351

     occupation numbers 
     1.0000   1.0000   1.0000   1.0000   0.0000   0.0000   0.0000   0.0000

          k = 0.0500 0.2598 0.0000 (  4341 PWs)   bands (ev):

   -20.2502  -8.2119  -7.5263  -6.5213   2.4032   3.3167   4.2445   5.4566

     occupation numbers 
     1.0000   1.0000   1.0000   1.0000   0.0000   0.0000   0.0000   0.0000

          k = 0.0500 0.2887 0.0000 (  4335 PWs)   bands (ev):

   -20.0439  -8.7443  -7.2425  -6.7393   2.7625   3.5766   4.6161   5.4436

     occupation numbers 
     1.0000   1.0000   1.0000   1.0000   0.0000   0.0000   0.0000   0.0000

          k = 0.0500 0.3175 0.0000 (  4345 PWs)   bands (ev):

   -19.8226  -9.2779  -6.9471  -6.9365   3.1552   3.7572   5.0243   5.3455

     occupation numbers 
     1.0000   1.0000   1.0000   1.0000   0.0000   0.0000   0.0000   0.0000

          k = 0.0500 0.3464 0.0000 (  4357 PWs)   bands (ev):

   -19.5895  -9.8033  -7.1409  -6.6117   3.5794   3.7341   5.3651   5.4673

     occupation numbers 
     1.0000   1.0000   1.0000   1.0000   0.0000   0.0000   0.0000   0.0000

          k = 0.0500 0.3753 0.0000 (  4369 PWs)   bands (ev):

   -19.3484 -10.3117  -7.3173  -6.2728   3.4681   4.0318   5.6082   5.9395

     occupation numbers 
     1.0000   1.0000   1.0000   1.0000   0.0000   0.0000   0.0000   0.0000

          k = 0.0500 0.4041 0.0000 (  4382 PWs)   bands (ev):

   -19.1050 -10.7939  -7.4745  -5.9265   3.0660   4.5063   6.0062   6.4206

     occupation numbers 
     1.0000   1.0000   1.0000   1.0000   0.0000   0.0000   0.0000   0.0000

          k = 0.0500 0.4330 0.0000 (  4390 PWs)   bands (ev):

   -18.8665 -11.2390  -7.6102  -5.5818   2.6201   4.9902   6.4921   6.8312

     occupation numbers 
     1.0000   1.0000   1.0000   1.0000   0.0000   0.0000   0.0000   0.0000

          k = 0.0500 0.4619 0.0000 (  4376 PWs)   bands (ev):

   -18.6422 -11.6350  -7.7230  -5.2509   2.1820   5.4574   7.0356   7.0752

     occupation numbers 
     1.0000   1.0000   1.0000   1.0000   0.0000   0.0000   0.0000   0.0000

          k = 0.0500 0.4907 0.0000 (  4380 PWs)   bands (ev):

   -18.4446 -11.9686  -7.8119  -4.9528   1.7880   5.8562   7.3068   7.6210

     occupation numbers 
     1.0000   1.0000   1.0000   1.0000   0.0000   0.0000   0.0000   0.0000

          k = 0.0500 0.5196 0.0000 (  4376 PWs)   bands (ev):

   -18.2875 -12.2235  -7.8759  -4.7102   1.4714   6.1263   7.6637   8.2359

     occupation numbers 
     1.0000   1.0000   1.0000   1.0000   0.0000   0.0000   0.0000   0.0000

          k = 0.0500 0.5485 0.0000 (  4364 PWs)   bands (ev):

   -18.1855 -12.3843  -7.9145  -4.5492   1.2641   6.2615   8.1544   8.8513

     occupation numbers 
     1.0000   1.0000   1.0000   1.0000   0.0000   0.0000   0.0000   0.0000

          k = 0.0500 0.5774 0.0000 (  4366 PWs)   bands (ev):

   -18.1501 -12.4393  -7.9277  -4.4924   1.1915   6.3003   8.5635   9.0743

     occupation numbers 
     1.0000   1.0000   1.0000   1.0000   0.0000   0.0000   0.0000   0.0000

          k = 0.0750 0.1299 0.0000 (  4330 PWs)   bands (ev):

   -20.8978  -8.4092  -6.2319  -5.6377   1.2994   2.3442   3.1211   4.7602

     occupation numbers 
     1.0000   1.0000   1.0000   1.0000   0.0000   0.0000   0.0000   0.0000

          k = 0.0750 0.1588 0.0000 (  4336 PWs)   bands (ev):

   -20.7814  -8.2512  -6.6125  -5.8469   1.4974   2.5248   3.3194   4.9241

     occupation numbers 
     1.0000   1.0000   1.0000   1.0000   0.0000   0.0000   0.0000   0.0000

          k = 0.0750 0.1876 0.0000 (  4336 PWs)   bands (ev):

   -20.6432  -8.0633  -7.0408  -6.0732   1.7326   2.7377   3.5569   5.1078

     occupation numbers 
     1.0000   1.0000   1.0000   1.0000   0.0000   0.0000   0.0000   0.0000

          k = 0.0750 0.2165 0.0000 (  4344 PWs)   bands (ev):

   -20.4840  -7.8465  -7.5076  -6.3081   2.0043   2.9791   3.8332   5.2930

     occupation numbers 
     1.0000   1.0000   1.0000   1.0000   0.0000   0.0000   0.0000   0.0000

          k = 0.0750 0.2454 0.0000 (  4347 PWs)   bands (ev):

   -20.3051  -8.0018  -7.6018  -6.5436   2.3121   3.2409   4.1481   5.4384

     occupation numbers 
     1.0000   1.0000   1.0000   1.0000   0.0000   0.0000   0.0000   0.0000

          k = 0.0750 0.2742 0.0000 (  4344 PWs)   bands (ev):

   -20.1080  -8.5134  -7.3311  -6.7737   2.6551   3.5044   4.5013   5.4738

     occupation numbers 
     1.0000   1.0000   1.0000   1.0000   0.0000   0.0000   0.0000   0.0000

          k = 0.0750 0.3031 0.0000 (  4345 PWs)   bands (ev):

   -19.8947  -9.0332  -7.0367  -6.9941   3.0325   3.7225   4.8921   5.3908

     occupation numbers 
     1.0000   1.0000   1.0000   1.0000   0.0000   0.0000   0.0000   0.0000

          k = 0.0750 0.3320 0.0000 (  4359 PWs)   bands (ev):

   -19.6681  -9.5517  -7.2010  -6.7219   3.4431   3.7905   5.3195   5.3464

     occupation numbers 
     1.0000   1.0000   1.0000   1.0000   0.0000   0.0000   0.0000   0.0000

          k = 0.0750 0.3608 0.0000 (  4375 PWs)   bands (ev):

   -19.4316 -10.0596  -7.3909  -6.3907   3.6152   3.8846   5.5060   5.7809

     occupation numbers 
     1.0000   1.0000   1.0000   1.0000   0.0000   0.0000   0.0000   0.0000

          k = 0.0750 0.3897 0.0000 (  4377 PWs)   bands (ev):

   -19.1898 -10.5473  -7.5613  -6.0484   3.2609   4.3534   5.8502   6.2693

     occupation numbers 
     1.0000   1.0000   1.0000   1.0000   0.0000   0.0000   0.0000   0.0000

          k = 0.0750 0.4186 0.0000 (  4378 PWs)   bands (ev):

   -18.9492 -11.0050  -7.7104  -5.7029   2.8319   4.8420   6.3014   6.7577

     occupation numbers 
     1.0000   1.0000   1.0000   1.0000   0.0000   0.0000   0.0000   0.0000

          k = 0.0750 0.4474 0.0000 (  4374 PWs)   bands (ev):

   -18.7179 -11.4212  -7.8369  -5.3649   2.3906   5.3359   6.8186   7.1407

     occupation numbers 
     1.0000   1.0000   1.0000   1.0000   0.0000   0.0000   0.0000   0.0000

          k = 0.0750 0.4763 0.0000 (  4368 PWs)   bands (ev):

   -18.5068 -11.7829  -7.9392  -5.0496   1.9764   5.8029   7.3619   7.3823

     occupation numbers 
     1.0000   1.0000   1.0000   1.0000   0.0000   0.0000   0.0000   0.0000

          k = 0.0750 0.5052 0.0000 (  4376 PWs)   bands (ev):

   -18.3291 -12.0753  -8.0170  -4.7778   1.6221   6.1833   7.6127   7.9798

     occupation numbers 
     1.0000   1.0000   1.0000   1.0000   0.0000   0.0000   0.0000   0.0000

          k = 0.0750 0.5340 0.0000 (  4364 PWs)   bands (ev):

   -18.1990 -12.2822  -8.0688  -4.5739   1.3602   6.4197   8.0030   8.5930

     occupation numbers 
     1.0000   1.0000   1.0000   1.0000   0.0000   0.0000   0.0000   0.0000

          k = 0.0750 0.5629 0.0000 (  4357 PWs)   bands (ev):

   -18.1299 -12.3897  -8.0950  -4.4634   1.2198   6.5202   8.4892   9.1497

     occupation numbers 
     1.0000   1.0000   1.0000   1.0000   0.0000   0.0000   0.0000   0.0000

          k = 0.1000 0.1732 0.0000 (  4342 PWs)   bands (ev):

   -20.6546  -8.0790  -6.9873  -6.0789   1.7138   2.7202   3.5374   5.0934

     occupation numbers 
     1.0000   1.0000   1.0000   1.0000   0.0000   0.0000   0.0000   0.0000

          k = 0.1000 0.2021 0.0000 (  4344 PWs)   bands (ev):

   -20.5065  -7.8772  -7.4034  -6.3271   1.9675   2.9455   3.7944   5.2701

     occupation numbers 
     1.0000   1.0000   1.0000   1.0000   0.0000   0.0000   0.0000   0.0000

          k = 0.1000 0.2309 0.0000 (  4348 PWs)   bands (ev):

   -20.3381  -7.8538  -7.6472  -6.5799   2.2578   3.1942   4.0903   5.4217

     occupation numbers 
     1.0000   1.0000   1.0000   1.0000   0.0000   0.0000   0.0000   0.0000

          k = 0.1000 0.2598 0.0000 (  4355 PWs)   bands (ev):

   -20.1510  -8.3297  -7.3905  -6.8289   2.5841   3.4522   4.4249   5.4875

     occupation numbers 
     1.0000   1.0000   1.0000   1.0000   0.0000   0.0000   0.0000   0.0000

          k = 0.1000 0.2887 0.0000 (  4351 PWs)   bands (ev):

   -19.9467  -8.8221  -7.1088  -7.0679   2.9457   3.6854   4.7976   5.4316

     occupation numbers 
     1.0000   1.0000   1.0000   1.0000   0.0000   0.0000   0.0000   0.0000

          k = 0.1000 0.3175 0.0000 (  4361 PWs)   bands (ev):

   -19.7278  -9.3217  -7.2926  -6.8055   3.3416   3.8119   5.2081   5.3587

     occupation numbers 
     1.0000   1.0000   1.0000   1.0000   0.0000   0.0000   0.0000   0.0000

          k = 0.1000 0.3464 0.0000 (  4367 PWs)   bands (ev):

   -19.4972  -9.8185  -7.5000  -6.4834   3.7223   3.7704   5.4476   5.6549

     occupation numbers 
     1.0000   1.0000   1.0000   1.0000   0.0000   0.0000   0.0000   0.0000

          k = 0.1000 0.3753 0.0000 (  4381 PWs)   bands (ev):

   -19.2592 -10.3031  -7.6874  -6.1478   3.4260   4.2298   5.7353   6.1354

     occupation numbers 
     1.0000   1.0000   1.0000   1.0000   0.0000   0.0000   0.0000   0.0000

          k = 0.1000 0.4041 0.0000 (  4377 PWs)   bands (ev):

   -19.0190 -10.7648  -7.8528  -5.8049   3.0256   4.7157   6.1493   6.6414

     occupation numbers 
     1.0000   1.0000   1.0000   1.0000   0.0000   0.0000   0.0000   0.0000

          k = 0.1000 0.4330 0.0000 (  4371 PWs)   bands (ev):

   -18.7840 -11.1931  -7.9947  -5.4639   2.5921   5.2200   6.6384   7.1400

     occupation numbers 
     1.0000   1.0000   1.0000   1.0000   0.0000   0.0000   0.0000   0.0000

          k = 0.1000 0.4619 0.0000 (  4372 PWs)   bands (ev):

   -18.5636 -11.5757  -8.1123  -5.1374   2.1691   5.7260   7.1784   7.5039

     occupation numbers 
     1.0000   1.0000   1.0000   1.0000   0.0000   0.0000   0.0000   0.0000

          k = 0.1000 0.4907 0.0000 (  4376 PWs)   bands (ev):

   -18.3697 -11.8980  -8.2046  -4.8437   1.7891   6.1968   7.7125   7.7551

     occupation numbers 
     1.0000   1.0000   1.0000   1.0000   0.0000   0.0000   0.0000   0.0000

          k = 0.1000 0.5196 0.0000 (  4360 PWs)   bands (ev):

   -18.2158 -12.1444  -8.2707  -4.6045   1.4837   6.5650   7.9752   8.3536

     occupation numbers 
     1.0000   1.0000   1.0000   1.0000   0.0000   0.0000   0.0000   0.0000

          k = 0.1000 0.5485 0.0000 (  4360 PWs)   bands (ev):

   -18.1162 -12.3000  -8.3108  -4.4461   1.2835   6.7731   8.3764   8.9375

     occupation numbers 
     1.0000   1.0000   1.0000   1.0000   0.0000   0.0000   0.0000   0.0000

          k = 0.1000 0.5774 0.0000 (  4360 PWs)   bands (ev):

   -18.0815 -12.3533  -8.3244  -4.3902   1.2134   6.8350   8.7181   9.3056

     occupation numbers 
     1.0000   1.0000   1.0000   1.0000   0.0000   0.0000   0.0000   0.0000

          k = 0.1250 0.2165 0.0000 (  4342 PWs)   bands (ev):

   -20.3492  -7.7989  -7.6623  -6.5971   2.2398   3.1785   4.0711   5.4155

     occupation numbers 
     1.0000   1.0000   1.0000   1.0000   0.0000   0.0000   0.0000   0.0000

          k = 0.1250 0.2454 0.0000 (  4348 PWs)   bands (ev):

   -20.1725  -8.2237  -7.4201  -6.8709   2.5488   3.4251   4.3867   5.4919

     occupation numbers 
     1.0000   1.0000   1.0000   1.0000   0.0000   0.0000   0.0000   0.0000

          k = 0.1250 0.2742 0.0000 (  4359 PWs)   bands (ev):

   -19.9781  -8.6723  -7.1524  -7.1372   2.8939   3.6586   4.7410   5.4576

     occupation numbers 
     1.0000   1.0000   1.0000   1.0000   0.0000   0.0000   0.0000   0.0000

          k = 0.1250 0.3031 0.0000 (  4359 PWs)   bands (ev):

   -19.7678  -9.1365  -7.3887  -6.8615   3.2742   3.8153   5.1335   5.3804

     occupation numbers 
     1.0000   1.0000   1.0000   1.0000   0.0000   0.0000   0.0000   0.0000

          k = 0.1250 0.3320 0.0000 (  4366 PWs)   bands (ev):

   -19.5446  -9.6078  -7.6212  -6.5503   3.6889   3.7904   5.4218   5.5637

     occupation numbers 
     1.0000   1.0000   1.0000   1.0000   0.0000   0.0000   0.0000   0.0000

          k = 0.1250 0.3608 0.0000 (  4363 PWs)   bands (ev):

   -19.3119 -10.0762  -7.8313  -6.2232   3.5544   4.1363   5.6584   6.0302

     occupation numbers 
     1.0000   1.0000   1.0000   1.0000   0.0000   0.0000   0.0000   0.0000

          k = 0.1250 0.3897 0.0000 (  4371 PWs)   bands (ev):

   -19.0746 -10.5312  -8.0182  -5.8858   3.1901   4.6139   6.0352   6.5303

     occupation numbers 
     1.0000   1.0000   1.0000   1.0000   0.0000   0.0000   0.0000   0.0000

          k = 0.1250 0.4186 0.0000 (  4363 PWs)   bands (ev):

   -18.8387 -10.9614  -8.1798  -5.5454   2.7749   5.1175   6.4953   7.0553

     occupation numbers 
     1.0000   1.0000   1.0000   1.0000   0.0000   0.0000   0.0000   0.0000

          k = 0.1250 0.4474 0.0000 (  4367 PWs)   bands (ev):

   -18.6128 -11.3552  -8.3156  -5.2133   2.3543   5.6382   7.0103   7.5673

     occupation numbers 
     1.0000   1.0000   1.0000   1.0000   0.0000   0.0000   0.0000   0.0000

          k = 0.1250 0.4763 0.0000 (  4364 PWs)   bands (ev):

   -18.4070 -11.6986  -8.4249  -4.9042   1.9607   6.1581   7.5639   7.9190

     occupation numbers 
     1.0000   1.0000   1.0000   1.0000   0.0000   0.0000   0.0000   0.0000

          k = 0.1250 0.5052 0.0000 (  4376 PWs)   bands (ev):

   -18.2342 -11.9768  -8.5076  -4.6380   1.6241   6.6357   8.1152   8.1418

     occupation numbers 
     1.0000   1.0000   1.0000   1.0000   0.0000   0.0000   0.0000   0.0000

          k = 0.1250 0.5340 0.0000 (  4370 PWs)   bands (ev):

   -18.1081 -12.1738  -8.5627  -4.4386   1.3752   6.9945   8.3748   8.7176

     occupation numbers 
     1.0000   1.0000   1.0000   1.0000   0.0000   0.0000   0.0000   0.0000

          k = 0.1250 0.5629 0.0000 (  4361 PWs)   bands (ev):

   -18.0412 -12.2762  -8.5903  -4.3308   1.2418   7.1704   8.7371   9.1984

     occupation numbers 
     1.0000   1.0000   1.0000   1.0000   0.0000   0.0000   0.0000   0.0000

          k = 0.1500 0.2598 0.0000 (  4350 PWs)   bands (ev):

   -19.9884  -8.6164  -7.1670  -7.1662   2.8767   3.6491   4.7221   5.4664

     occupation numbers 
     1.0000   1.0000   1.0000   1.0000   0.0000   0.0000   0.0000   0.0000

          k = 0.1500 0.2887 0.0000 (  4363 PWs)   bands (ev):

   -19.7879  -9.0294  -7.4526  -6.8896   3.2406   3.8134   5.0961   5.3948

     occupation numbers 
     1.0000   1.0000   1.0000   1.0000   0.0000   0.0000   0.0000   0.0000

          k = 0.1500 0.3175 0.0000 (  4369 PWs)   bands (ev):

   -19.5733  -9.4567  -7.7210  -6.5909   3.6399   3.8265   5.4144   5.5085

     occupation numbers 
     1.0000   1.0000   1.0000   1.0000   0.0000   0.0000   0.0000   0.0000

          k = 0.1500 0.3464 0.0000 (  4370 PWs)   bands (ev):

   -19.3475  -9.8914  -7.9650  -6.2742   3.6405   4.0733   5.6134   5.9585

     occupation numbers 
     1.0000   1.0000   1.0000   1.0000   0.0000   0.0000   0.0000   0.0000

          k = 0.1500 0.3753 0.0000 (  4368 PWs)   bands (ev):

   -19.1150 -10.3235  -8.1820  -5.9444   3.3159   4.5392   5.9569   6.4448

     occupation numbers 
     1.0000   1.0000   1.0000   1.0000   0.0000   0.0000   0.0000   0.0000

          k = 0.1500 0.4041 0.0000 (  4361 PWs)   bands (ev):

   -18.8809 -10.7418  -8.3707  -5.6082   2.9262   5.0352   6.3892   6.9649

     occupation numbers 
     1.0000   1.0000   1.0000   1.0000   0.0000   0.0000   0.0000   0.0000

          k = 0.1500 0.4330 0.0000 (  4371 PWs)   bands (ev):

   -18.6527 -11.1346  -8.5308  -5.2749   2.5183   5.5563   6.8790   7.5101

     occupation numbers 
     1.0000   1.0000   1.0000   1.0000   0.0000   0.0000   0.0000   0.0000

          k = 0.1500 0.4619 0.0000 (  4371 PWs)   bands (ev):

   -18.4394 -11.4879  -8.6619  -4.9564   2.1233   6.0938   7.4081   8.0371

     occupation numbers 
     1.0000   1.0000   1.0000   1.0000   0.0000   0.0000   0.0000   0.0000

          k = 0.1500 0.4907 0.0000 (  4373 PWs)   bands (ev):

   -18.2522 -11.7872  -8.7639  -4.6703   1.7690   6.6278   7.9616   8.3772

     occupation numbers 
     1.0000   1.0000   1.0000   1.0000   0.0000   0.0000   0.0000   0.0000

          k = 0.1500 0.5196 0.0000 (  4366 PWs)   bands (ev):

   -18.1044 -12.0167  -8.8367  -4.4381   1.4844   7.1127   8.5162   8.5508

     occupation numbers 
     1.0000   1.0000   1.0000   1.0000   0.0000   0.0000   0.0000   0.0000

          k = 0.1500 0.5485 0.0000 (  4363 PWs)   bands (ev):

   -18.0089 -12.1618  -8.8805  -4.2846   1.2978   7.4575   8.7783   9.0139

     occupation numbers 
     1.0000   1.0000   1.0000   1.0000   0.0000   0.0000   0.0000   0.0000

          k = 0.1500 0.5774 0.0000 (  4354 PWs)   bands (ev):

   -17.9758 -12.2115  -8.8949  -4.2303   1.2326   7.5775   8.9790   9.2601

     occupation numbers 
     1.0000   1.0000   1.0000   1.0000   0.0000   0.0000   0.0000   0.0000

          k = 0.1750 0.3031 0.0000 (  4360 PWs)   bands (ev):

   -19.5828  -9.3999  -7.7606  -6.6042   3.6235   3.8377   5.4135   5.4900

     occupation numbers 
     1.0000   1.0000   1.0000   1.0000   0.0000   0.0000   0.0000   0.0000

          k = 0.1750 0.3320 0.0000 (  4370 PWs)   bands (ev):

   -19.3655  -9.7831  -8.0487  -6.2998   3.6834   4.0416   5.5933   5.9221

     occupation numbers 
     1.0000   1.0000   1.0000   1.0000   0.0000   0.0000   0.0000   0.0000

          k = 0.1750 0.3608 0.0000 (  4381 PWs)   bands (ev):

   -19.1396 -10.1726  -8.3091  -5.9802   3.3943   4.4936   5.9118   6.3920

     occupation numbers 
     1.0000   1.0000   1.0000   1.0000   0.0000   0.0000   0.0000   0.0000

          k = 0.1750 0.3897 0.0000 (  4375 PWs)   bands (ev):

   -18.9097 -10.5597  -8.5375  -5.6508   3.0352   4.9779   6.3193   6.8983

     occupation numbers 
     1.0000   1.0000   1.0000   1.0000   0.0000   0.0000   0.0000   0.0000

          k = 0.1750 0.4186 0.0000 (  4373 PWs)   bands (ev):

   -18.6822 -10.9339  -8.7323  -5.3198   2.6482   5.4917   6.7846   7.4380

     occupation numbers 
     1.0000   1.0000   1.0000   1.0000   0.0000   0.0000   0.0000   0.0000

          k = 0.1750 0.4474 0.0000 (  4366 PWs)   bands (ev):

   -18.4650 -11.2815  -8.8933  -4.9976   2.2631   6.0299   7.2891   8.0022

     occupation numbers 
     1.0000   1.0000   1.0000   1.0000   0.0000   0.0000   0.0000   0.0000

          k = 0.1750 0.4763 0.0000 (  4368 PWs)   bands (ev):

   -18.2682 -11.5882  -9.0214  -4.6987   1.9043   6.5830   7.8165   8.5440

     occupation numbers 
     1.0000   1.0000   1.0000   1.0000   0.0000   0.0000   0.0000   0.0000

          k = 0.1750 0.5052 0.0000 (  4362 PWs)   bands (ev):

   -18.1037 -11.8382  -9.1168  -4.4420   1.5979   7.1294   8.3431   8.8585

     occupation numbers 
     1.0000   1.0000   1.0000   1.0000   0.0000   0.0000   0.0000   0.0000

          k = 0.1750 0.5340 0.0000 (  4361 PWs)   bands (ev):

   -17.9843 -12.0162  -9.1801  -4.2506   1.3712   7.6159   8.8210   8.9852

     occupation numbers 
     1.0000   1.0000   1.0000   1.0000   0.0000   0.0000   0.0000   0.0000

          k = 0.1750 0.5629 0.0000 (  4353 PWs)   bands (ev):

   -17.9212 -12.1089  -9.2116  -4.1472   1.2497   7.9251   9.1190   9.1423

     occupation numbers 
     1.0000   1.0000   1.0000   1.0000   0.0000   0.0000   0.0000   0.0000

          k = 0.2000 0.3464 0.0000 (  4386 PWs)   bands (ev):

   -19.1478 -10.1159  -8.3585  -5.9922   3.4210   4.4783   5.8971   6.3741

     occupation numbers 
     1.0000   1.0000   1.0000   1.0000   0.0000   0.0000   0.0000   0.0000

          k = 0.2000 0.3753 0.0000 (  4382 PWs)   bands (ev):

   -18.9242 -10.4516  -8.6389  -5.6723   3.0919   4.9487   6.2846   6.8636

     occupation numbers 
     1.0000   1.0000   1.0000   1.0000   0.0000   0.0000   0.0000   0.0000

          k = 0.2000 0.4041 0.0000 (  4384 PWs)   bands (ev):

   -18.7002 -10.7851  -8.8836  -5.3475   2.7318   5.4507   6.7278   7.3897

     occupation numbers 
     1.0000   1.0000   1.0000   1.0000   0.0000   0.0000   0.0000   0.0000

          k = 0.2000 0.4330 0.0000 (  4386 PWs)   bands (ev):

   -18.4829 -11.1058  -9.0891  -5.0263   2.3656   5.9814   7.2085   7.9488

     occupation numbers 
     1.0000   1.0000   1.0000   1.0000   0.0000   0.0000   0.0000   0.0000

          k = 0.2000 0.4619 0.0000 (  4373 PWs)   bands (ev):

   -18.2808 -11.4002  -9.2550  -4.7209   2.0151   6.5351   7.7093   8.5312

     occupation numbers 
     1.0000   1.0000   1.0000   1.0000   0.0000   0.0000   0.0000   0.0000

          k = 0.2000 0.4907 0.0000 (  4377 PWs)   bands (ev):

   -18.1049 -11.6537  -9.3827  -4.4478   1.7013   7.1010   8.2047   9.0771

     occupation numbers 
     1.0000   1.0000   1.0000   1.0000   0.0000   0.0000   0.0000   0.0000

          k = 0.2000 0.5196 0.0000 (  4367 PWs)   bands (ev):

   -17.9667 -11.8499  -9.4726  -4.2274   1.4493   7.6539   8.6487   9.3240

     occupation numbers 
     1.0000   1.0000   1.0000   1.0000   0.0000   0.0000   0.0000   0.0000

          k = 0.2000 0.5485 0.0000 (  4361 PWs)   bands (ev):

   -17.8779 -11.9746  -9.5262  -4.0822   1.2842   8.1256   8.9655   9.3565

     occupation numbers 
     1.0000   1.0000   1.0000   1.0000   0.0000   0.0000   0.0000   0.0000

          k = 0.2000 0.5774 0.0000 (  4374 PWs)   bands (ev):

   -17.8473 -12.0179  -9.5442  -4.0311   1.2264   8.3375   9.0799   9.3551

     occupation numbers 
     1.0000   1.0000   1.0000   1.0000   0.0000   0.0000   0.0000   0.0000

          k = 0.2250 0.3897 0.0000 (  4390 PWs)   bands (ev):

   -18.7064 -10.7285  -8.9413  -5.3568   2.7607   5.4368   6.7089   7.3728

     occupation numbers 
     1.0000   1.0000   1.0000   1.0000   0.0000   0.0000   0.0000   0.0000

          k = 0.2250 0.4186 0.0000 (  4388 PWs)   bands (ev):

   -18.4920 -10.9992  -9.2063  -5.0409   2.4204   5.9556   7.1679   7.9180

     occupation numbers 
     1.0000   1.0000   1.0000   1.0000   0.0000   0.0000   0.0000   0.0000

          k = 0.2250 0.4474 0.0000 (  4384 PWs)   bands (ev):

   -18.2889 -11.2565  -9.4280  -4.7351   2.0877   6.5016   7.6432   8.4956

     occupation numbers 
     1.0000   1.0000   1.0000   1.0000   0.0000   0.0000   0.0000   0.0000

          k = 0.2250 0.4763 0.0000 (  4370 PWs)   bands (ev):

   -18.1062 -11.4887  -9.6037  -4.4527   1.7806   7.0679   8.1075   9.0920

     occupation numbers 
     1.0000   1.0000   1.0000   1.0000   0.0000   0.0000   0.0000   0.0000

          k = 0.2250 0.5052 0.0000 (  4367 PWs)   bands (ev):

   -17.9549 -11.6819  -9.7338  -4.2126   1.5188   7.6411   8.5126   9.6057

     occupation numbers 
     1.0000   1.0000   1.0000   1.0000   0.0000   0.0000   0.0000   0.0000

          k = 0.2250 0.5340 0.0000 (  4364 PWs)   bands (ev):

   -17.8458 -11.8212  -9.8196  -4.0344   1.3252   8.1875   8.7965   9.7062

     occupation numbers 
     1.0000   1.0000   1.0000   1.0000   0.0000   0.0000   0.0000   0.0000

          k = 0.2250 0.5629 0.0000 (  4357 PWs)   bands (ev):

   -17.7884 -11.8946  -9.8620  -3.9385   1.2218   8.6010   8.9305   9.6160

     occupation numbers 
     1.0000   1.0000   1.0000   1.0000   0.0000   0.0000   0.0000   0.0000

          k = 0.2500 0.4330 0.0000 (  4370 PWs)   bands (ev):

   -18.2915 -11.2003  -9.4936  -4.7394   2.1133   6.4898   7.6210   8.4814

     occupation numbers 
     1.0000   1.0000   1.0000   1.0000   0.0000   0.0000   0.0000   0.0000

          k = 0.2500 0.4619 0.0000 (  4390 PWs)   bands (ev):

   -18.1074 -11.3853  -9.7365  -4.4561   1.8233   7.0480   8.0570   9.0744

     occupation numbers 
     1.0000   1.0000   1.0000   1.0000   0.0000   0.0000   0.0000   0.0000

          k = 0.2500 0.4907 0.0000 (  4374 PWs)   bands (ev):

   -17.9483 -11.5459  -9.9274  -4.2045   1.5664   7.6218   8.4249   9.6702

     occupation numbers 
     1.0000   1.0000   1.0000   1.0000   0.0000   0.0000   0.0000   0.0000

          k = 0.2500 0.5196 0.0000 (  4370 PWs)   bands (ev):

   -17.8248 -11.6727 -10.0640  -4.0032   1.3611   8.1910   8.6678  10.0260

     occupation numbers 
     1.0000   1.0000   1.0000   1.0000   0.0000   0.0000   0.0000   0.0000

          k = 0.2500 0.5485 0.0000 (  4349 PWs)   bands (ev):

   -17.7459 -11.7543 -10.1453  -3.8717   1.2272   8.7014   8.7815   9.9603

     occupation numbers 
     1.0000   1.0000   1.0000   1.0000   0.0000   0.0000   0.0000   0.0000

          k = 0.2500 0.5774 0.0000 (  4350 PWs)   bands (ev):

   -17.7189 -11.7828 -10.1723  -3.8257   1.1805   8.8114   8.9576   9.8538

     occupation numbers 
     1.0000   1.0000   1.0000   1.0000   0.0000   0.0000   0.0000   0.0000

          k = 0.2750 0.4763 0.0000 (  4378 PWs)   bands (ev):

   -17.9461 -11.4910 -10.0017  -4.2020   1.5834   7.6138   8.3946   9.6715

     occupation numbers 
     1.0000   1.0000   1.0000   1.0000   0.0000   0.0000   0.0000   0.0000

          k = 0.2750 0.5052 0.0000 (  4374 PWs)   bands (ev):

   -17.8144 -11.5726 -10.2126  -3.9881   1.3819   8.1843   8.5986  10.1746

     occupation numbers 
     1.0000   1.0000   1.0000   1.0000   0.0000   0.0000   0.0000   0.0000

          k = 0.2750 0.5340 0.0000 (  4360 PWs)   bands (ev):

   -17.7204 -11.6284 -10.3590  -3.8315   1.2345   8.6780   8.7254  10.2598

     occupation numbers 
     1.0000   1.0000   1.0000   1.0000   0.0000   0.0000   0.0000   0.0000

          k = 0.2750 0.5629 0.0000 (  4367 PWs)   bands (ev):

   -17.6715 -11.6575 -10.4340  -3.7485   1.1560   8.6962   9.1303  10.1667

     occupation numbers 
     1.0000   1.0000   1.0000   1.0000   0.0000   0.0000   0.0000   0.0000

          k = 0.3000 0.5196 0.0000 (  4352 PWs)   bands (ev):

   -17.7117 -11.5735 -10.4432  -3.8180   1.2379   8.6413   8.7288  10.3773

     occupation numbers 
     1.0000   1.0000   1.0000   1.0000   0.0000   0.0000   0.0000   0.0000

          k = 0.3000 0.5485 0.0000 (  4369 PWs)   bands (ev):

   -17.6473 -11.5614 -10.5990  -3.7090   1.1451   8.6295   9.1843  10.4261

     occupation numbers 
     1.0000   1.0000   1.0000   1.0000   0.0000   0.0000   0.0000   0.0000

          k = 0.3000 0.5774 0.0000 (  4374 PWs)   bands (ev):

   -17.6254 -11.5541 -10.6552  -3.6708   1.1132   8.6198   9.3839  10.4360

     occupation numbers 
     1.0000   1.0000   1.0000   1.0000   0.0000   0.0000   0.0000   0.0000

          k = 0.3250 0.5629 0.0000 (  4384 PWs)   bands (ev):

   -17.6098 -11.5029 -10.7461  -3.6451   1.0986   8.5908   9.4570  10.6250

     occupation numbers 
     1.0000   1.0000   1.0000   1.0000   0.0000   0.0000   0.0000   0.0000

     the Fermi energy is    -1.1456 ev
     (compare with:    -1.1456 eV, computed in scf)

     Writing all to output data dir ./tmp40/hBN_1l_PBE_vdW.save/

     init_run     :      9.40s CPU      9.45s WALL (       1 calls)
     electrons    :      8.81s CPU      9.90s WALL (       1 calls)

     Called by init_run:
     wfcinit      :      0.00s CPU      0.00s WALL (       1 calls)
     wfcinit:atom :      0.01s CPU      0.02s WALL (     154 calls)
     wfcinit:wfcr :      0.41s CPU      0.45s WALL (     154 calls)
     potinit      :      9.09s CPU      9.13s WALL (       1 calls)
     hinit0       :      0.29s CPU      0.29s WALL (       1 calls)

     Called by electrons:
     c_bands      :      8.81s CPU      9.89s WALL (       1 calls)
     v_of_rho     :      9.09s CPU      9.13s WALL (       1 calls)
     v_h          :      0.00s CPU      0.00s WALL (       1 calls)
     v_xc         :      9.09s CPU      9.13s WALL (       1 calls)
     vdW_kernel   :      9.06s CPU      9.09s WALL (       1 calls)

     Called by c_bands:
     init_us_2    :      0.02s CPU      0.02s WALL (     154 calls)
     init_us_2:cp :      0.02s CPU      0.02s WALL (     154 calls)
     cegterg      :      8.29s CPU      9.22s WALL (     274 calls)

     Called by sum_band:

     Called by *egterg:
     cdiaghg      :      0.40s CPU      0.41s WALL (    3716 calls)
     cegterg:over :      0.60s CPU      0.62s WALL (    3562 calls)
     cegterg:upda :      0.53s CPU      0.74s WALL (    3562 calls)
     cegterg:last :      0.53s CPU      0.67s WALL (    2049 calls)
     h_psi        :      6.15s CPU      6.61s WALL (    3990 calls)
     g_psi        :      0.06s CPU      0.09s WALL (    3562 calls)

     Called by h_psi:
     h_psi:calbec :      0.30s CPU      0.32s WALL (    3990 calls)
     vloc_psi     :      5.45s CPU      5.69s WALL (    3990 calls)
     add_vuspsi   :      0.36s CPU      0.54s WALL (    3990 calls)

     General routines
     calbec       :      0.29s CPU      0.31s WALL (    3990 calls)
     fft          :      0.26s CPU      0.26s WALL (      61 calls)
     fftw         :      4.95s CPU      5.14s WALL (   35880 calls)
     davcio       :      0.00s CPU      0.12s WALL (     308 calls)

     Parallel routines

     PWSCF        :     18.56s CPU     19.82s WALL


   This run was terminated on:  12:30:24  16Apr2024            

=------------------------------------------------------------------------------=
   JOB DONE.
=------------------------------------------------------------------------------=
