
     Program PWSCF v.7.2 starts on 16Apr2024 at 12:29:42 

     This program is part of the open-source Quantum ESPRESSO suite
     for quantum simulation of materials; please cite
         "P. Giannozzi et al., J. Phys.:Condens. Matter 21 395502 (2009);
         "P. Giannozzi et al., J. Phys.:Condens. Matter 29 465901 (2017);
         "P. Giannozzi et al., J. Chem. Phys. 152 154105 (2020);
          URL http://www.quantum-espresso.org", 
     in publications or presentations arising from this work. More details at
     http://www.quantum-espresso.org/quote

     Parallel version (MPI & OpenMP), running on       8 processor cores
     Number of MPI processes:                 8
     Threads/MPI process:                     1

     MPI processes distributed on     1 nodes
     0 MiB available memory on the printing compute node when the environment starts

     Waiting for input...
     Reading input from standard input
Warning: card / ignored
Warning: card $IONS ignored
Warning: card / ignored
Warning: card $CELL ignored
Warning: card / ignored

     Current dimensions of program PWSCF are:
     Max number of different atomic species (ntypx) = 10
     Max number of k-points (npk) =  40000
     Max angular momentum in pseudopotentials (lmaxx) =  4

     Atomic positions and unit cell read from directory:
     ./tmp20/hBN_1l_PBE_vdW.save/
     Atomic positions from file used, from input discarded


     IMPORTANT: XC functional enforced from input :
     Exchange-correlation= VDW-DF2-B86R
                           (   1   4  26   0   2   0   0)
     Any further DFT definition will be discarded
     Please, verify this is what you really want


     R & G space division:  proc/nbgrp/npool/nimage =       8
     Subspace diagonalization in iterative solution of the eigenvalue problem:
     a serial algorithm will be used


     Parallelization info
     --------------------
     sticks:   dense  smooth     PW     G-vecs:    dense   smooth      PW
     Min          45      45     14                 4333     4333     748
     Max          46      46     16                 4356     4356     759
     Sum         367     367    121                34803    34803    6043

     Using Slab Decomposition



     bravais-lattice index     =            4
     lattice parameter (alat)  =       4.7470  a.u.
     unit-cell volume          =     555.8269 (a.u.)^3
     number of atoms/cell      =            2
     number of atomic types    =            2
     number of electrons       =         8.00
     number of Kohn-Sham states=            8
     kinetic-energy cutoff     =      60.0000  Ry
     charge density cutoff     =     240.0000  Ry
     Exchange-correlation= VDW-DF2-B86R
                           (   1   4  26   0   2   0   0)

     celldm(1)=   4.747000  celldm(2)=   0.000000  celldm(3)=   6.000000
     celldm(4)=   0.000000  celldm(5)=   0.000000  celldm(6)=   0.000000

     crystal axes: (cart. coord. in units of alat)
               a(1) = (   1.000000   0.000000   0.000000 )  
               a(2) = (  -0.500000   0.866025   0.000000 )  
               a(3) = (   0.000000   0.000000   6.000000 )  

     reciprocal axes: (cart. coord. in units 2 pi/alat)
               b(1) = (  1.000000  0.577350 -0.000000 )  
               b(2) = (  0.000000  1.154701  0.000000 )  
               b(3) = (  0.000000 -0.000000  0.166667 )  


     PseudoPot. # 1 for N  read from file:
     ../../../Pseudo/PBE/N.upf
     MD5 check sum: d34365f73bb0e2ee98afc20ec3e87676
     Pseudo is Norm-conserving + core correction, Zval =  5.0
     Generated using ONCVPSP code by D. R. Hamann
     Using radial grid of 1058 points,  4 beta functions with: 
                l(1) =   0
                l(2) =   0
                l(3) =   1
                l(4) =   1

     PseudoPot. # 2 for B  read from file:
     ../../../Pseudo/PBE/B.upf
     MD5 check sum: 72f82fc31bc892420d0cab7e25c88ab8
     Pseudo is Norm-conserving + core correction, Zval =  3.0
     Generated using ONCVPSP code by D. R. Hamann
     Using radial grid of 1534 points,  4 beta functions with: 
                l(1) =   0
                l(2) =   0
                l(3) =   1
                l(4) =   1

     atomic species   valence    mass     pseudopotential
        N              5.00    14.00670     N ( 1.00)
        B              3.00    10.80100     B ( 1.00)

     12 Sym. Ops. (no inversion) found


                                    s                        frac. trans.

      isym =  1     identity                                     

 cryst.   s( 1) = (     1          0          0      )
                  (     0          1          0      )
                  (     0          0          1      )

 cart.    s( 1) = (  1.0000000  0.0000000  0.0000000 )
                  (  0.0000000  1.0000000  0.0000000 )
                  (  0.0000000  0.0000000  1.0000000 )


      isym =  2     180 deg rotation - cart. axis [0,1,0]        

 cryst.   s( 2) = (    -1          0          0      )
                  (     1          1          0      )
                  (     0          0         -1      )

 cart.    s( 2) = ( -1.0000000  0.0000000  0.0000000 )
                  (  0.0000000  1.0000000  0.0000000 )
                  (  0.0000000  0.0000000 -1.0000000 )


      isym =  3     120 deg rotation - cryst. axis [0,0,1]       

 cryst.   s( 3) = (     0          1          0      )
                  (    -1         -1          0      )
                  (     0          0          1      )

 cart.    s( 3) = ( -0.5000000 -0.8660254  0.0000000 )
                  (  0.8660254 -0.5000000  0.0000000 )
                  (  0.0000000  0.0000000  1.0000000 )


      isym =  4     120 deg rotation - cryst. axis [0,0,-1]      

 cryst.   s( 4) = (    -1         -1          0      )
                  (     1          0          0      )
                  (     0          0          1      )

 cart.    s( 4) = ( -0.5000000  0.8660254  0.0000000 )
                  ( -0.8660254 -0.5000000  0.0000000 )
                  (  0.0000000  0.0000000  1.0000000 )


      isym =  5     180 deg rotation - cryst. axis [1,-1,0]      

 cryst.   s( 5) = (     0         -1          0      )
                  (    -1          0          0      )
                  (     0          0         -1      )

 cart.    s( 5) = (  0.5000000 -0.8660254  0.0000000 )
                  ( -0.8660254 -0.5000000  0.0000000 )
                  (  0.0000000  0.0000000 -1.0000000 )


      isym =  6     180 deg rotation - cryst. axis [2,1,0]       

 cryst.   s( 6) = (     1          1          0      )
                  (     0         -1          0      )
                  (     0          0         -1      )

 cart.    s( 6) = (  0.5000000  0.8660254  0.0000000 )
                  (  0.8660254 -0.5000000  0.0000000 )
                  (  0.0000000  0.0000000 -1.0000000 )


      isym =  7     inv. 180 deg rotation - cart. axis [0,0,1]   

 cryst.   s( 7) = (     1          0          0      )
                  (     0          1          0      )
                  (     0          0         -1      )

 cart.    s( 7) = (  1.0000000  0.0000000  0.0000000 )
                  (  0.0000000  1.0000000  0.0000000 )
                  (  0.0000000  0.0000000 -1.0000000 )


      isym =  8     inv. 180 deg rotation - cart. axis [1,0,0]   

 cryst.   s( 8) = (    -1          0          0      )
                  (     1          1          0      )
                  (     0          0          1      )

 cart.    s( 8) = ( -1.0000000  0.0000000  0.0000000 )
                  (  0.0000000  1.0000000  0.0000000 )
                  (  0.0000000  0.0000000  1.0000000 )


      isym =  9     inv.  60 deg rotation - cryst. axis [0,0,1]  

 cryst.   s( 9) = (    -1         -1          0      )
                  (     1          0          0      )
                  (     0          0         -1      )

 cart.    s( 9) = ( -0.5000000  0.8660254  0.0000000 )
                  ( -0.8660254 -0.5000000  0.0000000 )
                  (  0.0000000  0.0000000 -1.0000000 )


      isym = 10     inv.  60 deg rotation - cryst. axis [0,0,-1] 

 cryst.   s(10) = (     0          1          0      )
                  (    -1         -1          0      )
                  (     0          0         -1      )

 cart.    s(10) = ( -0.5000000 -0.8660254  0.0000000 )
                  (  0.8660254 -0.5000000  0.0000000 )
                  (  0.0000000  0.0000000 -1.0000000 )


      isym = 11     inv. 180 deg rotation - cryst. axis [0,1,0]  

 cryst.   s(11) = (     1          1          0      )
                  (     0         -1          0      )
                  (     0          0          1      )

 cart.    s(11) = (  0.5000000  0.8660254  0.0000000 )
                  (  0.8660254 -0.5000000  0.0000000 )
                  (  0.0000000  0.0000000  1.0000000 )


      isym = 12     inv. 180 deg rotation - cryst. axis [1,1,0]  

 cryst.   s(12) = (     0         -1          0      )
                  (    -1          0          0      )
                  (     0          0          1      )

 cart.    s(12) = (  0.5000000 -0.8660254  0.0000000 )
                  ( -0.8660254 -0.5000000  0.0000000 )
                  (  0.0000000  0.0000000  1.0000000 )


     point group D_3h (-62m)
     there are  6 classes
     the character table:

       E     2C3   3C2   s_h   2S3   3s_v 
A'_1   1.00  1.00  1.00  1.00  1.00  1.00
A'_2   1.00  1.00 -1.00  1.00  1.00 -1.00
E'     2.00 -1.00  0.00  2.00 -1.00  0.00
A''1   1.00  1.00  1.00 -1.00 -1.00 -1.00
A''2   1.00  1.00 -1.00 -1.00 -1.00  1.00
E''    2.00 -1.00  0.00 -2.00  1.00  0.00

     the symmetry operations in each class and the name of the first element:

     E        1
          identity                                               
     2C3      3    4
          120 deg rotation - cryst. axis [0,0,1]                 
     3C2      2    6    5
          180 deg rotation - cart. axis [0,1,0]                  
     s_h      7
          inv. 180 deg rotation - cart. axis [0,0,1]             
     2S3      9   10
          inv.  60 deg rotation - cryst. axis [0,0,1]            
     3s_v     8   11   12
          inv. 180 deg rotation - cart. axis [1,0,0]             

   Cartesian axes

     site n.     atom                  positions (alat units)
         1           B   tau(   1) = (   0.0000000   0.0000000   0.0000000  )
         2           N   tau(   2) = (  -0.0000000   0.5773503   0.0000000  )

   Crystallographic axes

     site n.     atom                  positions (cryst. coord.)
         1           B   tau(   1) = (  0.0000000  0.0000000  0.0000000  )
         2           N   tau(   2) = (  0.3333333  0.6666667  0.0000000  )

     number of k points=    44  Marzari-Vanderbilt smearing, width (Ry)=  0.0050
                       cart. coord. in units 2pi/alat
        k(    1) = (   0.0000000   0.0000000   0.0000000), wk =   0.0050000
        k(    2) = (   0.0000000   0.0577350   0.0000000), wk =   0.0300000
        k(    3) = (   0.0000000   0.1154701   0.0000000), wk =   0.0300000
        k(    4) = (   0.0000000   0.1732051   0.0000000), wk =   0.0300000
        k(    5) = (   0.0000000   0.2309401   0.0000000), wk =   0.0300000
        k(    6) = (   0.0000000   0.2886751   0.0000000), wk =   0.0300000
        k(    7) = (   0.0000000   0.3464102   0.0000000), wk =   0.0300000
        k(    8) = (   0.0000000   0.4041452   0.0000000), wk =   0.0300000
        k(    9) = (   0.0000000   0.4618802   0.0000000), wk =   0.0300000
        k(   10) = (   0.0000000   0.5196152   0.0000000), wk =   0.0300000
        k(   11) = (   0.0000000  -0.5773503   0.0000000), wk =   0.0150000
        k(   12) = (   0.0500000   0.0866025   0.0000000), wk =   0.0300000
        k(   13) = (   0.0500000   0.1443376   0.0000000), wk =   0.0600000
        k(   14) = (   0.0500000   0.2020726   0.0000000), wk =   0.0600000
        k(   15) = (   0.0500000   0.2598076   0.0000000), wk =   0.0600000
        k(   16) = (   0.0500000   0.3175426   0.0000000), wk =   0.0600000
        k(   17) = (   0.0500000   0.3752777   0.0000000), wk =   0.0600000
        k(   18) = (   0.0500000   0.4330127   0.0000000), wk =   0.0600000
        k(   19) = (   0.0500000   0.4907477   0.0000000), wk =   0.0600000
        k(   20) = (   0.0500000   0.5484828   0.0000000), wk =   0.0600000
        k(   21) = (   0.1000000   0.1732051   0.0000000), wk =   0.0300000
        k(   22) = (   0.1000000   0.2309401   0.0000000), wk =   0.0600000
        k(   23) = (   0.1000000   0.2886751   0.0000000), wk =   0.0600000
        k(   24) = (   0.1000000   0.3464102   0.0000000), wk =   0.0600000
        k(   25) = (   0.1000000   0.4041452   0.0000000), wk =   0.0600000
        k(   26) = (   0.1000000   0.4618802   0.0000000), wk =   0.0600000
        k(   27) = (   0.1000000   0.5196152   0.0000000), wk =   0.0600000
        k(   28) = (   0.1000000   0.5773503   0.0000000), wk =   0.0300000
        k(   29) = (   0.1500000   0.2598076   0.0000000), wk =   0.0300000
        k(   30) = (   0.1500000   0.3175426   0.0000000), wk =   0.0600000
        k(   31) = (   0.1500000   0.3752777   0.0000000), wk =   0.0600000
        k(   32) = (   0.1500000   0.4330127   0.0000000), wk =   0.0600000
        k(   33) = (   0.1500000   0.4907477   0.0000000), wk =   0.0600000
        k(   34) = (   0.1500000   0.5484828   0.0000000), wk =   0.0600000
        k(   35) = (   0.2000000   0.3464102   0.0000000), wk =   0.0300000
        k(   36) = (   0.2000000   0.4041452   0.0000000), wk =   0.0600000
        k(   37) = (   0.2000000   0.4618802   0.0000000), wk =   0.0600000
        k(   38) = (   0.2000000   0.5196152   0.0000000), wk =   0.0600000
        k(   39) = (   0.2000000   0.5773503   0.0000000), wk =   0.0300000
        k(   40) = (   0.2500000   0.4330127   0.0000000), wk =   0.0300000
        k(   41) = (   0.2500000   0.4907477   0.0000000), wk =   0.0600000
        k(   42) = (   0.2500000   0.5484828   0.0000000), wk =   0.0600000
        k(   43) = (   0.3000000   0.5196152   0.0000000), wk =   0.0300000
        k(   44) = (   0.3000000   0.5773503   0.0000000), wk =   0.0300000

                       cryst. coord.
        k(    1) = (   0.0000000   0.0000000   0.0000000), wk =   0.0050000
        k(    2) = (   0.0000000   0.0500000   0.0000000), wk =   0.0300000
        k(    3) = (   0.0000000   0.1000000   0.0000000), wk =   0.0300000
        k(    4) = (   0.0000000   0.1500000   0.0000000), wk =   0.0300000
        k(    5) = (   0.0000000   0.2000000   0.0000000), wk =   0.0300000
        k(    6) = (   0.0000000   0.2500000   0.0000000), wk =   0.0300000
        k(    7) = (   0.0000000   0.3000000   0.0000000), wk =   0.0300000
        k(    8) = (   0.0000000   0.3500000   0.0000000), wk =   0.0300000
        k(    9) = (   0.0000000   0.4000000   0.0000000), wk =   0.0300000
        k(   10) = (   0.0000000   0.4500000   0.0000000), wk =   0.0300000
        k(   11) = (   0.0000000  -0.5000000   0.0000000), wk =   0.0150000
        k(   12) = (   0.0500000   0.0500000   0.0000000), wk =   0.0300000
        k(   13) = (   0.0500000   0.1000000   0.0000000), wk =   0.0600000
        k(   14) = (   0.0500000   0.1500000   0.0000000), wk =   0.0600000
        k(   15) = (   0.0500000   0.2000000   0.0000000), wk =   0.0600000
        k(   16) = (   0.0500000   0.2500000   0.0000000), wk =   0.0600000
        k(   17) = (   0.0500000   0.3000000   0.0000000), wk =   0.0600000
        k(   18) = (   0.0500000   0.3500000   0.0000000), wk =   0.0600000
        k(   19) = (   0.0500000   0.4000000   0.0000000), wk =   0.0600000
        k(   20) = (   0.0500000   0.4500000   0.0000000), wk =   0.0600000
        k(   21) = (   0.1000000   0.1000000   0.0000000), wk =   0.0300000
        k(   22) = (   0.1000000   0.1500000   0.0000000), wk =   0.0600000
        k(   23) = (   0.1000000   0.2000000   0.0000000), wk =   0.0600000
        k(   24) = (   0.1000000   0.2500000   0.0000000), wk =   0.0600000
        k(   25) = (   0.1000000   0.3000000   0.0000000), wk =   0.0600000
        k(   26) = (   0.1000000   0.3500000   0.0000000), wk =   0.0600000
        k(   27) = (   0.1000000   0.4000000   0.0000000), wk =   0.0600000
        k(   28) = (   0.1000000   0.4500000   0.0000000), wk =   0.0300000
        k(   29) = (   0.1500000   0.1500000   0.0000000), wk =   0.0300000
        k(   30) = (   0.1500000   0.2000000   0.0000000), wk =   0.0600000
        k(   31) = (   0.1500000   0.2500000   0.0000000), wk =   0.0600000
        k(   32) = (   0.1500000   0.3000000   0.0000000), wk =   0.0600000
        k(   33) = (   0.1500000   0.3500000   0.0000000), wk =   0.0600000
        k(   34) = (   0.1500000   0.4000000   0.0000000), wk =   0.0600000
        k(   35) = (   0.2000000   0.2000000   0.0000000), wk =   0.0300000
        k(   36) = (   0.2000000   0.2500000   0.0000000), wk =   0.0600000
        k(   37) = (   0.2000000   0.3000000   0.0000000), wk =   0.0600000
        k(   38) = (   0.2000000   0.3500000   0.0000000), wk =   0.0600000
        k(   39) = (   0.2000000   0.4000000   0.0000000), wk =   0.0300000
        k(   40) = (   0.2500000   0.2500000   0.0000000), wk =   0.0300000
        k(   41) = (   0.2500000   0.3000000   0.0000000), wk =   0.0600000
        k(   42) = (   0.2500000   0.3500000   0.0000000), wk =   0.0600000
        k(   43) = (   0.3000000   0.3000000   0.0000000), wk =   0.0300000
        k(   44) = (   0.3000000   0.3500000   0.0000000), wk =   0.0300000

     Dense  grid:    34803 G-vectors     FFT dimensions: (  24,  24, 144)

     Dynamical RAM for                 wfc:       0.07 MB

     Dynamical RAM for     wfc (w. buffer):       0.07 MB

     Dynamical RAM for           str. fact:       0.13 MB

     Dynamical RAM for           local pot:       0.00 MB

     Dynamical RAM for          nlocal pot:       0.13 MB

     Dynamical RAM for                qrad:       0.71 MB

     Dynamical RAM for          rho,v,vnew:       0.44 MB

     Dynamical RAM for           G-vectors:       0.28 MB

     Dynamical RAM for          h,s,v(r/c):       0.01 MB

     Dynamical RAM for          <psi|beta>:       0.00 MB

     Dynamical RAM for                 psi:       0.13 MB

     Dynamical RAM for                hpsi:       0.13 MB

     Dynamical RAM for      wfcinit/wfcrot:       0.13 MB

     Estimated static dynamical RAM per process >       2.36 MB

     Estimated max dynamical RAM per process >       2.64 MB

     Estimated total dynamical RAM >      21.10 MB

     The potential is recalculated from file :
     ./tmp20/hBN_1l_PBE_vdW.save/charge-density



     %%%%%%%%%%%%%%%%%%%%%%%%%%%%%%%%%%%%%%%%%%%%%%%%%%%%%%%%%%%%%%%%%%%%%%%%
     %                                                                      %
     % You are using vdW-DF, which was implemented by the Thonhauser group. %
     % Please cite the following two papers that made this development      %
     % possible and the two reviews that describe the various versions:     %
     %                                                                      %
     %   T. Thonhauser et al., PRL 115, 136402 (2015).                      %
     %   T. Thonhauser et al., PRB 76, 125112 (2007).                       %
     %   K. Berland et al., Rep. Prog. Phys. 78, 066501 (2015).             %
     %   D.C. Langreth et al., J. Phys.: Condens. Matter 21, 084203 (2009). %
     %                                                                      %
     % If you are calculating stress with vdW-DF, please also cite:         %
     %                                                                      %
     %   R. Sabatini et al., J. Phys.: Condens. Matter 24, 424209 (2012).   %
     %                                                                      %
     %%%%%%%%%%%%%%%%%%%%%%%%%%%%%%%%%%%%%%%%%%%%%%%%%%%%%%%%%%%%%%%%%%%%%%%%

     %%%%%%%%%%%%%%%%%%%%%%%%%%%%%%%%%%%%%%%%%%%%%%%%%%%%%%%%%%%%%%%%%%%%%%%%
     %                                                                      %
     %  vdW-DF NEWS:                                                        %
     %                                                                      %
     %  * vdW-DF3 is now available. DOI: 10.1021/acs.jctc.0c00471           %
     %    use with input_dft = 'vdW-DF3-opt1' or 'vdW-DF3-opt2'             %
     %                                                                      %
     %  * Unscreened and range-separated hybrid vdW-DF-cx functionals       %
     %    DOI: 10.1063/1.4986522 and 10.1088/1361-648X/ac2ad2               %
     %    use with input_dft = 'vdW-DF-cx0'    and 'vdW-DF-ahcx'            %
     %  * Unscreened and range-separated hybrid vdW-DF2-b86r functionals    %
     %    DOI: 10.1063/1.4986522 and DOI: 10.1103/PhysRevX.12.041003        %
     %    use with input_dft = 'vdW-DF2-br0' and 'vdW-DF2-ahbr'             %
     %                                                                      %
     %%%%%%%%%%%%%%%%%%%%%%%%%%%%%%%%%%%%%%%%%%%%%%%%%%%%%%%%%%%%%%%%%%%%%%%%


     Carrying out vdW-DF run using the following parameters:
     Nqs    =  20  Npoints =  1024  r_max =  100.000
     q_mesh =  0.00001000  0.04494208  0.09755937  0.15916263
               0.23128650  0.31572767  0.41458969  0.53033537
               0.66584808  0.82450364  1.01025438  1.22772762
               1.48234092  1.78043706  2.12944203  2.53805004
               3.01644009  3.57652955  4.23227104  5.00000000


     -----------------------------------------------
     Non-local corr. energy    =       0.10705985 Ry
     -----------------------------------------------

     Starting wfcs are    8 randomized atomic wfcs

     Band Structure Calculation
     Davidson diagonalization with overlap

     Computing kpt #:     1  of    44
     total cpu time spent up to now is        9.4 secs

     Computing kpt #:     2  of    44
     total cpu time spent up to now is        9.5 secs

     Computing kpt #:     3  of    44
     total cpu time spent up to now is        9.6 secs

     Computing kpt #:     4  of    44
     total cpu time spent up to now is        9.6 secs

     Computing kpt #:     5  of    44
     total cpu time spent up to now is        9.7 secs

     Computing kpt #:     6  of    44
     total cpu time spent up to now is        9.7 secs

     Computing kpt #:     7  of    44
     total cpu time spent up to now is        9.8 secs

     Computing kpt #:     8  of    44
     total cpu time spent up to now is        9.9 secs

     Computing kpt #:     9  of    44
     total cpu time spent up to now is        9.9 secs

     Computing kpt #:    10  of    44
     total cpu time spent up to now is       10.0 secs

     Computing kpt #:    11  of    44
     total cpu time spent up to now is       10.0 secs

     Computing kpt #:    12  of    44
     total cpu time spent up to now is       10.1 secs

     Computing kpt #:    13  of    44
     total cpu time spent up to now is       10.2 secs

     Computing kpt #:    14  of    44
     total cpu time spent up to now is       10.2 secs

     Computing kpt #:    15  of    44
     total cpu time spent up to now is       10.3 secs

     Computing kpt #:    16  of    44
     total cpu time spent up to now is       10.3 secs

     Computing kpt #:    17  of    44
     total cpu time spent up to now is       10.4 secs

     Computing kpt #:    18  of    44
     total cpu time spent up to now is       10.4 secs

     Computing kpt #:    19  of    44
     total cpu time spent up to now is       10.5 secs

     Computing kpt #:    20  of    44
     total cpu time spent up to now is       10.6 secs

     Computing kpt #:    21  of    44
     total cpu time spent up to now is       10.6 secs

     Computing kpt #:    22  of    44
     total cpu time spent up to now is       10.7 secs

     Computing kpt #:    23  of    44
     total cpu time spent up to now is       10.7 secs

     Computing kpt #:    24  of    44
     total cpu time spent up to now is       10.8 secs

     Computing kpt #:    25  of    44
     total cpu time spent up to now is       10.9 secs

     Computing kpt #:    26  of    44
     total cpu time spent up to now is       10.9 secs

     Computing kpt #:    27  of    44
     total cpu time spent up to now is       11.0 secs

     Computing kpt #:    28  of    44
     total cpu time spent up to now is       11.0 secs

     Computing kpt #:    29  of    44
     total cpu time spent up to now is       11.1 secs

     Computing kpt #:    30  of    44
     total cpu time spent up to now is       11.1 secs

     Computing kpt #:    31  of    44
     total cpu time spent up to now is       11.2 secs

     Computing kpt #:    32  of    44
     total cpu time spent up to now is       11.2 secs

     Computing kpt #:    33  of    44
     total cpu time spent up to now is       11.3 secs

     Computing kpt #:    34  of    44
     total cpu time spent up to now is       11.4 secs

     Computing kpt #:    35  of    44
     total cpu time spent up to now is       11.4 secs

     Computing kpt #:    36  of    44
     total cpu time spent up to now is       11.5 secs

     Computing kpt #:    37  of    44
     total cpu time spent up to now is       11.5 secs

     Computing kpt #:    38  of    44
     total cpu time spent up to now is       11.6 secs

     Computing kpt #:    39  of    44
     total cpu time spent up to now is       11.6 secs

     Computing kpt #:    40  of    44
     total cpu time spent up to now is       11.7 secs

     Computing kpt #:    41  of    44
     total cpu time spent up to now is       11.8 secs

     Computing kpt #:    42  of    44
     total cpu time spent up to now is       11.8 secs

     Computing kpt #:    43  of    44
     total cpu time spent up to now is       11.9 secs

     Computing kpt #:    44  of    44
     total cpu time spent up to now is       11.9 secs

     ethr =  5.00E-06,  avg # of iterations = 22.4

     total cpu time spent up to now is       11.9 secs

     End of band structure calculation

          k = 0.0000 0.0000 0.0000 (  4301 PWs)   bands (ev):

   -21.2170  -8.8406  -5.0155  -5.0155   0.7508   1.8471   2.5827   4.2890

     occupation numbers 
     1.0000   1.0000   1.0000   1.0000   0.0000   0.0000   0.0000   0.0000

          k = 0.0000 0.0577 0.0000 (  4335 PWs)   bands (ev):

   -21.1694  -8.7767  -5.2214  -5.1109   0.8341   1.9214   2.6628   4.3605

     occupation numbers 
     1.0000   1.0000   1.0000   1.0000   0.0000   0.0000   0.0000   0.0000

          k = 0.0000 0.1155 0.0000 (  4324 PWs)   bands (ev):

   -21.0270  -8.5843  -5.7936  -5.3738   1.0787   2.1431   2.9022   4.5720

     occupation numbers 
     1.0000   1.0000   1.0000   1.0000   0.0000   0.0000   0.0000   0.0000

          k = 0.0000 0.1732 0.0000 (  4322 PWs)   bands (ev):

   -20.7930  -8.2669  -6.6376  -5.7507   1.4755   2.5067   3.2989   4.9079

     occupation numbers 
     1.0000   1.0000   1.0000   1.0000   0.0000   0.0000   0.0000   0.0000

          k = 0.0000 0.2309 0.0000 (  4324 PWs)   bands (ev):

   -20.4730  -7.8310  -7.6451  -6.1813   2.0176   2.9950   3.8506   5.3008

     occupation numbers 
     1.0000   1.0000   1.0000   1.0000   0.0000   0.0000   0.0000   0.0000

          k = 0.0000 0.2887 0.0000 (  4354 PWs)   bands (ev):

   -20.0767  -8.7255  -7.2875  -6.6136   2.6999   3.5363   4.5548   5.4428

     occupation numbers 
     1.0000   1.0000   1.0000   1.0000   0.0000   0.0000   0.0000   0.0000

          k = 0.0000 0.3464 0.0000 (  4362 PWs)   bands (ev):

   -19.6206  -9.8020  -7.0072  -6.6548   3.5133   3.7311   5.3402   5.4030

     occupation numbers 
     1.0000   1.0000   1.0000   1.0000   0.0000   0.0000   0.0000   0.0000

          k = 0.0000 0.4041 0.0000 (  4386 PWs)   bands (ev):

   -19.1342 -10.8056  -7.3360  -5.9674   3.0763   4.4314   5.9586   6.3358

     occupation numbers 
     1.0000   1.0000   1.0000   1.0000   0.0000   0.0000   0.0000   0.0000

          k = 0.0000 0.4619 0.0000 (  4398 PWs)   bands (ev):

   -18.6692 -11.6559  -7.5823  -5.2899   2.1834   5.3540   6.9242   6.9870

     occupation numbers 
     1.0000   1.0000   1.0000   1.0000   0.0000   0.0000   0.0000   0.0000

          k = 0.0000 0.5196 0.0000 (  4380 PWs)   bands (ev):

   -18.3121 -12.2501  -7.7337  -4.7462   1.4652   5.9582   7.5680   8.1937

     occupation numbers 
     1.0000   1.0000   1.0000   1.0000   0.0000   0.0000   0.0000   0.0000

          k = 0.0000-0.5774 0.0000 (  4348 PWs)   bands (ev):

   -18.1736 -12.4679  -7.7843  -4.5273   1.1823   6.1063   8.5123   8.9998

     occupation numbers 
     1.0000   1.0000   1.0000   1.0000   0.0000   0.0000   0.0000   0.0000

          k = 0.0500 0.0866 0.0000 (  4331 PWs)   bands (ev):

   -21.0744  -8.6483  -5.5992  -5.3005   0.9980   2.0694   2.8226   4.5022

     occupation numbers 
     1.0000   1.0000   1.0000   1.0000   0.0000   0.0000   0.0000   0.0000

          k = 0.0500 0.1443 0.0000 (  4326 PWs)   bands (ev):

   -20.8861  -8.3933  -6.2843  -5.6438   1.3189   2.3623   3.1408   4.7769

     occupation numbers 
     1.0000   1.0000   1.0000   1.0000   0.0000   0.0000   0.0000   0.0000

          k = 0.0500 0.2021 0.0000 (  4337 PWs)   bands (ev):

   -20.6089  -8.0167  -7.1866  -6.0716   1.7891   2.7899   3.6155   5.1499

     occupation numbers 
     1.0000   1.0000   1.0000   1.0000   0.0000   0.0000   0.0000   0.0000

          k = 0.0500 0.2598 0.0000 (  4341 PWs)   bands (ev):

   -20.2502  -8.2119  -7.5263  -6.5213   2.4032   3.3167   4.2445   5.4567

     occupation numbers 
     1.0000   1.0000   1.0000   1.0000   0.0000   0.0000   0.0000   0.0000

          k = 0.0500 0.3175 0.0000 (  4345 PWs)   bands (ev):

   -19.8226  -9.2779  -6.9471  -6.9365   3.1552   3.7572   5.0243   5.3456

     occupation numbers 
     1.0000   1.0000   1.0000   1.0000   0.0000   0.0000   0.0000   0.0000

          k = 0.0500 0.3753 0.0000 (  4369 PWs)   bands (ev):

   -19.3484 -10.3117  -7.3173  -6.2728   3.4681   4.0318   5.6082   5.9392

     occupation numbers 
     1.0000   1.0000   1.0000   1.0000   0.0000   0.0000   0.0000   0.0000

          k = 0.0500 0.4330 0.0000 (  4390 PWs)   bands (ev):

   -18.8665 -11.2390  -7.6102  -5.5818   2.6201   4.9902   6.4921   6.8312

     occupation numbers 
     1.0000   1.0000   1.0000   1.0000   0.0000   0.0000   0.0000   0.0000

          k = 0.0500 0.4907 0.0000 (  4380 PWs)   bands (ev):

   -18.4446 -11.9686  -7.8119  -4.9528   1.7880   5.8562   7.3067   7.6209

     occupation numbers 
     1.0000   1.0000   1.0000   1.0000   0.0000   0.0000   0.0000   0.0000

          k = 0.0500 0.5485 0.0000 (  4364 PWs)   bands (ev):

   -18.1855 -12.3843  -7.9145  -4.5492   1.2641   6.2615   8.1544   8.8513

     occupation numbers 
     1.0000   1.0000   1.0000   1.0000   0.0000   0.0000   0.0000   0.0000

          k = 0.1000 0.1732 0.0000 (  4342 PWs)   bands (ev):

   -20.6546  -8.0790  -6.9873  -6.0789   1.7138   2.7202   3.5374   5.0935

     occupation numbers 
     1.0000   1.0000   1.0000   1.0000   0.0000   0.0000   0.0000   0.0000

          k = 0.1000 0.2309 0.0000 (  4348 PWs)   bands (ev):

   -20.3381  -7.8538  -7.6472  -6.5799   2.2578   3.1942   4.0903   5.4216

     occupation numbers 
     1.0000   1.0000   1.0000   1.0000   0.0000   0.0000   0.0000   0.0000

          k = 0.1000 0.2887 0.0000 (  4351 PWs)   bands (ev):

   -19.9467  -8.8221  -7.1088  -7.0679   2.9457   3.6854   4.7976   5.4315

     occupation numbers 
     1.0000   1.0000   1.0000   1.0000   0.0000   0.0000   0.0000   0.0000

          k = 0.1000 0.3464 0.0000 (  4367 PWs)   bands (ev):

   -19.4972  -9.8185  -7.5000  -6.4834   3.7223   3.7704   5.4476   5.6549

     occupation numbers 
     1.0000   1.0000   1.0000   1.0000   0.0000   0.0000   0.0000   0.0000

          k = 0.1000 0.4041 0.0000 (  4377 PWs)   bands (ev):

   -19.0190 -10.7648  -7.8528  -5.8049   3.0256   4.7157   6.1494   6.6415

     occupation numbers 
     1.0000   1.0000   1.0000   1.0000   0.0000   0.0000   0.0000   0.0000

          k = 0.1000 0.4619 0.0000 (  4372 PWs)   bands (ev):

   -18.5636 -11.5757  -8.1123  -5.1374   2.1691   5.7260   7.1784   7.5034

     occupation numbers 
     1.0000   1.0000   1.0000   1.0000   0.0000   0.0000   0.0000   0.0000

          k = 0.1000 0.5196 0.0000 (  4360 PWs)   bands (ev):

   -18.2158 -12.1444  -8.2707  -4.6045   1.4837   6.5650   7.9752   8.3536

     occupation numbers 
     1.0000   1.0000   1.0000   1.0000   0.0000   0.0000   0.0000   0.0000

          k = 0.1000 0.5774 0.0000 (  4360 PWs)   bands (ev):

   -18.0815 -12.3533  -8.3244  -4.3902   1.2134   6.8350   8.7181   9.3042

     occupation numbers 
     1.0000   1.0000   1.0000   1.0000   0.0000   0.0000   0.0000   0.0000

          k = 0.1500 0.2598 0.0000 (  4350 PWs)   bands (ev):

   -19.9884  -8.6164  -7.1670  -7.1662   2.8767   3.6491   4.7221   5.4664

     occupation numbers 
     1.0000   1.0000   1.0000   1.0000   0.0000   0.0000   0.0000   0.0000

          k = 0.1500 0.3175 0.0000 (  4369 PWs)   bands (ev):

   -19.5733  -9.4567  -7.7210  -6.5909   3.6399   3.8265   5.4144   5.5085

     occupation numbers 
     1.0000   1.0000   1.0000   1.0000   0.0000   0.0000   0.0000   0.0000

          k = 0.1500 0.3753 0.0000 (  4368 PWs)   bands (ev):

   -19.1150 -10.3235  -8.1820  -5.9444   3.3159   4.5392   5.9569   6.4449

     occupation numbers 
     1.0000   1.0000   1.0000   1.0000   0.0000   0.0000   0.0000   0.0000

          k = 0.1500 0.4330 0.0000 (  4371 PWs)   bands (ev):

   -18.6527 -11.1346  -8.5308  -5.2749   2.5183   5.5563   6.8788   7.5094

     occupation numbers 
     1.0000   1.0000   1.0000   1.0000   0.0000   0.0000   0.0000   0.0000

          k = 0.1500 0.4907 0.0000 (  4373 PWs)   bands (ev):

   -18.2522 -11.7872  -8.7639  -4.6703   1.7690   6.6278   7.9617   8.3775

     occupation numbers 
     1.0000   1.0000   1.0000   1.0000   0.0000   0.0000   0.0000   0.0000

          k = 0.1500 0.5485 0.0000 (  4363 PWs)   bands (ev):

   -18.0089 -12.1618  -8.8805  -4.2846   1.2978   7.4575   8.7783   9.0138

     occupation numbers 
     1.0000   1.0000   1.0000   1.0000   0.0000   0.0000   0.0000   0.0000

          k = 0.2000 0.3464 0.0000 (  4386 PWs)   bands (ev):

   -19.1478 -10.1159  -8.3585  -5.9922   3.4210   4.4783   5.8971   6.3741

     occupation numbers 
     1.0000   1.0000   1.0000   1.0000   0.0000   0.0000   0.0000   0.0000

          k = 0.2000 0.4041 0.0000 (  4384 PWs)   bands (ev):

   -18.7002 -10.7851  -8.8836  -5.3475   2.7318   5.4507   6.7278   7.3896

     occupation numbers 
     1.0000   1.0000   1.0000   1.0000   0.0000   0.0000   0.0000   0.0000

          k = 0.2000 0.4619 0.0000 (  4373 PWs)   bands (ev):

   -18.2808 -11.4002  -9.2550  -4.7209   2.0151   6.5351   7.7093   8.5312

     occupation numbers 
     1.0000   1.0000   1.0000   1.0000   0.0000   0.0000   0.0000   0.0000

          k = 0.2000 0.5196 0.0000 (  4367 PWs)   bands (ev):

   -17.9667 -11.8499  -9.4726  -4.2274   1.4493   7.6539   8.6487   9.3241

     occupation numbers 
     1.0000   1.0000   1.0000   1.0000   0.0000   0.0000   0.0000   0.0000

          k = 0.2000 0.5774 0.0000 (  4374 PWs)   bands (ev):

   -17.8473 -12.0179  -9.5442  -4.0311   1.2264   8.3376   9.0798   9.3551

     occupation numbers 
     1.0000   1.0000   1.0000   1.0000   0.0000   0.0000   0.0000   0.0000

          k = 0.2500 0.4330 0.0000 (  4370 PWs)   bands (ev):

   -18.2915 -11.2003  -9.4936  -4.7394   2.1133   6.4898   7.6210   8.4814

     occupation numbers 
     1.0000   1.0000   1.0000   1.0000   0.0000   0.0000   0.0000   0.0000

          k = 0.2500 0.4907 0.0000 (  4374 PWs)   bands (ev):

   -17.9483 -11.5459  -9.9274  -4.2045   1.5664   7.6218   8.4249   9.6702

     occupation numbers 
     1.0000   1.0000   1.0000   1.0000   0.0000   0.0000   0.0000   0.0000

          k = 0.2500 0.5485 0.0000 (  4349 PWs)   bands (ev):

   -17.7459 -11.7543 -10.1453  -3.8717   1.2272   8.7014   8.7815   9.9603

     occupation numbers 
     1.0000   1.0000   1.0000   1.0000   0.0000   0.0000   0.0000   0.0000

          k = 0.3000 0.5196 0.0000 (  4352 PWs)   bands (ev):

   -17.7117 -11.5735 -10.4432  -3.8180   1.2379   8.6413   8.7288  10.3774

     occupation numbers 
     1.0000   1.0000   1.0000   1.0000   0.0000   0.0000   0.0000   0.0000

          k = 0.3000 0.5774 0.0000 (  4374 PWs)   bands (ev):

   -17.6254 -11.5541 -10.6552  -3.6708   1.1132   8.6199   9.3839  10.4361

     occupation numbers 
     1.0000   1.0000   1.0000   1.0000   0.0000   0.0000   0.0000   0.0000

     the Fermi energy is    -1.2637 ev
     (compare with:    -1.2453 eV, computed in scf)

     Writing all to output data dir ./tmp20/hBN_1l_PBE_vdW.save/

     init_run     :      9.24s CPU      9.29s WALL (       1 calls)
     electrons    :      2.27s CPU      2.52s WALL (       1 calls)

     Called by init_run:
     wfcinit      :      0.00s CPU      0.00s WALL (       1 calls)
     wfcinit:atom :      0.00s CPU      0.00s WALL (      44 calls)
     wfcinit:wfcr :      0.11s CPU      0.12s WALL (      44 calls)
     potinit      :      8.93s CPU      8.97s WALL (       1 calls)
     hinit0       :      0.29s CPU      0.30s WALL (       1 calls)

     Called by electrons:
     c_bands      :      2.27s CPU      2.52s WALL (       1 calls)
     v_of_rho     :      8.93s CPU      8.97s WALL (       1 calls)
     v_h          :      0.00s CPU      0.00s WALL (       1 calls)
     v_xc         :      8.93s CPU      8.97s WALL (       1 calls)
     vdW_kernel   :      8.89s CPU      8.93s WALL (       1 calls)

     Called by c_bands:
     init_us_2    :      0.00s CPU      0.00s WALL (      44 calls)
     init_us_2:cp :      0.00s CPU      0.00s WALL (      44 calls)
     cegterg      :      2.13s CPU      2.37s WALL (      72 calls)

     Called by sum_band:

     Called by *egterg:
     cdiaghg      :      0.10s CPU      0.11s WALL (    1029 calls)
     cegterg:over :      0.15s CPU      0.16s WALL (     985 calls)
     cegterg:upda :      0.14s CPU      0.20s WALL (     985 calls)
     cegterg:last :      0.14s CPU      0.18s WALL (     577 calls)
     h_psi        :      1.58s CPU      1.69s WALL (    1101 calls)
     g_psi        :      0.02s CPU      0.03s WALL (     985 calls)

     Called by h_psi:
     h_psi:calbec :      0.08s CPU      0.08s WALL (    1101 calls)
     vloc_psi     :      1.39s CPU      1.45s WALL (    1101 calls)
     add_vuspsi   :      0.09s CPU      0.14s WALL (    1101 calls)

     General routines
     calbec       :      0.08s CPU      0.08s WALL (    1101 calls)
     fft          :      0.26s CPU      0.27s WALL (      61 calls)
     fftw         :      1.27s CPU      1.31s WALL (   10018 calls)
     davcio       :      0.00s CPU      0.00s WALL (      88 calls)

     Parallel routines

     PWSCF        :     11.66s CPU     12.01s WALL


   This run was terminated on:  12:29:54  16Apr2024            

=------------------------------------------------------------------------------=
   JOB DONE.
=------------------------------------------------------------------------------=
