
     Program PWSCF v.7.2 starts on 16Apr2024 at 12:30:35 

     This program is part of the open-source Quantum ESPRESSO suite
     for quantum simulation of materials; please cite
         "P. Giannozzi et al., J. Phys.:Condens. Matter 21 395502 (2009);
         "P. Giannozzi et al., J. Phys.:Condens. Matter 29 465901 (2017);
         "P. Giannozzi et al., J. Chem. Phys. 152 154105 (2020);
          URL http://www.quantum-espresso.org", 
     in publications or presentations arising from this work. More details at
     http://www.quantum-espresso.org/quote

     Parallel version (MPI & OpenMP), running on       8 processor cores
     Number of MPI processes:                 8
     Threads/MPI process:                     1

     MPI processes distributed on     1 nodes
     0 MiB available memory on the printing compute node when the environment starts

     Waiting for input...
     Reading input from standard input
Warning: card / ignored
Warning: card $IONS ignored
Warning: card / ignored
Warning: card $CELL ignored
Warning: card / ignored

     Current dimensions of program PWSCF are:
     Max number of different atomic species (ntypx) = 10
     Max number of k-points (npk) =  40000
     Max angular momentum in pseudopotentials (lmaxx) =  4

     Atomic positions and unit cell read from directory:
     ./tmp50/hBN_1l_PBE_vdW.save/
     Atomic positions from file used, from input discarded


     IMPORTANT: XC functional enforced from input :
     Exchange-correlation= VDW-DF2-B86R
                           (   1   4  26   0   2   0   0)
     Any further DFT definition will be discarded
     Please, verify this is what you really want


     R & G space division:  proc/nbgrp/npool/nimage =       8
     Subspace diagonalization in iterative solution of the eigenvalue problem:
     a serial algorithm will be used


     Parallelization info
     --------------------
     sticks:   dense  smooth     PW     G-vecs:    dense   smooth      PW
     Min          45      45     15                 4333     4333     755
     Max          46      46     16                 4356     4356     767
     Sum         367     367    121                34803    34803    6103

     Using Slab Decomposition



     bravais-lattice index     =            4
     lattice parameter (alat)  =       4.7470  a.u.
     unit-cell volume          =     555.8269 (a.u.)^3
     number of atoms/cell      =            2
     number of atomic types    =            2
     number of electrons       =         8.00
     number of Kohn-Sham states=            8
     kinetic-energy cutoff     =      60.0000  Ry
     charge density cutoff     =     240.0000  Ry
     Exchange-correlation= VDW-DF2-B86R
                           (   1   4  26   0   2   0   0)

     celldm(1)=   4.747000  celldm(2)=   0.000000  celldm(3)=   6.000000
     celldm(4)=   0.000000  celldm(5)=   0.000000  celldm(6)=   0.000000

     crystal axes: (cart. coord. in units of alat)
               a(1) = (   1.000000   0.000000   0.000000 )  
               a(2) = (  -0.500000   0.866025   0.000000 )  
               a(3) = (   0.000000   0.000000   6.000000 )  

     reciprocal axes: (cart. coord. in units 2 pi/alat)
               b(1) = (  1.000000  0.577350 -0.000000 )  
               b(2) = (  0.000000  1.154701  0.000000 )  
               b(3) = (  0.000000 -0.000000  0.166667 )  


     PseudoPot. # 1 for N  read from file:
     ../../../Pseudo/PBE/N.upf
     MD5 check sum: d34365f73bb0e2ee98afc20ec3e87676
     Pseudo is Norm-conserving + core correction, Zval =  5.0
     Generated using ONCVPSP code by D. R. Hamann
     Using radial grid of 1058 points,  4 beta functions with: 
                l(1) =   0
                l(2) =   0
                l(3) =   1
                l(4) =   1

     PseudoPot. # 2 for B  read from file:
     ../../../Pseudo/PBE/B.upf
     MD5 check sum: 72f82fc31bc892420d0cab7e25c88ab8
     Pseudo is Norm-conserving + core correction, Zval =  3.0
     Generated using ONCVPSP code by D. R. Hamann
     Using radial grid of 1534 points,  4 beta functions with: 
                l(1) =   0
                l(2) =   0
                l(3) =   1
                l(4) =   1

     atomic species   valence    mass     pseudopotential
        N              5.00    14.00670     N ( 1.00)
        B              3.00    10.80100     B ( 1.00)

     12 Sym. Ops. (no inversion) found


                                    s                        frac. trans.

      isym =  1     identity                                     

 cryst.   s( 1) = (     1          0          0      )
                  (     0          1          0      )
                  (     0          0          1      )

 cart.    s( 1) = (  1.0000000  0.0000000  0.0000000 )
                  (  0.0000000  1.0000000  0.0000000 )
                  (  0.0000000  0.0000000  1.0000000 )


      isym =  2     180 deg rotation - cart. axis [0,1,0]        

 cryst.   s( 2) = (    -1          0          0      )
                  (     1          1          0      )
                  (     0          0         -1      )

 cart.    s( 2) = ( -1.0000000  0.0000000  0.0000000 )
                  (  0.0000000  1.0000000  0.0000000 )
                  (  0.0000000  0.0000000 -1.0000000 )


      isym =  3     120 deg rotation - cryst. axis [0,0,1]       

 cryst.   s( 3) = (     0          1          0      )
                  (    -1         -1          0      )
                  (     0          0          1      )

 cart.    s( 3) = ( -0.5000000 -0.8660254  0.0000000 )
                  (  0.8660254 -0.5000000  0.0000000 )
                  (  0.0000000  0.0000000  1.0000000 )


      isym =  4     120 deg rotation - cryst. axis [0,0,-1]      

 cryst.   s( 4) = (    -1         -1          0      )
                  (     1          0          0      )
                  (     0          0          1      )

 cart.    s( 4) = ( -0.5000000  0.8660254  0.0000000 )
                  ( -0.8660254 -0.5000000  0.0000000 )
                  (  0.0000000  0.0000000  1.0000000 )


      isym =  5     180 deg rotation - cryst. axis [1,-1,0]      

 cryst.   s( 5) = (     0         -1          0      )
                  (    -1          0          0      )
                  (     0          0         -1      )

 cart.    s( 5) = (  0.5000000 -0.8660254  0.0000000 )
                  ( -0.8660254 -0.5000000  0.0000000 )
                  (  0.0000000  0.0000000 -1.0000000 )


      isym =  6     180 deg rotation - cryst. axis [2,1,0]       

 cryst.   s( 6) = (     1          1          0      )
                  (     0         -1          0      )
                  (     0          0         -1      )

 cart.    s( 6) = (  0.5000000  0.8660254  0.0000000 )
                  (  0.8660254 -0.5000000  0.0000000 )
                  (  0.0000000  0.0000000 -1.0000000 )


      isym =  7     inv. 180 deg rotation - cart. axis [0,0,1]   

 cryst.   s( 7) = (     1          0          0      )
                  (     0          1          0      )
                  (     0          0         -1      )

 cart.    s( 7) = (  1.0000000  0.0000000  0.0000000 )
                  (  0.0000000  1.0000000  0.0000000 )
                  (  0.0000000  0.0000000 -1.0000000 )


      isym =  8     inv. 180 deg rotation - cart. axis [1,0,0]   

 cryst.   s( 8) = (    -1          0          0      )
                  (     1          1          0      )
                  (     0          0          1      )

 cart.    s( 8) = ( -1.0000000  0.0000000  0.0000000 )
                  (  0.0000000  1.0000000  0.0000000 )
                  (  0.0000000  0.0000000  1.0000000 )


      isym =  9     inv.  60 deg rotation - cryst. axis [0,0,1]  

 cryst.   s( 9) = (    -1         -1          0      )
                  (     1          0          0      )
                  (     0          0         -1      )

 cart.    s( 9) = ( -0.5000000  0.8660254  0.0000000 )
                  ( -0.8660254 -0.5000000  0.0000000 )
                  (  0.0000000  0.0000000 -1.0000000 )


      isym = 10     inv.  60 deg rotation - cryst. axis [0,0,-1] 

 cryst.   s(10) = (     0          1          0      )
                  (    -1         -1          0      )
                  (     0          0         -1      )

 cart.    s(10) = ( -0.5000000 -0.8660254  0.0000000 )
                  (  0.8660254 -0.5000000  0.0000000 )
                  (  0.0000000  0.0000000 -1.0000000 )


      isym = 11     inv. 180 deg rotation - cryst. axis [0,1,0]  

 cryst.   s(11) = (     1          1          0      )
                  (     0         -1          0      )
                  (     0          0          1      )

 cart.    s(11) = (  0.5000000  0.8660254  0.0000000 )
                  (  0.8660254 -0.5000000  0.0000000 )
                  (  0.0000000  0.0000000  1.0000000 )


      isym = 12     inv. 180 deg rotation - cryst. axis [1,1,0]  

 cryst.   s(12) = (     0         -1          0      )
                  (    -1          0          0      )
                  (     0          0          1      )

 cart.    s(12) = (  0.5000000 -0.8660254  0.0000000 )
                  ( -0.8660254 -0.5000000  0.0000000 )
                  (  0.0000000  0.0000000  1.0000000 )


     point group D_3h (-62m)
     there are  6 classes
     the character table:

       E     2C3   3C2   s_h   2S3   3s_v 
A'_1   1.00  1.00  1.00  1.00  1.00  1.00
A'_2   1.00  1.00 -1.00  1.00  1.00 -1.00
E'     2.00 -1.00  0.00  2.00 -1.00  0.00
A''1   1.00  1.00  1.00 -1.00 -1.00 -1.00
A''2   1.00  1.00 -1.00 -1.00 -1.00  1.00
E''    2.00 -1.00  0.00 -2.00  1.00  0.00

     the symmetry operations in each class and the name of the first element:

     E        1
          identity                                               
     2C3      3    4
          120 deg rotation - cryst. axis [0,0,1]                 
     3C2      2    6    5
          180 deg rotation - cart. axis [0,1,0]                  
     s_h      7
          inv. 180 deg rotation - cart. axis [0,0,1]             
     2S3      9   10
          inv.  60 deg rotation - cryst. axis [0,0,1]            
     3s_v     8   11   12
          inv. 180 deg rotation - cart. axis [1,0,0]             

   Cartesian axes

     site n.     atom                  positions (alat units)
         1           B   tau(   1) = (   0.0000000   0.0000000   0.0000000  )
         2           N   tau(   2) = (  -0.0000000   0.5773503   0.0000000  )

   Crystallographic axes

     site n.     atom                  positions (cryst. coord.)
         1           B   tau(   1) = (  0.0000000  0.0000000  0.0000000  )
         2           N   tau(   2) = (  0.3333333  0.6666667  0.0000000  )

     number of k points=   234  Marzari-Vanderbilt smearing, width (Ry)=  0.0050
                       cart. coord. in units 2pi/alat
        k(    1) = (   0.0000000   0.0000000   0.0000000), wk =   0.0008000
        k(    2) = (   0.0000000   0.0230940   0.0000000), wk =   0.0048000
        k(    3) = (   0.0000000   0.0461880   0.0000000), wk =   0.0048000
        k(    4) = (   0.0000000   0.0692820   0.0000000), wk =   0.0048000
        k(    5) = (   0.0000000   0.0923760   0.0000000), wk =   0.0048000
        k(    6) = (   0.0000000   0.1154701   0.0000000), wk =   0.0048000
        k(    7) = (   0.0000000   0.1385641   0.0000000), wk =   0.0048000
        k(    8) = (   0.0000000   0.1616581   0.0000000), wk =   0.0048000
        k(    9) = (   0.0000000   0.1847521   0.0000000), wk =   0.0048000
        k(   10) = (   0.0000000   0.2078461   0.0000000), wk =   0.0048000
        k(   11) = (   0.0000000   0.2309401   0.0000000), wk =   0.0048000
        k(   12) = (   0.0000000   0.2540341   0.0000000), wk =   0.0048000
        k(   13) = (   0.0000000   0.2771281   0.0000000), wk =   0.0048000
        k(   14) = (   0.0000000   0.3002221   0.0000000), wk =   0.0048000
        k(   15) = (   0.0000000   0.3233162   0.0000000), wk =   0.0048000
        k(   16) = (   0.0000000   0.3464102   0.0000000), wk =   0.0048000
        k(   17) = (   0.0000000   0.3695042   0.0000000), wk =   0.0048000
        k(   18) = (   0.0000000   0.3925982   0.0000000), wk =   0.0048000
        k(   19) = (   0.0000000   0.4156922   0.0000000), wk =   0.0048000
        k(   20) = (   0.0000000   0.4387862   0.0000000), wk =   0.0048000
        k(   21) = (   0.0000000   0.4618802   0.0000000), wk =   0.0048000
        k(   22) = (   0.0000000   0.4849742   0.0000000), wk =   0.0048000
        k(   23) = (   0.0000000   0.5080682   0.0000000), wk =   0.0048000
        k(   24) = (   0.0000000   0.5311622   0.0000000), wk =   0.0048000
        k(   25) = (   0.0000000   0.5542563   0.0000000), wk =   0.0048000
        k(   26) = (   0.0000000  -0.5773503   0.0000000), wk =   0.0024000
        k(   27) = (   0.0200000   0.0346410   0.0000000), wk =   0.0048000
        k(   28) = (   0.0200000   0.0577350   0.0000000), wk =   0.0096000
        k(   29) = (   0.0200000   0.0808290   0.0000000), wk =   0.0096000
        k(   30) = (   0.0200000   0.1039230   0.0000000), wk =   0.0096000
        k(   31) = (   0.0200000   0.1270171   0.0000000), wk =   0.0096000
        k(   32) = (   0.0200000   0.1501111   0.0000000), wk =   0.0096000
        k(   33) = (   0.0200000   0.1732051   0.0000000), wk =   0.0096000
        k(   34) = (   0.0200000   0.1962991   0.0000000), wk =   0.0096000
        k(   35) = (   0.0200000   0.2193931   0.0000000), wk =   0.0096000
        k(   36) = (   0.0200000   0.2424871   0.0000000), wk =   0.0096000
        k(   37) = (   0.0200000   0.2655811   0.0000000), wk =   0.0096000
        k(   38) = (   0.0200000   0.2886751   0.0000000), wk =   0.0096000
        k(   39) = (   0.0200000   0.3117691   0.0000000), wk =   0.0096000
        k(   40) = (   0.0200000   0.3348632   0.0000000), wk =   0.0096000
        k(   41) = (   0.0200000   0.3579572   0.0000000), wk =   0.0096000
        k(   42) = (   0.0200000   0.3810512   0.0000000), wk =   0.0096000
        k(   43) = (   0.0200000   0.4041452   0.0000000), wk =   0.0096000
        k(   44) = (   0.0200000   0.4272392   0.0000000), wk =   0.0096000
        k(   45) = (   0.0200000   0.4503332   0.0000000), wk =   0.0096000
        k(   46) = (   0.0200000   0.4734272   0.0000000), wk =   0.0096000
        k(   47) = (   0.0200000   0.4965212   0.0000000), wk =   0.0096000
        k(   48) = (   0.0200000   0.5196152   0.0000000), wk =   0.0096000
        k(   49) = (   0.0200000   0.5427093   0.0000000), wk =   0.0096000
        k(   50) = (   0.0200000   0.5658033   0.0000000), wk =   0.0096000
        k(   51) = (   0.0400000   0.0692820   0.0000000), wk =   0.0048000
        k(   52) = (   0.0400000   0.0923760   0.0000000), wk =   0.0096000
        k(   53) = (   0.0400000   0.1154701   0.0000000), wk =   0.0096000
        k(   54) = (   0.0400000   0.1385641   0.0000000), wk =   0.0096000
        k(   55) = (   0.0400000   0.1616581   0.0000000), wk =   0.0096000
        k(   56) = (   0.0400000   0.1847521   0.0000000), wk =   0.0096000
        k(   57) = (   0.0400000   0.2078461   0.0000000), wk =   0.0096000
        k(   58) = (   0.0400000   0.2309401   0.0000000), wk =   0.0096000
        k(   59) = (   0.0400000   0.2540341   0.0000000), wk =   0.0096000
        k(   60) = (   0.0400000   0.2771281   0.0000000), wk =   0.0096000
        k(   61) = (   0.0400000   0.3002221   0.0000000), wk =   0.0096000
        k(   62) = (   0.0400000   0.3233162   0.0000000), wk =   0.0096000
        k(   63) = (   0.0400000   0.3464102   0.0000000), wk =   0.0096000
        k(   64) = (   0.0400000   0.3695042   0.0000000), wk =   0.0096000
        k(   65) = (   0.0400000   0.3925982   0.0000000), wk =   0.0096000
        k(   66) = (   0.0400000   0.4156922   0.0000000), wk =   0.0096000
        k(   67) = (   0.0400000   0.4387862   0.0000000), wk =   0.0096000
        k(   68) = (   0.0400000   0.4618802   0.0000000), wk =   0.0096000
        k(   69) = (   0.0400000   0.4849742   0.0000000), wk =   0.0096000
        k(   70) = (   0.0400000   0.5080682   0.0000000), wk =   0.0096000
        k(   71) = (   0.0400000   0.5311622   0.0000000), wk =   0.0096000
        k(   72) = (   0.0400000   0.5542563   0.0000000), wk =   0.0096000
        k(   73) = (   0.0400000   0.5773503   0.0000000), wk =   0.0048000
        k(   74) = (   0.0600000   0.1039230   0.0000000), wk =   0.0048000
        k(   75) = (   0.0600000   0.1270171   0.0000000), wk =   0.0096000
        k(   76) = (   0.0600000   0.1501111   0.0000000), wk =   0.0096000
        k(   77) = (   0.0600000   0.1732051   0.0000000), wk =   0.0096000
        k(   78) = (   0.0600000   0.1962991   0.0000000), wk =   0.0096000
        k(   79) = (   0.0600000   0.2193931   0.0000000), wk =   0.0096000
        k(   80) = (   0.0600000   0.2424871   0.0000000), wk =   0.0096000
        k(   81) = (   0.0600000   0.2655811   0.0000000), wk =   0.0096000
        k(   82) = (   0.0600000   0.2886751   0.0000000), wk =   0.0096000
        k(   83) = (   0.0600000   0.3117691   0.0000000), wk =   0.0096000
        k(   84) = (   0.0600000   0.3348632   0.0000000), wk =   0.0096000
        k(   85) = (   0.0600000   0.3579572   0.0000000), wk =   0.0096000
        k(   86) = (   0.0600000   0.3810512   0.0000000), wk =   0.0096000
        k(   87) = (   0.0600000   0.4041452   0.0000000), wk =   0.0096000
        k(   88) = (   0.0600000   0.4272392   0.0000000), wk =   0.0096000
        k(   89) = (   0.0600000   0.4503332   0.0000000), wk =   0.0096000
        k(   90) = (   0.0600000   0.4734272   0.0000000), wk =   0.0096000
        k(   91) = (   0.0600000   0.4965212   0.0000000), wk =   0.0096000
        k(   92) = (   0.0600000   0.5196152   0.0000000), wk =   0.0096000
        k(   93) = (   0.0600000   0.5427093   0.0000000), wk =   0.0096000
        k(   94) = (   0.0600000   0.5658033   0.0000000), wk =   0.0096000
        k(   95) = (   0.0800000   0.1385641   0.0000000), wk =   0.0048000
        k(   96) = (   0.0800000   0.1616581   0.0000000), wk =   0.0096000
        k(   97) = (   0.0800000   0.1847521   0.0000000), wk =   0.0096000
        k(   98) = (   0.0800000   0.2078461   0.0000000), wk =   0.0096000
        k(   99) = (   0.0800000   0.2309401   0.0000000), wk =   0.0096000
        k(  100) = (   0.0800000   0.2540341   0.0000000), wk =   0.0096000
        k(  101) = (   0.0800000   0.2771281   0.0000000), wk =   0.0096000
        k(  102) = (   0.0800000   0.3002221   0.0000000), wk =   0.0096000
        k(  103) = (   0.0800000   0.3233162   0.0000000), wk =   0.0096000
        k(  104) = (   0.0800000   0.3464102   0.0000000), wk =   0.0096000
        k(  105) = (   0.0800000   0.3695042   0.0000000), wk =   0.0096000
        k(  106) = (   0.0800000   0.3925982   0.0000000), wk =   0.0096000
        k(  107) = (   0.0800000   0.4156922   0.0000000), wk =   0.0096000
        k(  108) = (   0.0800000   0.4387862   0.0000000), wk =   0.0096000
        k(  109) = (   0.0800000   0.4618802   0.0000000), wk =   0.0096000
        k(  110) = (   0.0800000   0.4849742   0.0000000), wk =   0.0096000
        k(  111) = (   0.0800000   0.5080682   0.0000000), wk =   0.0096000
        k(  112) = (   0.0800000   0.5311622   0.0000000), wk =   0.0096000
        k(  113) = (   0.0800000   0.5542563   0.0000000), wk =   0.0096000
        k(  114) = (   0.0800000   0.5773503   0.0000000), wk =   0.0048000
        k(  115) = (   0.1000000   0.1732051   0.0000000), wk =   0.0048000
        k(  116) = (   0.1000000   0.1962991   0.0000000), wk =   0.0096000
        k(  117) = (   0.1000000   0.2193931   0.0000000), wk =   0.0096000
        k(  118) = (   0.1000000   0.2424871   0.0000000), wk =   0.0096000
        k(  119) = (   0.1000000   0.2655811   0.0000000), wk =   0.0096000
        k(  120) = (   0.1000000   0.2886751   0.0000000), wk =   0.0096000
        k(  121) = (   0.1000000   0.3117691   0.0000000), wk =   0.0096000
        k(  122) = (   0.1000000   0.3348632   0.0000000), wk =   0.0096000
        k(  123) = (   0.1000000   0.3579572   0.0000000), wk =   0.0096000
        k(  124) = (   0.1000000   0.3810512   0.0000000), wk =   0.0096000
        k(  125) = (   0.1000000   0.4041452   0.0000000), wk =   0.0096000
        k(  126) = (   0.1000000   0.4272392   0.0000000), wk =   0.0096000
        k(  127) = (   0.1000000   0.4503332   0.0000000), wk =   0.0096000
        k(  128) = (   0.1000000   0.4734272   0.0000000), wk =   0.0096000
        k(  129) = (   0.1000000   0.4965212   0.0000000), wk =   0.0096000
        k(  130) = (   0.1000000   0.5196152   0.0000000), wk =   0.0096000
        k(  131) = (   0.1000000   0.5427093   0.0000000), wk =   0.0096000
        k(  132) = (   0.1000000   0.5658033   0.0000000), wk =   0.0096000
        k(  133) = (   0.1200000   0.2078461   0.0000000), wk =   0.0048000
        k(  134) = (   0.1200000   0.2309401   0.0000000), wk =   0.0096000
        k(  135) = (   0.1200000   0.2540341   0.0000000), wk =   0.0096000
        k(  136) = (   0.1200000   0.2771281   0.0000000), wk =   0.0096000
        k(  137) = (   0.1200000   0.3002221   0.0000000), wk =   0.0096000
        k(  138) = (   0.1200000   0.3233162   0.0000000), wk =   0.0096000
        k(  139) = (   0.1200000   0.3464102   0.0000000), wk =   0.0096000
        k(  140) = (   0.1200000   0.3695042   0.0000000), wk =   0.0096000
        k(  141) = (   0.1200000   0.3925982   0.0000000), wk =   0.0096000
        k(  142) = (   0.1200000   0.4156922   0.0000000), wk =   0.0096000
        k(  143) = (   0.1200000   0.4387862   0.0000000), wk =   0.0096000
        k(  144) = (   0.1200000   0.4618802   0.0000000), wk =   0.0096000
        k(  145) = (   0.1200000   0.4849742   0.0000000), wk =   0.0096000
        k(  146) = (   0.1200000   0.5080682   0.0000000), wk =   0.0096000
        k(  147) = (   0.1200000   0.5311622   0.0000000), wk =   0.0096000
        k(  148) = (   0.1200000   0.5542563   0.0000000), wk =   0.0096000
        k(  149) = (   0.1200000   0.5773503   0.0000000), wk =   0.0048000
        k(  150) = (   0.1400000   0.2424871   0.0000000), wk =   0.0048000
        k(  151) = (   0.1400000   0.2655811   0.0000000), wk =   0.0096000
        k(  152) = (   0.1400000   0.2886751   0.0000000), wk =   0.0096000
        k(  153) = (   0.1400000   0.3117691   0.0000000), wk =   0.0096000
        k(  154) = (   0.1400000   0.3348632   0.0000000), wk =   0.0096000
        k(  155) = (   0.1400000   0.3579572   0.0000000), wk =   0.0096000
        k(  156) = (   0.1400000   0.3810512   0.0000000), wk =   0.0096000
        k(  157) = (   0.1400000   0.4041452   0.0000000), wk =   0.0096000
        k(  158) = (   0.1400000   0.4272392   0.0000000), wk =   0.0096000
        k(  159) = (   0.1400000   0.4503332   0.0000000), wk =   0.0096000
        k(  160) = (   0.1400000   0.4734272   0.0000000), wk =   0.0096000
        k(  161) = (   0.1400000   0.4965212   0.0000000), wk =   0.0096000
        k(  162) = (   0.1400000   0.5196152   0.0000000), wk =   0.0096000
        k(  163) = (   0.1400000   0.5427093   0.0000000), wk =   0.0096000
        k(  164) = (   0.1400000   0.5658033   0.0000000), wk =   0.0096000
        k(  165) = (   0.1600000   0.2771281   0.0000000), wk =   0.0048000
        k(  166) = (   0.1600000   0.3002221   0.0000000), wk =   0.0096000
        k(  167) = (   0.1600000   0.3233162   0.0000000), wk =   0.0096000
        k(  168) = (   0.1600000   0.3464102   0.0000000), wk =   0.0096000
        k(  169) = (   0.1600000   0.3695042   0.0000000), wk =   0.0096000
        k(  170) = (   0.1600000   0.3925982   0.0000000), wk =   0.0096000
        k(  171) = (   0.1600000   0.4156922   0.0000000), wk =   0.0096000
        k(  172) = (   0.1600000   0.4387862   0.0000000), wk =   0.0096000
        k(  173) = (   0.1600000   0.4618802   0.0000000), wk =   0.0096000
        k(  174) = (   0.1600000   0.4849742   0.0000000), wk =   0.0096000
        k(  175) = (   0.1600000   0.5080682   0.0000000), wk =   0.0096000
        k(  176) = (   0.1600000   0.5311622   0.0000000), wk =   0.0096000
        k(  177) = (   0.1600000   0.5542563   0.0000000), wk =   0.0096000
        k(  178) = (   0.1600000   0.5773503   0.0000000), wk =   0.0048000
        k(  179) = (   0.1800000   0.3117691   0.0000000), wk =   0.0048000
        k(  180) = (   0.1800000   0.3348632   0.0000000), wk =   0.0096000
        k(  181) = (   0.1800000   0.3579572   0.0000000), wk =   0.0096000
        k(  182) = (   0.1800000   0.3810512   0.0000000), wk =   0.0096000
        k(  183) = (   0.1800000   0.4041452   0.0000000), wk =   0.0096000
        k(  184) = (   0.1800000   0.4272392   0.0000000), wk =   0.0096000
        k(  185) = (   0.1800000   0.4503332   0.0000000), wk =   0.0096000
        k(  186) = (   0.1800000   0.4734272   0.0000000), wk =   0.0096000
        k(  187) = (   0.1800000   0.4965212   0.0000000), wk =   0.0096000
        k(  188) = (   0.1800000   0.5196152   0.0000000), wk =   0.0096000
        k(  189) = (   0.1800000   0.5427093   0.0000000), wk =   0.0096000
        k(  190) = (   0.1800000   0.5658033   0.0000000), wk =   0.0096000
        k(  191) = (   0.2000000   0.3464102   0.0000000), wk =   0.0048000
        k(  192) = (   0.2000000   0.3695042   0.0000000), wk =   0.0096000
        k(  193) = (   0.2000000   0.3925982   0.0000000), wk =   0.0096000
        k(  194) = (   0.2000000   0.4156922   0.0000000), wk =   0.0096000
        k(  195) = (   0.2000000   0.4387862   0.0000000), wk =   0.0096000
        k(  196) = (   0.2000000   0.4618802   0.0000000), wk =   0.0096000
        k(  197) = (   0.2000000   0.4849742   0.0000000), wk =   0.0096000
        k(  198) = (   0.2000000   0.5080682   0.0000000), wk =   0.0096000
        k(  199) = (   0.2000000   0.5311622   0.0000000), wk =   0.0096000
        k(  200) = (   0.2000000   0.5542563   0.0000000), wk =   0.0096000
        k(  201) = (   0.2000000   0.5773503   0.0000000), wk =   0.0048000
        k(  202) = (   0.2200000   0.3810512   0.0000000), wk =   0.0048000
        k(  203) = (   0.2200000   0.4041452   0.0000000), wk =   0.0096000
        k(  204) = (   0.2200000   0.4272392   0.0000000), wk =   0.0096000
        k(  205) = (   0.2200000   0.4503332   0.0000000), wk =   0.0096000
        k(  206) = (   0.2200000   0.4734272   0.0000000), wk =   0.0096000
        k(  207) = (   0.2200000   0.4965212   0.0000000), wk =   0.0096000
        k(  208) = (   0.2200000   0.5196152   0.0000000), wk =   0.0096000
        k(  209) = (   0.2200000   0.5427093   0.0000000), wk =   0.0096000
        k(  210) = (   0.2200000   0.5658033   0.0000000), wk =   0.0096000
        k(  211) = (   0.2400000   0.4156922   0.0000000), wk =   0.0048000
        k(  212) = (   0.2400000   0.4387862   0.0000000), wk =   0.0096000
        k(  213) = (   0.2400000   0.4618802   0.0000000), wk =   0.0096000
        k(  214) = (   0.2400000   0.4849742   0.0000000), wk =   0.0096000
        k(  215) = (   0.2400000   0.5080682   0.0000000), wk =   0.0096000
        k(  216) = (   0.2400000   0.5311622   0.0000000), wk =   0.0096000
        k(  217) = (   0.2400000   0.5542563   0.0000000), wk =   0.0096000
        k(  218) = (   0.2400000   0.5773503   0.0000000), wk =   0.0048000
        k(  219) = (   0.2600000   0.4503332   0.0000000), wk =   0.0048000
        k(  220) = (   0.2600000   0.4734272   0.0000000), wk =   0.0096000
        k(  221) = (   0.2600000   0.4965212   0.0000000), wk =   0.0096000
        k(  222) = (   0.2600000   0.5196152   0.0000000), wk =   0.0096000
        k(  223) = (   0.2600000   0.5427093   0.0000000), wk =   0.0096000
        k(  224) = (   0.2600000   0.5658033   0.0000000), wk =   0.0096000
        k(  225) = (   0.2800000   0.4849742   0.0000000), wk =   0.0048000
        k(  226) = (   0.2800000   0.5080682   0.0000000), wk =   0.0096000
        k(  227) = (   0.2800000   0.5311622   0.0000000), wk =   0.0096000
        k(  228) = (   0.2800000   0.5542563   0.0000000), wk =   0.0096000
        k(  229) = (   0.2800000   0.5773503   0.0000000), wk =   0.0048000
        k(  230) = (   0.3000000   0.5196152   0.0000000), wk =   0.0048000
        k(  231) = (   0.3000000   0.5427093   0.0000000), wk =   0.0096000
        k(  232) = (   0.3000000   0.5658033   0.0000000), wk =   0.0096000
        k(  233) = (   0.3200000   0.5542563   0.0000000), wk =   0.0048000
        k(  234) = (   0.3200000   0.5773503   0.0000000), wk =   0.0048000

                       cryst. coord.
        k(    1) = (   0.0000000   0.0000000   0.0000000), wk =   0.0008000
        k(    2) = (   0.0000000   0.0200000   0.0000000), wk =   0.0048000
        k(    3) = (   0.0000000   0.0400000   0.0000000), wk =   0.0048000
        k(    4) = (   0.0000000   0.0600000   0.0000000), wk =   0.0048000
        k(    5) = (   0.0000000   0.0800000   0.0000000), wk =   0.0048000
        k(    6) = (   0.0000000   0.1000000   0.0000000), wk =   0.0048000
        k(    7) = (   0.0000000   0.1200000   0.0000000), wk =   0.0048000
        k(    8) = (   0.0000000   0.1400000   0.0000000), wk =   0.0048000
        k(    9) = (   0.0000000   0.1600000   0.0000000), wk =   0.0048000
        k(   10) = (   0.0000000   0.1800000   0.0000000), wk =   0.0048000
        k(   11) = (   0.0000000   0.2000000   0.0000000), wk =   0.0048000
        k(   12) = (   0.0000000   0.2200000   0.0000000), wk =   0.0048000
        k(   13) = (   0.0000000   0.2400000   0.0000000), wk =   0.0048000
        k(   14) = (   0.0000000   0.2600000   0.0000000), wk =   0.0048000
        k(   15) = (   0.0000000   0.2800000   0.0000000), wk =   0.0048000
        k(   16) = (   0.0000000   0.3000000   0.0000000), wk =   0.0048000
        k(   17) = (   0.0000000   0.3200000   0.0000000), wk =   0.0048000
        k(   18) = (   0.0000000   0.3400000   0.0000000), wk =   0.0048000
        k(   19) = (   0.0000000   0.3600000   0.0000000), wk =   0.0048000
        k(   20) = (   0.0000000   0.3800000   0.0000000), wk =   0.0048000
        k(   21) = (   0.0000000   0.4000000   0.0000000), wk =   0.0048000
        k(   22) = (   0.0000000   0.4200000   0.0000000), wk =   0.0048000
        k(   23) = (   0.0000000   0.4400000   0.0000000), wk =   0.0048000
        k(   24) = (   0.0000000   0.4600000   0.0000000), wk =   0.0048000
        k(   25) = (   0.0000000   0.4800000   0.0000000), wk =   0.0048000
        k(   26) = (   0.0000000  -0.5000000   0.0000000), wk =   0.0024000
        k(   27) = (   0.0200000   0.0200000   0.0000000), wk =   0.0048000
        k(   28) = (   0.0200000   0.0400000   0.0000000), wk =   0.0096000
        k(   29) = (   0.0200000   0.0600000   0.0000000), wk =   0.0096000
        k(   30) = (   0.0200000   0.0800000   0.0000000), wk =   0.0096000
        k(   31) = (   0.0200000   0.1000000   0.0000000), wk =   0.0096000
        k(   32) = (   0.0200000   0.1200000   0.0000000), wk =   0.0096000
        k(   33) = (   0.0200000   0.1400000   0.0000000), wk =   0.0096000
        k(   34) = (   0.0200000   0.1600000   0.0000000), wk =   0.0096000
        k(   35) = (   0.0200000   0.1800000   0.0000000), wk =   0.0096000
        k(   36) = (   0.0200000   0.2000000   0.0000000), wk =   0.0096000
        k(   37) = (   0.0200000   0.2200000   0.0000000), wk =   0.0096000
        k(   38) = (   0.0200000   0.2400000   0.0000000), wk =   0.0096000
        k(   39) = (   0.0200000   0.2600000   0.0000000), wk =   0.0096000
        k(   40) = (   0.0200000   0.2800000   0.0000000), wk =   0.0096000
        k(   41) = (   0.0200000   0.3000000   0.0000000), wk =   0.0096000
        k(   42) = (   0.0200000   0.3200000   0.0000000), wk =   0.0096000
        k(   43) = (   0.0200000   0.3400000   0.0000000), wk =   0.0096000
        k(   44) = (   0.0200000   0.3600000   0.0000000), wk =   0.0096000
        k(   45) = (   0.0200000   0.3800000   0.0000000), wk =   0.0096000
        k(   46) = (   0.0200000   0.4000000   0.0000000), wk =   0.0096000
        k(   47) = (   0.0200000   0.4200000   0.0000000), wk =   0.0096000
        k(   48) = (   0.0200000   0.4400000   0.0000000), wk =   0.0096000
        k(   49) = (   0.0200000   0.4600000   0.0000000), wk =   0.0096000
        k(   50) = (   0.0200000   0.4800000   0.0000000), wk =   0.0096000
        k(   51) = (   0.0400000   0.0400000   0.0000000), wk =   0.0048000
        k(   52) = (   0.0400000   0.0600000   0.0000000), wk =   0.0096000
        k(   53) = (   0.0400000   0.0800000   0.0000000), wk =   0.0096000
        k(   54) = (   0.0400000   0.1000000   0.0000000), wk =   0.0096000
        k(   55) = (   0.0400000   0.1200000   0.0000000), wk =   0.0096000
        k(   56) = (   0.0400000   0.1400000   0.0000000), wk =   0.0096000
        k(   57) = (   0.0400000   0.1600000   0.0000000), wk =   0.0096000
        k(   58) = (   0.0400000   0.1800000   0.0000000), wk =   0.0096000
        k(   59) = (   0.0400000   0.2000000   0.0000000), wk =   0.0096000
        k(   60) = (   0.0400000   0.2200000   0.0000000), wk =   0.0096000
        k(   61) = (   0.0400000   0.2400000   0.0000000), wk =   0.0096000
        k(   62) = (   0.0400000   0.2600000   0.0000000), wk =   0.0096000
        k(   63) = (   0.0400000   0.2800000   0.0000000), wk =   0.0096000
        k(   64) = (   0.0400000   0.3000000   0.0000000), wk =   0.0096000
        k(   65) = (   0.0400000   0.3200000   0.0000000), wk =   0.0096000
        k(   66) = (   0.0400000   0.3400000   0.0000000), wk =   0.0096000
        k(   67) = (   0.0400000   0.3600000   0.0000000), wk =   0.0096000
        k(   68) = (   0.0400000   0.3800000   0.0000000), wk =   0.0096000
        k(   69) = (   0.0400000   0.4000000   0.0000000), wk =   0.0096000
        k(   70) = (   0.0400000   0.4200000   0.0000000), wk =   0.0096000
        k(   71) = (   0.0400000   0.4400000   0.0000000), wk =   0.0096000
        k(   72) = (   0.0400000   0.4600000   0.0000000), wk =   0.0096000
        k(   73) = (   0.0400000   0.4800000   0.0000000), wk =   0.0048000
        k(   74) = (   0.0600000   0.0600000   0.0000000), wk =   0.0048000
        k(   75) = (   0.0600000   0.0800000   0.0000000), wk =   0.0096000
        k(   76) = (   0.0600000   0.1000000   0.0000000), wk =   0.0096000
        k(   77) = (   0.0600000   0.1200000   0.0000000), wk =   0.0096000
        k(   78) = (   0.0600000   0.1400000   0.0000000), wk =   0.0096000
        k(   79) = (   0.0600000   0.1600000   0.0000000), wk =   0.0096000
        k(   80) = (   0.0600000   0.1800000   0.0000000), wk =   0.0096000
        k(   81) = (   0.0600000   0.2000000   0.0000000), wk =   0.0096000
        k(   82) = (   0.0600000   0.2200000   0.0000000), wk =   0.0096000
        k(   83) = (   0.0600000   0.2400000   0.0000000), wk =   0.0096000
        k(   84) = (   0.0600000   0.2600000   0.0000000), wk =   0.0096000
        k(   85) = (   0.0600000   0.2800000   0.0000000), wk =   0.0096000
        k(   86) = (   0.0600000   0.3000000   0.0000000), wk =   0.0096000
        k(   87) = (   0.0600000   0.3200000   0.0000000), wk =   0.0096000
        k(   88) = (   0.0600000   0.3400000   0.0000000), wk =   0.0096000
        k(   89) = (   0.0600000   0.3600000   0.0000000), wk =   0.0096000
        k(   90) = (   0.0600000   0.3800000   0.0000000), wk =   0.0096000
        k(   91) = (   0.0600000   0.4000000   0.0000000), wk =   0.0096000
        k(   92) = (   0.0600000   0.4200000   0.0000000), wk =   0.0096000
        k(   93) = (   0.0600000   0.4400000   0.0000000), wk =   0.0096000
        k(   94) = (   0.0600000   0.4600000   0.0000000), wk =   0.0096000
        k(   95) = (   0.0800000   0.0800000   0.0000000), wk =   0.0048000
        k(   96) = (   0.0800000   0.1000000   0.0000000), wk =   0.0096000
        k(   97) = (   0.0800000   0.1200000   0.0000000), wk =   0.0096000
        k(   98) = (   0.0800000   0.1400000   0.0000000), wk =   0.0096000
        k(   99) = (   0.0800000   0.1600000   0.0000000), wk =   0.0096000
        k(  100) = (   0.0800000   0.1800000   0.0000000), wk =   0.0096000
        k(  101) = (   0.0800000   0.2000000   0.0000000), wk =   0.0096000
        k(  102) = (   0.0800000   0.2200000   0.0000000), wk =   0.0096000
        k(  103) = (   0.0800000   0.2400000   0.0000000), wk =   0.0096000
        k(  104) = (   0.0800000   0.2600000   0.0000000), wk =   0.0096000
        k(  105) = (   0.0800000   0.2800000   0.0000000), wk =   0.0096000
        k(  106) = (   0.0800000   0.3000000   0.0000000), wk =   0.0096000
        k(  107) = (   0.0800000   0.3200000   0.0000000), wk =   0.0096000
        k(  108) = (   0.0800000   0.3400000   0.0000000), wk =   0.0096000
        k(  109) = (   0.0800000   0.3600000   0.0000000), wk =   0.0096000
        k(  110) = (   0.0800000   0.3800000   0.0000000), wk =   0.0096000
        k(  111) = (   0.0800000   0.4000000   0.0000000), wk =   0.0096000
        k(  112) = (   0.0800000   0.4200000   0.0000000), wk =   0.0096000
        k(  113) = (   0.0800000   0.4400000   0.0000000), wk =   0.0096000
        k(  114) = (   0.0800000   0.4600000   0.0000000), wk =   0.0048000
        k(  115) = (   0.1000000   0.1000000   0.0000000), wk =   0.0048000
        k(  116) = (   0.1000000   0.1200000   0.0000000), wk =   0.0096000
        k(  117) = (   0.1000000   0.1400000   0.0000000), wk =   0.0096000
        k(  118) = (   0.1000000   0.1600000   0.0000000), wk =   0.0096000
        k(  119) = (   0.1000000   0.1800000   0.0000000), wk =   0.0096000
        k(  120) = (   0.1000000   0.2000000   0.0000000), wk =   0.0096000
        k(  121) = (   0.1000000   0.2200000   0.0000000), wk =   0.0096000
        k(  122) = (   0.1000000   0.2400000   0.0000000), wk =   0.0096000
        k(  123) = (   0.1000000   0.2600000   0.0000000), wk =   0.0096000
        k(  124) = (   0.1000000   0.2800000   0.0000000), wk =   0.0096000
        k(  125) = (   0.1000000   0.3000000   0.0000000), wk =   0.0096000
        k(  126) = (   0.1000000   0.3200000   0.0000000), wk =   0.0096000
        k(  127) = (   0.1000000   0.3400000   0.0000000), wk =   0.0096000
        k(  128) = (   0.1000000   0.3600000   0.0000000), wk =   0.0096000
        k(  129) = (   0.1000000   0.3800000   0.0000000), wk =   0.0096000
        k(  130) = (   0.1000000   0.4000000   0.0000000), wk =   0.0096000
        k(  131) = (   0.1000000   0.4200000   0.0000000), wk =   0.0096000
        k(  132) = (   0.1000000   0.4400000   0.0000000), wk =   0.0096000
        k(  133) = (   0.1200000   0.1200000   0.0000000), wk =   0.0048000
        k(  134) = (   0.1200000   0.1400000   0.0000000), wk =   0.0096000
        k(  135) = (   0.1200000   0.1600000   0.0000000), wk =   0.0096000
        k(  136) = (   0.1200000   0.1800000   0.0000000), wk =   0.0096000
        k(  137) = (   0.1200000   0.2000000   0.0000000), wk =   0.0096000
        k(  138) = (   0.1200000   0.2200000   0.0000000), wk =   0.0096000
        k(  139) = (   0.1200000   0.2400000   0.0000000), wk =   0.0096000
        k(  140) = (   0.1200000   0.2600000   0.0000000), wk =   0.0096000
        k(  141) = (   0.1200000   0.2800000   0.0000000), wk =   0.0096000
        k(  142) = (   0.1200000   0.3000000   0.0000000), wk =   0.0096000
        k(  143) = (   0.1200000   0.3200000   0.0000000), wk =   0.0096000
        k(  144) = (   0.1200000   0.3400000   0.0000000), wk =   0.0096000
        k(  145) = (   0.1200000   0.3600000   0.0000000), wk =   0.0096000
        k(  146) = (   0.1200000   0.3800000   0.0000000), wk =   0.0096000
        k(  147) = (   0.1200000   0.4000000   0.0000000), wk =   0.0096000
        k(  148) = (   0.1200000   0.4200000   0.0000000), wk =   0.0096000
        k(  149) = (   0.1200000   0.4400000   0.0000000), wk =   0.0048000
        k(  150) = (   0.1400000   0.1400000   0.0000000), wk =   0.0048000
        k(  151) = (   0.1400000   0.1600000   0.0000000), wk =   0.0096000
        k(  152) = (   0.1400000   0.1800000   0.0000000), wk =   0.0096000
        k(  153) = (   0.1400000   0.2000000   0.0000000), wk =   0.0096000
        k(  154) = (   0.1400000   0.2200000   0.0000000), wk =   0.0096000
        k(  155) = (   0.1400000   0.2400000   0.0000000), wk =   0.0096000
        k(  156) = (   0.1400000   0.2600000   0.0000000), wk =   0.0096000
        k(  157) = (   0.1400000   0.2800000   0.0000000), wk =   0.0096000
        k(  158) = (   0.1400000   0.3000000   0.0000000), wk =   0.0096000
        k(  159) = (   0.1400000   0.3200000   0.0000000), wk =   0.0096000
        k(  160) = (   0.1400000   0.3400000   0.0000000), wk =   0.0096000
        k(  161) = (   0.1400000   0.3600000   0.0000000), wk =   0.0096000
        k(  162) = (   0.1400000   0.3800000   0.0000000), wk =   0.0096000
        k(  163) = (   0.1400000   0.4000000   0.0000000), wk =   0.0096000
        k(  164) = (   0.1400000   0.4200000   0.0000000), wk =   0.0096000
        k(  165) = (   0.1600000   0.1600000   0.0000000), wk =   0.0048000
        k(  166) = (   0.1600000   0.1800000   0.0000000), wk =   0.0096000
        k(  167) = (   0.1600000   0.2000000   0.0000000), wk =   0.0096000
        k(  168) = (   0.1600000   0.2200000   0.0000000), wk =   0.0096000
        k(  169) = (   0.1600000   0.2400000   0.0000000), wk =   0.0096000
        k(  170) = (   0.1600000   0.2600000   0.0000000), wk =   0.0096000
        k(  171) = (   0.1600000   0.2800000   0.0000000), wk =   0.0096000
        k(  172) = (   0.1600000   0.3000000   0.0000000), wk =   0.0096000
        k(  173) = (   0.1600000   0.3200000   0.0000000), wk =   0.0096000
        k(  174) = (   0.1600000   0.3400000   0.0000000), wk =   0.0096000
        k(  175) = (   0.1600000   0.3600000   0.0000000), wk =   0.0096000
        k(  176) = (   0.1600000   0.3800000   0.0000000), wk =   0.0096000
        k(  177) = (   0.1600000   0.4000000   0.0000000), wk =   0.0096000
        k(  178) = (   0.1600000   0.4200000   0.0000000), wk =   0.0048000
        k(  179) = (   0.1800000   0.1800000   0.0000000), wk =   0.0048000
        k(  180) = (   0.1800000   0.2000000   0.0000000), wk =   0.0096000
        k(  181) = (   0.1800000   0.2200000   0.0000000), wk =   0.0096000
        k(  182) = (   0.1800000   0.2400000   0.0000000), wk =   0.0096000
        k(  183) = (   0.1800000   0.2600000   0.0000000), wk =   0.0096000
        k(  184) = (   0.1800000   0.2800000   0.0000000), wk =   0.0096000
        k(  185) = (   0.1800000   0.3000000   0.0000000), wk =   0.0096000
        k(  186) = (   0.1800000   0.3200000   0.0000000), wk =   0.0096000
        k(  187) = (   0.1800000   0.3400000   0.0000000), wk =   0.0096000
        k(  188) = (   0.1800000   0.3600000   0.0000000), wk =   0.0096000
        k(  189) = (   0.1800000   0.3800000   0.0000000), wk =   0.0096000
        k(  190) = (   0.1800000   0.4000000   0.0000000), wk =   0.0096000
        k(  191) = (   0.2000000   0.2000000   0.0000000), wk =   0.0048000
        k(  192) = (   0.2000000   0.2200000   0.0000000), wk =   0.0096000
        k(  193) = (   0.2000000   0.2400000   0.0000000), wk =   0.0096000
        k(  194) = (   0.2000000   0.2600000   0.0000000), wk =   0.0096000
        k(  195) = (   0.2000000   0.2800000   0.0000000), wk =   0.0096000
        k(  196) = (   0.2000000   0.3000000   0.0000000), wk =   0.0096000
        k(  197) = (   0.2000000   0.3200000   0.0000000), wk =   0.0096000
        k(  198) = (   0.2000000   0.3400000   0.0000000), wk =   0.0096000
        k(  199) = (   0.2000000   0.3600000   0.0000000), wk =   0.0096000
        k(  200) = (   0.2000000   0.3800000   0.0000000), wk =   0.0096000
        k(  201) = (   0.2000000   0.4000000   0.0000000), wk =   0.0048000
        k(  202) = (   0.2200000   0.2200000   0.0000000), wk =   0.0048000
        k(  203) = (   0.2200000   0.2400000   0.0000000), wk =   0.0096000
        k(  204) = (   0.2200000   0.2600000   0.0000000), wk =   0.0096000
        k(  205) = (   0.2200000   0.2800000   0.0000000), wk =   0.0096000
        k(  206) = (   0.2200000   0.3000000   0.0000000), wk =   0.0096000
        k(  207) = (   0.2200000   0.3200000   0.0000000), wk =   0.0096000
        k(  208) = (   0.2200000   0.3400000   0.0000000), wk =   0.0096000
        k(  209) = (   0.2200000   0.3600000   0.0000000), wk =   0.0096000
        k(  210) = (   0.2200000   0.3800000   0.0000000), wk =   0.0096000
        k(  211) = (   0.2400000   0.2400000   0.0000000), wk =   0.0048000
        k(  212) = (   0.2400000   0.2600000   0.0000000), wk =   0.0096000
        k(  213) = (   0.2400000   0.2800000   0.0000000), wk =   0.0096000
        k(  214) = (   0.2400000   0.3000000   0.0000000), wk =   0.0096000
        k(  215) = (   0.2400000   0.3200000   0.0000000), wk =   0.0096000
        k(  216) = (   0.2400000   0.3400000   0.0000000), wk =   0.0096000
        k(  217) = (   0.2400000   0.3600000   0.0000000), wk =   0.0096000
        k(  218) = (   0.2400000   0.3800000   0.0000000), wk =   0.0048000
        k(  219) = (   0.2600000   0.2600000   0.0000000), wk =   0.0048000
        k(  220) = (   0.2600000   0.2800000   0.0000000), wk =   0.0096000
        k(  221) = (   0.2600000   0.3000000   0.0000000), wk =   0.0096000
        k(  222) = (   0.2600000   0.3200000   0.0000000), wk =   0.0096000
        k(  223) = (   0.2600000   0.3400000   0.0000000), wk =   0.0096000
        k(  224) = (   0.2600000   0.3600000   0.0000000), wk =   0.0096000
        k(  225) = (   0.2800000   0.2800000   0.0000000), wk =   0.0048000
        k(  226) = (   0.2800000   0.3000000   0.0000000), wk =   0.0096000
        k(  227) = (   0.2800000   0.3200000   0.0000000), wk =   0.0096000
        k(  228) = (   0.2800000   0.3400000   0.0000000), wk =   0.0096000
        k(  229) = (   0.2800000   0.3600000   0.0000000), wk =   0.0048000
        k(  230) = (   0.3000000   0.3000000   0.0000000), wk =   0.0048000
        k(  231) = (   0.3000000   0.3200000   0.0000000), wk =   0.0096000
        k(  232) = (   0.3000000   0.3400000   0.0000000), wk =   0.0096000
        k(  233) = (   0.3200000   0.3200000   0.0000000), wk =   0.0048000
        k(  234) = (   0.3200000   0.3400000   0.0000000), wk =   0.0048000

     Dense  grid:    34803 G-vectors     FFT dimensions: (  24,  24, 144)

     Dynamical RAM for                 wfc:       0.07 MB

     Dynamical RAM for     wfc (w. buffer):       0.07 MB

     Dynamical RAM for           str. fact:       0.13 MB

     Dynamical RAM for           local pot:       0.00 MB

     Dynamical RAM for          nlocal pot:       0.13 MB

     Dynamical RAM for                qrad:       0.71 MB

     Dynamical RAM for          rho,v,vnew:       0.44 MB

     Dynamical RAM for           G-vectors:       0.28 MB

     Dynamical RAM for          h,s,v(r/c):       0.01 MB

     Dynamical RAM for          <psi|beta>:       0.00 MB

     Dynamical RAM for                 psi:       0.13 MB

     Dynamical RAM for                hpsi:       0.13 MB

     Dynamical RAM for      wfcinit/wfcrot:       0.13 MB

     Estimated static dynamical RAM per process >       2.36 MB

     Estimated max dynamical RAM per process >       2.64 MB

     Estimated total dynamical RAM >      21.10 MB

     The potential is recalculated from file :
     ./tmp50/hBN_1l_PBE_vdW.save/charge-density



     %%%%%%%%%%%%%%%%%%%%%%%%%%%%%%%%%%%%%%%%%%%%%%%%%%%%%%%%%%%%%%%%%%%%%%%%
     %                                                                      %
     % You are using vdW-DF, which was implemented by the Thonhauser group. %
     % Please cite the following two papers that made this development      %
     % possible and the two reviews that describe the various versions:     %
     %                                                                      %
     %   T. Thonhauser et al., PRL 115, 136402 (2015).                      %
     %   T. Thonhauser et al., PRB 76, 125112 (2007).                       %
     %   K. Berland et al., Rep. Prog. Phys. 78, 066501 (2015).             %
     %   D.C. Langreth et al., J. Phys.: Condens. Matter 21, 084203 (2009). %
     %                                                                      %
     % If you are calculating stress with vdW-DF, please also cite:         %
     %                                                                      %
     %   R. Sabatini et al., J. Phys.: Condens. Matter 24, 424209 (2012).   %
     %                                                                      %
     %%%%%%%%%%%%%%%%%%%%%%%%%%%%%%%%%%%%%%%%%%%%%%%%%%%%%%%%%%%%%%%%%%%%%%%%

     %%%%%%%%%%%%%%%%%%%%%%%%%%%%%%%%%%%%%%%%%%%%%%%%%%%%%%%%%%%%%%%%%%%%%%%%
     %                                                                      %
     %  vdW-DF NEWS:                                                        %
     %                                                                      %
     %  * vdW-DF3 is now available. DOI: 10.1021/acs.jctc.0c00471           %
     %    use with input_dft = 'vdW-DF3-opt1' or 'vdW-DF3-opt2'             %
     %                                                                      %
     %  * Unscreened and range-separated hybrid vdW-DF-cx functionals       %
     %    DOI: 10.1063/1.4986522 and 10.1088/1361-648X/ac2ad2               %
     %    use with input_dft = 'vdW-DF-cx0'    and 'vdW-DF-ahcx'            %
     %  * Unscreened and range-separated hybrid vdW-DF2-b86r functionals    %
     %    DOI: 10.1063/1.4986522 and DOI: 10.1103/PhysRevX.12.041003        %
     %    use with input_dft = 'vdW-DF2-br0' and 'vdW-DF2-ahbr'             %
     %                                                                      %
     %%%%%%%%%%%%%%%%%%%%%%%%%%%%%%%%%%%%%%%%%%%%%%%%%%%%%%%%%%%%%%%%%%%%%%%%


     Carrying out vdW-DF run using the following parameters:
     Nqs    =  20  Npoints =  1024  r_max =  100.000
     q_mesh =  0.00001000  0.04494208  0.09755937  0.15916263
               0.23128650  0.31572767  0.41458969  0.53033537
               0.66584808  0.82450364  1.01025438  1.22772762
               1.48234092  1.78043706  2.12944203  2.53805004
               3.01644009  3.57652955  4.23227104  5.00000000


     -----------------------------------------------
     Non-local corr. energy    =       0.10705985 Ry
     -----------------------------------------------

     Starting wfcs are    8 randomized atomic wfcs

     Band Structure Calculation
     Davidson diagonalization with overlap

     Computing kpt #:     1  of   234
     total cpu time spent up to now is       10.1 secs

     Computing kpt #:     2  of   234
     total cpu time spent up to now is       10.2 secs

     Computing kpt #:     3  of   234
     total cpu time spent up to now is       10.3 secs

     Computing kpt #:     4  of   234
     total cpu time spent up to now is       10.3 secs

     Computing kpt #:     5  of   234
     total cpu time spent up to now is       10.4 secs

     Computing kpt #:     6  of   234
     total cpu time spent up to now is       10.4 secs

     Computing kpt #:     7  of   234
     total cpu time spent up to now is       10.5 secs

     Computing kpt #:     8  of   234
     total cpu time spent up to now is       10.6 secs

     Computing kpt #:     9  of   234
     total cpu time spent up to now is       10.6 secs

     Computing kpt #:    10  of   234
     total cpu time spent up to now is       10.7 secs

     Computing kpt #:    11  of   234
     total cpu time spent up to now is       10.8 secs

     Computing kpt #:    12  of   234
     total cpu time spent up to now is       10.8 secs

     Computing kpt #:    13  of   234
     total cpu time spent up to now is       10.9 secs

     Computing kpt #:    14  of   234
     total cpu time spent up to now is       10.9 secs

     Computing kpt #:    15  of   234
     total cpu time spent up to now is       11.0 secs

     Computing kpt #:    16  of   234
     total cpu time spent up to now is       11.1 secs

     Computing kpt #:    17  of   234
     total cpu time spent up to now is       11.1 secs

     Computing kpt #:    18  of   234
     total cpu time spent up to now is       11.2 secs

     Computing kpt #:    19  of   234
     total cpu time spent up to now is       11.3 secs

     Computing kpt #:    20  of   234
     total cpu time spent up to now is       11.3 secs

     Computing kpt #:    21  of   234
     total cpu time spent up to now is       11.4 secs

     Computing kpt #:    22  of   234
     total cpu time spent up to now is       11.4 secs

     Computing kpt #:    23  of   234
     total cpu time spent up to now is       11.5 secs

     Computing kpt #:    24  of   234
     total cpu time spent up to now is       11.5 secs

     Computing kpt #:    25  of   234
     total cpu time spent up to now is       11.6 secs

     Computing kpt #:    26  of   234
     total cpu time spent up to now is       11.7 secs

     Computing kpt #:    27  of   234
     total cpu time spent up to now is       11.7 secs

     Computing kpt #:    28  of   234
     total cpu time spent up to now is       11.8 secs

     Computing kpt #:    29  of   234
     total cpu time spent up to now is       11.9 secs

     Computing kpt #:    30  of   234
     total cpu time spent up to now is       11.9 secs

     Computing kpt #:    31  of   234
     total cpu time spent up to now is       12.0 secs

     Computing kpt #:    32  of   234
     total cpu time spent up to now is       12.1 secs

     Computing kpt #:    33  of   234
     total cpu time spent up to now is       12.1 secs

     Computing kpt #:    34  of   234
     total cpu time spent up to now is       12.2 secs

     Computing kpt #:    35  of   234
     total cpu time spent up to now is       12.3 secs

     Computing kpt #:    36  of   234
     total cpu time spent up to now is       12.3 secs

     Computing kpt #:    37  of   234
     total cpu time spent up to now is       12.4 secs

     Computing kpt #:    38  of   234
     total cpu time spent up to now is       12.5 secs

     Computing kpt #:    39  of   234
     total cpu time spent up to now is       12.5 secs

     Computing kpt #:    40  of   234
     total cpu time spent up to now is       12.6 secs

     Computing kpt #:    41  of   234
     total cpu time spent up to now is       12.7 secs

     Computing kpt #:    42  of   234
     total cpu time spent up to now is       12.7 secs

     Computing kpt #:    43  of   234
     total cpu time spent up to now is       12.8 secs

     Computing kpt #:    44  of   234
     total cpu time spent up to now is       12.8 secs

     Computing kpt #:    45  of   234
     total cpu time spent up to now is       12.9 secs

     Computing kpt #:    46  of   234
     total cpu time spent up to now is       12.9 secs

     Computing kpt #:    47  of   234
     total cpu time spent up to now is       13.0 secs

     Computing kpt #:    48  of   234
     total cpu time spent up to now is       13.1 secs

     Computing kpt #:    49  of   234
     total cpu time spent up to now is       13.1 secs

     Computing kpt #:    50  of   234
     total cpu time spent up to now is       13.2 secs

     Computing kpt #:    51  of   234
     total cpu time spent up to now is       13.3 secs

     Computing kpt #:    52  of   234
     total cpu time spent up to now is       13.3 secs

     Computing kpt #:    53  of   234
     total cpu time spent up to now is       13.4 secs

     Computing kpt #:    54  of   234
     total cpu time spent up to now is       13.5 secs

     Computing kpt #:    55  of   234
     total cpu time spent up to now is       13.6 secs

     Computing kpt #:    56  of   234
     total cpu time spent up to now is       13.6 secs

     Computing kpt #:    57  of   234
     total cpu time spent up to now is       13.7 secs

     Computing kpt #:    58  of   234
     total cpu time spent up to now is       13.8 secs

     Computing kpt #:    59  of   234
     total cpu time spent up to now is       13.8 secs

     Computing kpt #:    60  of   234
     total cpu time spent up to now is       13.9 secs

     Computing kpt #:    61  of   234
     total cpu time spent up to now is       13.9 secs

     Computing kpt #:    62  of   234
     total cpu time spent up to now is       14.0 secs

     Computing kpt #:    63  of   234
     total cpu time spent up to now is       14.1 secs

     Computing kpt #:    64  of   234
     total cpu time spent up to now is       14.1 secs

     Computing kpt #:    65  of   234
     total cpu time spent up to now is       14.2 secs

     Computing kpt #:    66  of   234
     total cpu time spent up to now is       14.3 secs

     Computing kpt #:    67  of   234
     total cpu time spent up to now is       14.3 secs

     Computing kpt #:    68  of   234
     total cpu time spent up to now is       14.4 secs

     Computing kpt #:    69  of   234
     total cpu time spent up to now is       14.5 secs

     Computing kpt #:    70  of   234
     total cpu time spent up to now is       14.5 secs

     Computing kpt #:    71  of   234
     total cpu time spent up to now is       14.6 secs

     Computing kpt #:    72  of   234
     total cpu time spent up to now is       14.7 secs

     Computing kpt #:    73  of   234
     total cpu time spent up to now is       14.8 secs

     Computing kpt #:    74  of   234
     total cpu time spent up to now is       14.8 secs

     Computing kpt #:    75  of   234
     total cpu time spent up to now is       14.9 secs

     Computing kpt #:    76  of   234
     total cpu time spent up to now is       15.0 secs

     Computing kpt #:    77  of   234
     total cpu time spent up to now is       15.0 secs

     Computing kpt #:    78  of   234
     total cpu time spent up to now is       15.1 secs

     Computing kpt #:    79  of   234
     total cpu time spent up to now is       15.2 secs

     Computing kpt #:    80  of   234
     total cpu time spent up to now is       15.2 secs

     Computing kpt #:    81  of   234
     total cpu time spent up to now is       15.3 secs

     Computing kpt #:    82  of   234
     total cpu time spent up to now is       15.4 secs

     Computing kpt #:    83  of   234
     total cpu time spent up to now is       15.4 secs

     Computing kpt #:    84  of   234
     total cpu time spent up to now is       15.5 secs

     Computing kpt #:    85  of   234
     total cpu time spent up to now is       15.5 secs

     Computing kpt #:    86  of   234
     total cpu time spent up to now is       15.6 secs

     Computing kpt #:    87  of   234
     total cpu time spent up to now is       15.7 secs

     Computing kpt #:    88  of   234
     total cpu time spent up to now is       15.7 secs

     Computing kpt #:    89  of   234
     total cpu time spent up to now is       15.8 secs

     Computing kpt #:    90  of   234
     total cpu time spent up to now is       15.9 secs

     Computing kpt #:    91  of   234
     total cpu time spent up to now is       16.0 secs

     Computing kpt #:    92  of   234
     total cpu time spent up to now is       16.0 secs

     Computing kpt #:    93  of   234
     total cpu time spent up to now is       16.1 secs

     Computing kpt #:    94  of   234
     total cpu time spent up to now is       16.2 secs

     Computing kpt #:    95  of   234
     total cpu time spent up to now is       16.3 secs

     Computing kpt #:    96  of   234
     total cpu time spent up to now is       16.3 secs

     Computing kpt #:    97  of   234
     total cpu time spent up to now is       16.4 secs

     Computing kpt #:    98  of   234
     total cpu time spent up to now is       16.5 secs

     Computing kpt #:    99  of   234
     total cpu time spent up to now is       16.5 secs

     Computing kpt #:   100  of   234
     total cpu time spent up to now is       16.6 secs

     Computing kpt #:   101  of   234
     total cpu time spent up to now is       16.7 secs

     Computing kpt #:   102  of   234
     total cpu time spent up to now is       16.7 secs

     Computing kpt #:   103  of   234
     total cpu time spent up to now is       16.8 secs

     Computing kpt #:   104  of   234
     total cpu time spent up to now is       16.8 secs

     Computing kpt #:   105  of   234
     total cpu time spent up to now is       16.9 secs

     Computing kpt #:   106  of   234
     total cpu time spent up to now is       16.9 secs

     Computing kpt #:   107  of   234
     total cpu time spent up to now is       17.0 secs

     Computing kpt #:   108  of   234
     total cpu time spent up to now is       17.1 secs

     Computing kpt #:   109  of   234
     total cpu time spent up to now is       17.2 secs

     Computing kpt #:   110  of   234
     total cpu time spent up to now is       17.2 secs

     Computing kpt #:   111  of   234
     total cpu time spent up to now is       17.3 secs

     Computing kpt #:   112  of   234
     total cpu time spent up to now is       17.4 secs

     Computing kpt #:   113  of   234
     total cpu time spent up to now is       17.4 secs

     Computing kpt #:   114  of   234
     total cpu time spent up to now is       17.5 secs

     Computing kpt #:   115  of   234
     total cpu time spent up to now is       17.6 secs

     Computing kpt #:   116  of   234
     total cpu time spent up to now is       17.6 secs

     Computing kpt #:   117  of   234
     total cpu time spent up to now is       17.7 secs

     Computing kpt #:   118  of   234
     total cpu time spent up to now is       17.8 secs

     Computing kpt #:   119  of   234
     total cpu time spent up to now is       17.8 secs

     Computing kpt #:   120  of   234
     total cpu time spent up to now is       17.9 secs

     Computing kpt #:   121  of   234
     total cpu time spent up to now is       17.9 secs

     Computing kpt #:   122  of   234
     total cpu time spent up to now is       18.0 secs

     Computing kpt #:   123  of   234
     total cpu time spent up to now is       18.0 secs

     Computing kpt #:   124  of   234
     total cpu time spent up to now is       18.1 secs

     Computing kpt #:   125  of   234
     total cpu time spent up to now is       18.2 secs

     Computing kpt #:   126  of   234
     total cpu time spent up to now is       18.2 secs

     Computing kpt #:   127  of   234
     total cpu time spent up to now is       18.3 secs

     Computing kpt #:   128  of   234
     total cpu time spent up to now is       18.4 secs

     Computing kpt #:   129  of   234
     total cpu time spent up to now is       18.4 secs

     Computing kpt #:   130  of   234
     total cpu time spent up to now is       18.5 secs

     Computing kpt #:   131  of   234
     total cpu time spent up to now is       18.6 secs

     Computing kpt #:   132  of   234
     total cpu time spent up to now is       18.6 secs

     Computing kpt #:   133  of   234
     total cpu time spent up to now is       18.7 secs

     Computing kpt #:   134  of   234
     total cpu time spent up to now is       18.8 secs

     Computing kpt #:   135  of   234
     total cpu time spent up to now is       18.8 secs

     Computing kpt #:   136  of   234
     total cpu time spent up to now is       18.9 secs

     Computing kpt #:   137  of   234
     total cpu time spent up to now is       18.9 secs

     Computing kpt #:   138  of   234
     total cpu time spent up to now is       19.0 secs

     Computing kpt #:   139  of   234
     total cpu time spent up to now is       19.0 secs

     Computing kpt #:   140  of   234
     total cpu time spent up to now is       19.1 secs

     Computing kpt #:   141  of   234
     total cpu time spent up to now is       19.2 secs

     Computing kpt #:   142  of   234
     total cpu time spent up to now is       19.2 secs

     Computing kpt #:   143  of   234
     total cpu time spent up to now is       19.3 secs

     Computing kpt #:   144  of   234
     total cpu time spent up to now is       19.4 secs

     Computing kpt #:   145  of   234
     total cpu time spent up to now is       19.4 secs

     Computing kpt #:   146  of   234
     total cpu time spent up to now is       19.5 secs

     Computing kpt #:   147  of   234
     total cpu time spent up to now is       19.5 secs

     Computing kpt #:   148  of   234
     total cpu time spent up to now is       19.6 secs

     Computing kpt #:   149  of   234
     total cpu time spent up to now is       19.7 secs

     Computing kpt #:   150  of   234
     total cpu time spent up to now is       19.8 secs

     Computing kpt #:   151  of   234
     total cpu time spent up to now is       19.8 secs

     Computing kpt #:   152  of   234
     total cpu time spent up to now is       19.9 secs

     Computing kpt #:   153  of   234
     total cpu time spent up to now is       19.9 secs

     Computing kpt #:   154  of   234
     total cpu time spent up to now is       20.0 secs

     Computing kpt #:   155  of   234
     total cpu time spent up to now is       20.0 secs

     Computing kpt #:   156  of   234
     total cpu time spent up to now is       20.1 secs

     Computing kpt #:   157  of   234
     total cpu time spent up to now is       20.2 secs

     Computing kpt #:   158  of   234
     total cpu time spent up to now is       20.2 secs

     Computing kpt #:   159  of   234
     total cpu time spent up to now is       20.3 secs

     Computing kpt #:   160  of   234
     total cpu time spent up to now is       20.4 secs

     Computing kpt #:   161  of   234
     total cpu time spent up to now is       20.4 secs

     Computing kpt #:   162  of   234
     total cpu time spent up to now is       20.5 secs

     Computing kpt #:   163  of   234
     total cpu time spent up to now is       20.5 secs

     Computing kpt #:   164  of   234
     total cpu time spent up to now is       20.6 secs

     Computing kpt #:   165  of   234
     total cpu time spent up to now is       20.6 secs

     Computing kpt #:   166  of   234
     total cpu time spent up to now is       20.7 secs

     Computing kpt #:   167  of   234
     total cpu time spent up to now is       20.7 secs

     Computing kpt #:   168  of   234
     total cpu time spent up to now is       20.8 secs

     Computing kpt #:   169  of   234
     total cpu time spent up to now is       20.8 secs

     Computing kpt #:   170  of   234
     total cpu time spent up to now is       20.9 secs

     Computing kpt #:   171  of   234
     total cpu time spent up to now is       21.0 secs

     Computing kpt #:   172  of   234
     total cpu time spent up to now is       21.0 secs

     Computing kpt #:   173  of   234
     total cpu time spent up to now is       21.1 secs

     Computing kpt #:   174  of   234
     total cpu time spent up to now is       21.2 secs

     Computing kpt #:   175  of   234
     total cpu time spent up to now is       21.2 secs

     Computing kpt #:   176  of   234
     total cpu time spent up to now is       21.3 secs

     Computing kpt #:   177  of   234
     total cpu time spent up to now is       21.4 secs

     Computing kpt #:   178  of   234
     total cpu time spent up to now is       21.4 secs

     Computing kpt #:   179  of   234
     total cpu time spent up to now is       21.5 secs

     Computing kpt #:   180  of   234
     total cpu time spent up to now is       21.5 secs

     Computing kpt #:   181  of   234
     total cpu time spent up to now is       21.6 secs

     Computing kpt #:   182  of   234
     total cpu time spent up to now is       21.6 secs

     Computing kpt #:   183  of   234
     total cpu time spent up to now is       21.7 secs

     Computing kpt #:   184  of   234
     total cpu time spent up to now is       21.7 secs

     Computing kpt #:   185  of   234
     total cpu time spent up to now is       21.8 secs

     Computing kpt #:   186  of   234
     total cpu time spent up to now is       21.9 secs

     Computing kpt #:   187  of   234
     total cpu time spent up to now is       22.0 secs

     Computing kpt #:   188  of   234
     total cpu time spent up to now is       22.0 secs

     Computing kpt #:   189  of   234
     total cpu time spent up to now is       22.1 secs

     Computing kpt #:   190  of   234
     total cpu time spent up to now is       22.2 secs

     Computing kpt #:   191  of   234
     total cpu time spent up to now is       22.2 secs

     Computing kpt #:   192  of   234
     total cpu time spent up to now is       22.3 secs

     Computing kpt #:   193  of   234
     total cpu time spent up to now is       22.3 secs

     Computing kpt #:   194  of   234
     total cpu time spent up to now is       22.4 secs

     Computing kpt #:   195  of   234
     total cpu time spent up to now is       22.5 secs

     Computing kpt #:   196  of   234
     total cpu time spent up to now is       22.5 secs

     Computing kpt #:   197  of   234
     total cpu time spent up to now is       22.6 secs

     Computing kpt #:   198  of   234
     total cpu time spent up to now is       22.7 secs

     Computing kpt #:   199  of   234
     total cpu time spent up to now is       22.7 secs

     Computing kpt #:   200  of   234
     total cpu time spent up to now is       22.8 secs

     Computing kpt #:   201  of   234
     total cpu time spent up to now is       22.9 secs

     Computing kpt #:   202  of   234
     total cpu time spent up to now is       22.9 secs

     Computing kpt #:   203  of   234
     total cpu time spent up to now is       23.0 secs

     Computing kpt #:   204  of   234
     total cpu time spent up to now is       23.0 secs

     Computing kpt #:   205  of   234
     total cpu time spent up to now is       23.1 secs

     Computing kpt #:   206  of   234
     total cpu time spent up to now is       23.2 secs

     Computing kpt #:   207  of   234
     total cpu time spent up to now is       23.2 secs

     Computing kpt #:   208  of   234
     total cpu time spent up to now is       23.3 secs

     Computing kpt #:   209  of   234
     total cpu time spent up to now is       23.4 secs

     Computing kpt #:   210  of   234
     total cpu time spent up to now is       23.4 secs

     Computing kpt #:   211  of   234
     total cpu time spent up to now is       23.5 secs

     Computing kpt #:   212  of   234
     total cpu time spent up to now is       23.5 secs

     Computing kpt #:   213  of   234
     total cpu time spent up to now is       23.6 secs

     Computing kpt #:   214  of   234
     total cpu time spent up to now is       23.7 secs

     Computing kpt #:   215  of   234
     total cpu time spent up to now is       23.8 secs

     Computing kpt #:   216  of   234
     total cpu time spent up to now is       23.8 secs

     Computing kpt #:   217  of   234
     total cpu time spent up to now is       23.9 secs

     Computing kpt #:   218  of   234
     total cpu time spent up to now is       23.9 secs

     Computing kpt #:   219  of   234
     total cpu time spent up to now is       24.0 secs

     Computing kpt #:   220  of   234
     total cpu time spent up to now is       24.0 secs

     Computing kpt #:   221  of   234
     total cpu time spent up to now is       24.1 secs

     Computing kpt #:   222  of   234
     total cpu time spent up to now is       24.2 secs

     Computing kpt #:   223  of   234
     total cpu time spent up to now is       24.2 secs

     Computing kpt #:   224  of   234
     total cpu time spent up to now is       24.3 secs

     Computing kpt #:   225  of   234
     total cpu time spent up to now is       24.4 secs

     Computing kpt #:   226  of   234
     total cpu time spent up to now is       24.4 secs

     Computing kpt #:   227  of   234
     total cpu time spent up to now is       24.5 secs

     Computing kpt #:   228  of   234
     total cpu time spent up to now is       24.6 secs

     Computing kpt #:   229  of   234
     total cpu time spent up to now is       24.6 secs

     Computing kpt #:   230  of   234
     total cpu time spent up to now is       24.7 secs

     Computing kpt #:   231  of   234
     total cpu time spent up to now is       24.8 secs

     Computing kpt #:   232  of   234
     total cpu time spent up to now is       24.8 secs

     Computing kpt #:   233  of   234
     total cpu time spent up to now is       24.9 secs

     Computing kpt #:   234  of   234
     total cpu time spent up to now is       25.0 secs

     ethr =  5.00E-06,  avg # of iterations = 23.3

     total cpu time spent up to now is       25.0 secs

     End of band structure calculation

          k = 0.0000 0.0000 0.0000 (  4301 PWs)   bands (ev):

   -21.2170  -8.8406  -5.0155  -5.0155   0.7508   1.8471   2.5827   4.2890

     occupation numbers 
     1.0000   1.0000   1.0000   1.0000   0.0000   0.0000   0.0000   0.0000

          k = 0.0000 0.0231 0.0000 (  4337 PWs)   bands (ev):

   -21.2095  -8.8308  -5.0498  -5.0317   0.7642   1.8589   2.5955   4.3004

     occupation numbers 
     1.0000   1.0000   1.0000   1.0000   0.0000   0.0000   0.0000   0.0000

          k = 0.0000 0.0462 0.0000 (  4333 PWs)   bands (ev):

   -21.1866  -8.7999  -5.1485  -5.0772   0.8042   1.8946   2.6340   4.3348

     occupation numbers 
     1.0000   1.0000   1.0000   1.0000   0.0000   0.0000   0.0000   0.0000

          k = 0.0000 0.0693 0.0000 (  4333 PWs)   bands (ev):

   -21.1484  -8.7483  -5.3092  -5.1515   0.8704   1.9540   2.6980   4.3919

     occupation numbers 
     1.0000   1.0000   1.0000   1.0000   0.0000   0.0000   0.0000   0.0000

          k = 0.0000 0.0924 0.0000 (  4346 PWs)   bands (ev):

   -21.0953  -8.6766  -5.5266  -5.2521   0.9621   2.0369   2.7875   4.4712

     occupation numbers 
     1.0000   1.0000   1.0000   1.0000   0.0000   0.0000   0.0000   0.0000

          k = 0.0000 0.1155 0.0000 (  4324 PWs)   bands (ev):

   -21.0270  -8.5843  -5.7936  -5.3738   1.0787   2.1431   2.9023   4.5721

     occupation numbers 
     1.0000   1.0000   1.0000   1.0000   0.0000   0.0000   0.0000   0.0000

          k = 0.0000 0.1386 0.0000 (  4326 PWs)   bands (ev):

   -20.9442  -8.4719  -6.1051  -5.5144   1.2196   2.2720   3.0422   4.6932

     occupation numbers 
     1.0000   1.0000   1.0000   1.0000   0.0000   0.0000   0.0000   0.0000

          k = 0.0000 0.1617 0.0000 (  4316 PWs)   bands (ev):

   -20.8469  -8.3400  -6.4523  -5.6690   1.3843   2.4231   3.2071   4.8325

     occupation numbers 
     1.0000   1.0000   1.0000   1.0000   0.0000   0.0000   0.0000   0.0000

          k = 0.0000 0.1848 0.0000 (  4334 PWs)   bands (ev):

   -20.7357  -8.1890  -6.8294  -5.8345   1.5724   2.5953   3.3969   4.9859

     occupation numbers 
     1.0000   1.0000   1.0000   1.0000   0.0000   0.0000   0.0000   0.0000

          k = 0.0000 0.2078 0.0000 (  4330 PWs)   bands (ev):

   -20.6108  -8.0190  -7.2289  -6.0063   1.7836   2.7869   3.6114   5.1469

     occupation numbers 
     1.0000   1.0000   1.0000   1.0000   0.0000   0.0000   0.0000   0.0000

          k = 0.0000 0.2309 0.0000 (  4324 PWs)   bands (ev):

   -20.4730  -7.8310  -7.6451  -6.1813   2.0176   2.9950   3.8506   5.3007

     occupation numbers 
     1.0000   1.0000   1.0000   1.0000   0.0000   0.0000   0.0000   0.0000

          k = 0.0000 0.2540 0.0000 (  4340 PWs)   bands (ev):

   -20.3229  -8.0733  -7.6258  -6.3566   2.2740   3.2140   4.1143   5.4192

     occupation numbers 
     1.0000   1.0000   1.0000   1.0000   0.0000   0.0000   0.0000   0.0000

          k = 0.0000 0.2771 0.0000 (  4352 PWs)   bands (ev):

   -20.1615  -8.5075  -7.4041  -6.5291   2.5525   3.4332   4.4020   5.4602

     occupation numbers 
     1.0000   1.0000   1.0000   1.0000   0.0000   0.0000   0.0000   0.0000

          k = 0.0000 0.3002 0.0000 (  4358 PWs)   bands (ev):

   -19.9896  -8.9434  -7.1673  -6.6964   2.8525   3.6290   4.7134   5.4061

     occupation numbers 
     1.0000   1.0000   1.0000   1.0000   0.0000   0.0000   0.0000   0.0000

          k = 0.0000 0.3233 0.0000 (  4352 PWs)   bands (ev):

   -19.8087  -9.3761  -6.9167  -6.8563   3.1732   3.7523   5.0477   5.3266

     occupation numbers 
     1.0000   1.0000   1.0000   1.0000   0.0000   0.0000   0.0000   0.0000

          k = 0.0000 0.3464 0.0000 (  4362 PWs)   bands (ev):

   -19.6206  -9.8020  -7.0072  -6.6548   3.5133   3.7311   5.3402   5.4030

     occupation numbers 
     1.0000   1.0000   1.0000   1.0000   0.0000   0.0000   0.0000   0.0000

          k = 0.0000 0.3695 0.0000 (  4374 PWs)   bands (ev):

   -19.4275 -10.2163  -7.1477  -6.3838   3.5444   3.8708   5.5052   5.7752

     occupation numbers 
     1.0000   1.0000   1.0000   1.0000   0.0000   0.0000   0.0000   0.0000

          k = 0.0000 0.3926 0.0000 (  4382 PWs)   bands (ev):

   -19.2318 -10.6143  -7.2765  -6.1069   3.2469   4.2422   5.7879   6.1536

     occupation numbers 
     1.0000   1.0000   1.0000   1.0000   0.0000   0.0000   0.0000   0.0000

          k = 0.0000 0.4157 0.0000 (  4374 PWs)   bands (ev):

   -19.0372 -10.9903  -7.3921  -5.8281   2.8987   4.6218   6.1437   6.5028

     occupation numbers 
     1.0000   1.0000   1.0000   1.0000   0.0000   0.0000   0.0000   0.0000

          k = 0.0000 0.4388 0.0000 (  4400 PWs)   bands (ev):

   -18.8480 -11.3400  -7.4947  -5.5538   2.5357   4.9987   6.5476   6.7530

     occupation numbers 
     1.0000   1.0000   1.0000   1.0000   0.0000   0.0000   0.0000   0.0000

          k = 0.0000 0.4619 0.0000 (  4398 PWs)   bands (ev):

   -18.6692 -11.6559  -7.5822  -5.2899   2.1834   5.3540   6.9243   6.9870

     occupation numbers 
     1.0000   1.0000   1.0000   1.0000   0.0000   0.0000   0.0000   0.0000

          k = 0.0000 0.4850 0.0000 (  4392 PWs)   bands (ev):

   -18.5073 -11.9311  -7.6546  -5.0465   1.8595   5.6578   7.1178   7.4543

     occupation numbers 
     1.0000   1.0000   1.0000   1.0000   0.0000   0.0000   0.0000   0.0000

          k = 0.0000 0.5081 0.0000 (  4374 PWs)   bands (ev):

   -18.3694 -12.1576  -7.7111  -4.8353   1.5818   5.8803   7.3939   7.9435

     occupation numbers 
     1.0000   1.0000   1.0000   1.0000   0.0000   0.0000   0.0000   0.0000

          k = 0.0000 0.5312 0.0000 (  4380 PWs)   bands (ev):

   -18.2636 -12.3275  -7.7519  -4.6703   1.3664   6.0164   7.7630   8.4456

     occupation numbers 
     1.0000   1.0000   1.0000   1.0000   0.0000   0.0000   0.0000   0.0000

          k = 0.0000 0.5543 0.0000 (  4368 PWs)   bands (ev):

   -18.1967 -12.4325  -7.7763  -4.5642   1.2294   6.0854   8.1936   8.9348

     occupation numbers 
     1.0000   1.0000   1.0000   1.0000   0.0000   0.0000   0.0000   0.0000

          k = 0.0000-0.5774 0.0000 (  4348 PWs)   bands (ev):

   -18.1736 -12.4679  -7.7843  -4.5273   1.1823   6.1063   8.5123   8.9998

     occupation numbers 
     1.0000   1.0000   1.0000   1.0000   0.0000   0.0000   0.0000   0.0000

          k = 0.0200 0.0346 0.0000 (  4339 PWs)   bands (ev):

   -21.1942  -8.8103  -5.1155  -5.0627   0.7909   1.8827   2.6212   4.3233

     occupation numbers 
     1.0000   1.0000   1.0000   1.0000   0.0000   0.0000   0.0000   0.0000

          k = 0.0200 0.0577 0.0000 (  4343 PWs)   bands (ev):

   -21.1637  -8.7691  -5.2444  -5.1237   0.8440   1.9302   2.6724   4.3690

     occupation numbers 
     1.0000   1.0000   1.0000   1.0000   0.0000   0.0000   0.0000   0.0000

          k = 0.0200 0.0808 0.0000 (  4338 PWs)   bands (ev):

   -21.1180  -8.7074  -5.4320  -5.2117   0.9229   2.0014   2.7492   4.4372

     occupation numbers 
     1.0000   1.0000   1.0000   1.0000   0.0000   0.0000   0.0000   0.0000

          k = 0.0200 0.1039 0.0000 (  4332 PWs)   bands (ev):

   -21.0573  -8.6253  -5.6730  -5.3241   1.0271   2.0959   2.8513   4.5274

[...]

     occupation numbers 
     1.0000   1.0000   1.0000   1.0000   0.0000   0.0000   0.0000   0.0000

          k = 0.1400 0.5427 0.0000 (  4364 PWs)   bands (ev):

   -18.0474 -12.1715  -8.7511  -4.3443   1.3251   7.2697   8.6198   8.9095

     occupation numbers 
     1.0000   1.0000   1.0000   1.0000   0.0000   0.0000   0.0000   0.0000

          k = 0.1400 0.5658 0.0000 (  4358 PWs)   bands (ev):

   -18.0048 -12.2360  -8.7692  -4.2751   1.2407   7.4045   8.8638   9.2250

     occupation numbers 
     1.0000   1.0000   1.0000   1.0000   0.0000   0.0000   0.0000   0.0000

          k = 0.1600 0.2771 0.0000 (  4370 PWs)   bands (ev):

   -19.8310  -8.9362  -7.4025  -6.9492   3.1623   3.7888   5.0152   5.4080

     occupation numbers 
     1.0000   1.0000   1.0000   1.0000   0.0000   0.0000   0.0000   0.0000

          k = 0.1600 0.3002 0.0000 (  4360 PWs)   bands (ev):

   -19.6653  -9.2569  -7.6345  -6.7192   3.4681   3.8481   5.3300   5.3884

     occupation numbers 
     1.0000   1.0000   1.0000   1.0000   0.0000   0.0000   0.0000   0.0000

          k = 0.1600 0.3233 0.0000 (  4370 PWs)   bands (ev):

   -19.4916  -9.5865  -7.8535  -6.4766   3.7871   3.7963   5.4684   5.6693

     occupation numbers 
     1.0000   1.0000   1.0000   1.0000   0.0000   0.0000   0.0000   0.0000

          k = 0.1600 0.3464 0.0000 (  4369 PWs)   bands (ev):

   -19.3113  -9.9203  -8.0556  -6.2232   3.6094   4.1464   5.6597   6.0327

     occupation numbers 
     1.0000   1.0000   1.0000   1.0000   0.0000   0.0000   0.0000   0.0000

          k = 0.1600 0.3695 0.0000 (  4371 PWs)   bands (ev):

   -19.1267 -10.2543  -8.2395  -5.9615   3.3532   4.5174   5.9351   6.4196

     occupation numbers 
     1.0000   1.0000   1.0000   1.0000   0.0000   0.0000   0.0000   0.0000

          k = 0.1600 0.3926 0.0000 (  4364 PWs)   bands (ev):

   -18.9405 -10.5822  -8.4043  -5.6947   3.0541   4.9084   6.2672   6.8290

     occupation numbers 
     1.0000   1.0000   1.0000   1.0000   0.0000   0.0000   0.0000   0.0000

          k = 0.1600 0.4157 0.0000 (  4369 PWs)   bands (ev):

   -18.7561 -10.8987  -8.5495  -5.4273   2.7358   5.3174   6.6392   7.2588

     occupation numbers 
     1.0000   1.0000   1.0000   1.0000   0.0000   0.0000   0.0000   0.0000

          k = 0.1600 0.4388 0.0000 (  4367 PWs)   bands (ev):

   -18.5775 -11.1966  -8.6751  -5.1644   2.4158   5.7417   7.0405   7.7021

     occupation numbers 
     1.0000   1.0000   1.0000   1.0000   0.0000   0.0000   0.0000   0.0000

          k = 0.1600 0.4619 0.0000 (  4369 PWs)   bands (ev):

   -18.4099 -11.4689  -8.7813  -4.9131   2.1076   6.1763   7.4633   8.1366

     occupation numbers 
     1.0000   1.0000   1.0000   1.0000   0.0000   0.0000   0.0000   0.0000

          k = 0.1600 0.4850 0.0000 (  4369 PWs)   bands (ev):

   -18.2590 -11.7077  -8.8679  -4.6823   1.8251   6.6120   7.8992   8.4722

     occupation numbers 
     1.0000   1.0000   1.0000   1.0000   0.0000   0.0000   0.0000   0.0000

          k = 0.1600 0.5081 0.0000 (  4366 PWs)   bands (ev):

   -18.1313 -11.9053  -8.9352  -4.4828   1.5827   7.0304   8.3363   8.6359

     occupation numbers 
     1.0000   1.0000   1.0000   1.0000   0.0000   0.0000   0.0000   0.0000

          k = 0.1600 0.5312 0.0000 (  4358 PWs)   bands (ev):

   -18.0337 -12.0534  -8.9831  -4.3270   1.3948   7.3948   8.7508   8.7614

     occupation numbers 
     1.0000   1.0000   1.0000   1.0000   0.0000   0.0000   0.0000   0.0000

          k = 0.1600 0.5543 0.0000 (  4353 PWs)   bands (ev):

   -17.9723 -12.1454  -9.0119  -4.2273   1.2752   7.6464   8.9270   9.0906

     occupation numbers 
     1.0000   1.0000   1.0000   1.0000   0.0000   0.0000   0.0000   0.0000

          k = 0.1600 0.5774 0.0000 (  4362 PWs)   bands (ev):

   -17.9514 -12.1768  -9.0217  -4.1929   1.2340   7.7345   9.0446   9.2369

     occupation numbers 
     1.0000   1.0000   1.0000   1.0000   0.0000   0.0000   0.0000   0.0000

          k = 0.1800 0.3118 0.0000 (  4364 PWs)   bands (ev):

   -19.4975  -9.5497  -7.8805  -6.4850   3.7859   3.7973   5.4654   5.6576

     occupation numbers 
     1.0000   1.0000   1.0000   1.0000   0.0000   0.0000   0.0000   0.0000

          k = 0.1800 0.3349 0.0000 (  4374 PWs)   bands (ev):

   -19.3226  -9.8492  -8.1125  -6.2395   3.6385   4.1262   5.6455   6.0095

     occupation numbers 
     1.0000   1.0000   1.0000   1.0000   0.0000   0.0000   0.0000   0.0000

          k = 0.1800 0.3580 0.0000 (  4385 PWs)   bands (ev):

   -19.1426 -10.1525  -8.3266  -5.9845   3.4038   4.4881   5.9065   6.3855

     occupation numbers 
     1.0000   1.0000   1.0000   1.0000   0.0000   0.0000   0.0000   0.0000

          k = 0.1800 0.3811 0.0000 (  4379 PWs)   bands (ev):

   -18.9596 -10.4557  -8.5196  -5.7229   3.1248   4.8710   6.2236   6.7851

     occupation numbers 
     1.0000   1.0000   1.0000   1.0000   0.0000   0.0000   0.0000   0.0000

          k = 0.1800 0.4041 0.0000 (  4373 PWs)   bands (ev):

   -18.7768 -10.7536  -8.6907  -5.4584   2.8231   5.2734   6.5804   7.2074

     occupation numbers 
     1.0000   1.0000   1.0000   1.0000   0.0000   0.0000   0.0000   0.0000

          k = 0.1800 0.4272 0.0000 (  4377 PWs)   bands (ev):

   -18.5981 -11.0401  -8.8395  -5.1963   2.5148   5.6936   6.9663   7.6495

     occupation numbers 
     1.0000   1.0000   1.0000   1.0000   0.0000   0.0000   0.0000   0.0000

          k = 0.1800 0.4503 0.0000 (  4366 PWs)   bands (ev):

   -18.4277 -11.3075  -8.9661  -4.9420   2.2127   6.1285   7.3731   8.1052

     occupation numbers 
     1.0000   1.0000   1.0000   1.0000   0.0000   0.0000   0.0000   0.0000

          k = 0.1800 0.4734 0.0000 (  4370 PWs)   bands (ev):

   -18.2711 -11.5490  -9.0710  -4.7036   1.9289   6.5729   7.7919   8.5493

     occupation numbers 
     1.0000   1.0000   1.0000   1.0000   0.0000   0.0000   0.0000   0.0000

          k = 0.1800 0.4965 0.0000 (  4368 PWs)   bands (ev):

   -18.1343 -11.7559  -9.1543  -4.4910   1.6764   7.0167   8.2101   8.8740

     occupation numbers 
     1.0000   1.0000   1.0000   1.0000   0.0000   0.0000   0.0000   0.0000

          k = 0.1800 0.5196 0.0000 (  4356 PWs)   bands (ev):

   -18.0236 -11.9201  -9.2165  -4.3152   1.4693   7.4397   8.6062   9.0052

     occupation numbers 
     1.0000   1.0000   1.0000   1.0000   0.0000   0.0000   0.0000   0.0000

          k = 0.1800 0.5427 0.0000 (  4357 PWs)   bands (ev):

   -17.9457 -12.0346  -9.2579  -4.1888   1.3208   7.7981   8.9398   9.0884

     occupation numbers 
     1.0000   1.0000   1.0000   1.0000   0.0000   0.0000   0.0000   0.0000

          k = 0.1800 0.5658 0.0000 (  4356 PWs)   bands (ev):

   -17.9053 -12.0936  -9.2785  -4.1221   1.2432   8.0147   9.1426   9.1729

     occupation numbers 
     1.0000   1.0000   1.0000   1.0000   0.0000   0.0000   0.0000   0.0000

          k = 0.2000 0.3464 0.0000 (  4386 PWs)   bands (ev):

   -19.1478 -10.1159  -8.3585  -5.9922   3.4210   4.4783   5.8971   6.3741

     occupation numbers 
     1.0000   1.0000   1.0000   1.0000   0.0000   0.0000   0.0000   0.0000

          k = 0.2000 0.3695 0.0000 (  4381 PWs)   bands (ev):

   -18.9691 -10.3845  -8.5855  -5.7370   3.1612   4.8520   6.2019   6.7628

     occupation numbers 
     1.0000   1.0000   1.0000   1.0000   0.0000   0.0000   0.0000   0.0000

          k = 0.2000 0.3926 0.0000 (  4386 PWs)   bands (ev):

   -18.7895 -10.6527  -8.7903  -5.4776   2.8777   5.2463   6.5451   7.1750

     occupation numbers 
     1.0000   1.0000   1.0000   1.0000   0.0000   0.0000   0.0000   0.0000

          k = 0.2000 0.4157 0.0000 (  4390 PWs)   bands (ev):

   -18.6121 -10.9157  -8.9706  -5.2181   2.5847   5.6598   6.9165   7.6095

     occupation numbers 
     1.0000   1.0000   1.0000   1.0000   0.0000   0.0000   0.0000   0.0000

          k = 0.2000 0.4388 0.0000 (  4386 PWs)   bands (ev):

   -18.4410 -11.1673  -9.1255  -4.9636   2.2936   6.0905   7.3077   8.0640

     occupation numbers 
     1.0000   1.0000   1.0000   1.0000   0.0000   0.0000   0.0000   0.0000

          k = 0.2000 0.4619 0.0000 (  4373 PWs)   bands (ev):

   -18.2808 -11.4002  -9.2550  -4.7209   2.0151   6.5351   7.7093   8.5313

     occupation numbers 
     1.0000   1.0000   1.0000   1.0000   0.0000   0.0000   0.0000   0.0000

          k = 0.2000 0.4850 0.0000 (  4375 PWs)   bands (ev):

   -18.1374 -11.6071  -9.3602  -4.4989   1.7600   6.9877   8.1078   8.9804

     occupation numbers 
     1.0000   1.0000   1.0000   1.0000   0.0000   0.0000   0.0000   0.0000

          k = 0.2000 0.5081 0.0000 (  4367 PWs)   bands (ev):

   -18.0166 -11.7792  -9.4410  -4.3076   1.5411   7.4371   8.4815   9.2716

     occupation numbers 
     1.0000   1.0000   1.0000   1.0000   0.0000   0.0000   0.0000   0.0000

          k = 0.2000 0.5312 0.0000 (  4363 PWs)   bands (ev):

   -17.9246 -11.9090  -9.4984  -4.1591   1.3714   7.8590   8.7957   9.3463

     occupation numbers 
     1.0000   1.0000   1.0000   1.0000   0.0000   0.0000   0.0000   0.0000

          k = 0.2000 0.5543 0.0000 (  4360 PWs)   bands (ev):

   -17.8669 -11.9900  -9.5326  -4.0639   1.2636   8.1970   9.0062   9.3569

     occupation numbers 
     1.0000   1.0000   1.0000   1.0000   0.0000   0.0000   0.0000   0.0000

          k = 0.2000 0.5774 0.0000 (  4374 PWs)   bands (ev):

   -17.8473 -12.0179  -9.5442  -4.0311   1.2264   8.3376   9.0799   9.3551

     occupation numbers 
     1.0000   1.0000   1.0000   1.0000   0.0000   0.0000   0.0000   0.0000

          k = 0.2200 0.3811 0.0000 (  4376 PWs)   bands (ev):

   -18.7936 -10.6158  -8.8265  -5.4838   2.8966   5.2372   6.5334   7.1641

     occupation numbers 
     1.0000   1.0000   1.0000   1.0000   0.0000   0.0000   0.0000   0.0000

          k = 0.2200 0.4041 0.0000 (  4386 PWs)   bands (ev):

   -18.6191 -10.8449  -9.0448  -5.2289   2.6213   5.6425   6.8916   7.5887

     occupation numbers 
     1.0000   1.0000   1.0000   1.0000   0.0000   0.0000   0.0000   0.0000

          k = 0.2200 0.4272 0.0000 (  4386 PWs)   bands (ev):

   -18.4490 -11.0678  -9.2367  -4.9766   2.3449   6.0664   7.2681   8.0354

     occupation numbers 
     1.0000   1.0000   1.0000   1.0000   0.0000   0.0000   0.0000   0.0000

          k = 0.2200 0.4503 0.0000 (  4380 PWs)   bands (ev):

   -18.2877 -11.2796  -9.4005  -4.7329   2.0767   6.5067   7.6530   8.5014

     occupation numbers 
     1.0000   1.0000   1.0000   1.0000   0.0000   0.0000   0.0000   0.0000

          k = 0.2200 0.4734 0.0000 (  4368 PWs)   bands (ev):

   -18.1401 -11.4735  -9.5355  -4.5051   1.8262   6.9594   8.0320   8.9777

     occupation numbers 
     1.0000   1.0000   1.0000   1.0000   0.0000   0.0000   0.0000   0.0000

          k = 0.2200 0.4965 0.0000 (  4373 PWs)   bands (ev):

   -18.0119 -11.6421  -9.6425  -4.3033   1.6033   7.4177   8.3820   9.4192

     occupation numbers 
     1.0000   1.0000   1.0000   1.0000   0.0000   0.0000   0.0000   0.0000

          k = 0.2200 0.5196 0.0000 (  4371 PWs)   bands (ev):

   -17.9088 -11.7773  -9.7220  -4.1372   1.4205   7.8678   8.6708   9.6317

     occupation numbers 
     1.0000   1.0000   1.0000   1.0000   0.0000   0.0000   0.0000   0.0000

          k = 0.2200 0.5427 0.0000 (  4360 PWs)   bands (ev):

   -17.8364 -11.8721  -9.7743  -4.0177   1.2899   8.2778   8.8674   9.6216

     occupation numbers 
     1.0000   1.0000   1.0000   1.0000   0.0000   0.0000   0.0000   0.0000

          k = 0.2200 0.5658 0.0000 (  4358 PWs)   bands (ev):

   -17.7989 -11.9211  -9.8004  -3.9551   1.2216   8.5634   8.9623   9.5553

     occupation numbers 
     1.0000   1.0000   1.0000   1.0000   0.0000   0.0000   0.0000   0.0000

          k = 0.2400 0.4157 0.0000 (  4386 PWs)   bands (ev):

   -18.4517 -11.0312  -9.2772  -4.9810   2.3625   6.0581   7.2548   8.0255

     occupation numbers 
     1.0000   1.0000   1.0000   1.0000   0.0000   0.0000   0.0000   0.0000

          k = 0.2400 0.4388 0.0000 (  4388 PWs)   bands (ev):

   -18.2912 -11.2098  -9.4831  -4.7391   2.1091   6.4916   7.6245   8.4838

     occupation numbers 
     1.0000   1.0000   1.0000   1.0000   0.0000   0.0000   0.0000   0.0000

          k = 0.2400 0.4619 0.0000 (  4388 PWs)   bands (ev):

   -18.1420 -11.3769  -9.6584  -4.5097   1.8682   6.9399   7.9852   8.9596

     occupation numbers 
     1.0000   1.0000   1.0000   1.0000   0.0000   0.0000   0.0000   0.0000

          k = 0.2400 0.4850 0.0000 (  4378 PWs)   bands (ev):

   -18.0091 -11.5268  -9.8018  -4.3010   1.6491   7.3983   8.3124   9.4390

     occupation numbers 
     1.0000   1.0000   1.0000   1.0000   0.0000   0.0000   0.0000   0.0000

          k = 0.2400 0.5081 0.0000 (  4368 PWs)   bands (ev):

   -17.8978 -11.6536  -9.9126  -4.1219   1.4616   7.8578   8.5744   9.8314

     occupation numbers 
     1.0000   1.0000   1.0000   1.0000   0.0000   0.0000   0.0000   0.0000

          k = 0.2400 0.5312 0.0000 (  4356 PWs)   bands (ev):

   -17.8136 -11.7502  -9.9910  -3.9834   1.3165   8.2997   8.7478   9.9072

     occupation numbers 
     1.0000   1.0000   1.0000   1.0000   0.0000   0.0000   0.0000   0.0000

          k = 0.2400 0.5543 0.0000 (  4355 PWs)   bands (ev):

   -17.7610 -11.8111 -10.0379  -3.8952   1.2243   8.6753   8.8375   9.8188

     occupation numbers 
     1.0000   1.0000   1.0000   1.0000   0.0000   0.0000   0.0000   0.0000

          k = 0.2400 0.5774 0.0000 (  4358 PWs)   bands (ev):

   -17.7431 -11.8319 -10.0535  -3.8650   1.1927   8.8481   8.8639   9.7450

     occupation numbers 
     1.0000   1.0000   1.0000   1.0000   0.0000   0.0000   0.0000   0.0000

          k = 0.2600 0.4503 0.0000 (  4400 PWs)   bands (ev):

   -18.1428 -11.3409  -9.7033  -4.5114   1.8827   6.9330   7.9693   8.9520

     occupation numbers 
     1.0000   1.0000   1.0000   1.0000   0.0000   0.0000   0.0000   0.0000

          k = 0.2600 0.4734 0.0000 (  4388 PWs)   bands (ev):

   -18.0078 -11.4584  -9.8927  -4.3000   1.6731   7.3870   8.2765   9.4335

     occupation numbers 
     1.0000   1.0000   1.0000   1.0000   0.0000   0.0000   0.0000   0.0000

          k = 0.2600 0.4965 0.0000 (  4370 PWs)   bands (ev):

   -17.8914 -11.5600 -10.0468  -4.1132   1.4885   7.8468   8.5134   9.8937

     occupation numbers 
     1.0000   1.0000   1.0000   1.0000   0.0000   0.0000   0.0000   0.0000

          k = 0.2600 0.5196 0.0000 (  4367 PWs)   bands (ev):

   -17.7986 -11.6419 -10.1639  -3.9611   1.3376   8.2996   8.6610  10.1325

     occupation numbers 
     1.0000   1.0000   1.0000   1.0000   0.0000   0.0000   0.0000   0.0000

          k = 0.2600 0.5427 0.0000 (  4359 PWs)   bands (ev):

   -17.7337 -11.6997 -10.2421  -3.8525   1.2302   8.7157   8.7331  10.0944

     occupation numbers 
     1.0000   1.0000   1.0000   1.0000   0.0000   0.0000   0.0000   0.0000

          k = 0.2600 0.5658 0.0000 (  4358 PWs)   bands (ev):

   -17.7004 -11.7299 -10.2812  -3.7958   1.1742   8.7594   9.0125   9.9888

     occupation numbers 
     1.0000   1.0000   1.0000   1.0000   0.0000   0.0000   0.0000   0.0000

          k = 0.2800 0.4850 0.0000 (  4374 PWs)   bands (ev):

   -17.8892 -11.5243 -10.0964  -4.1105   1.4979   7.8425   8.4925   9.9022

     occupation numbers 
     1.0000   1.0000   1.0000   1.0000   0.0000   0.0000   0.0000   0.0000

          k = 0.2800 0.5081 0.0000 (  4366 PWs)   bands (ev):

   -17.7911 -11.5745 -10.2636  -3.9499   1.3495   8.2961   8.6155  10.2406

     occupation numbers 
     1.0000   1.0000   1.0000   1.0000   0.0000   0.0000   0.0000   0.0000

          k = 0.2800 0.5312 0.0000 (  4362 PWs)   bands (ev):

   -17.7173 -11.6097 -10.3884  -3.8268   1.2355   8.6649   8.7268  10.3010

     occupation numbers 
     1.0000   1.0000   1.0000   1.0000   0.0000   0.0000   0.0000   0.0000

          k = 0.2800 0.5543 0.0000 (  4365 PWs)   bands (ev):

   -17.6715 -11.6308 -10.4656  -3.7489   1.1637   8.6773   9.0828  10.2480

     occupation numbers 
     1.0000   1.0000   1.0000   1.0000   0.0000   0.0000   0.0000   0.0000

          k = 0.2800 0.5774 0.0000 (  4368 PWs)   bands (ev):

   -17.6560 -11.6378 -10.4916  -3.7223   1.1390   8.6786   9.2393  10.1999

     occupation numbers 
     1.0000   1.0000   1.0000   1.0000   0.0000   0.0000   0.0000   0.0000

          k = 0.3000 0.5196 0.0000 (  4352 PWs)   bands (ev):

   -17.7117 -11.5735 -10.4432  -3.8180   1.2379   8.6413   8.7288  10.3773

     occupation numbers 
     1.0000   1.0000   1.0000   1.0000   0.0000   0.0000   0.0000   0.0000

          k = 0.3000 0.5427 0.0000 (  4369 PWs)   bands (ev):

   -17.6570 -11.5640 -10.5751  -3.7255   1.1589   8.6329   9.1066  10.4209

     occupation numbers 
     1.0000   1.0000   1.0000   1.0000   0.0000   0.0000   0.0000   0.0000

          k = 0.3000 0.5658 0.0000 (  4378 PWs)   bands (ev):

   -17.6290 -11.5555 -10.6460  -3.6772   1.1183   8.6216   9.3492  10.4349

     occupation numbers 
     1.0000   1.0000   1.0000   1.0000   0.0000   0.0000   0.0000   0.0000

          k = 0.3200 0.5543 0.0000 (  4380 PWs)   bands (ev):

   -17.6198 -11.5197 -10.7059  -3.6622   1.1113   8.6013   9.3797  10.5520

     occupation numbers 
     1.0000   1.0000   1.0000   1.0000   0.0000   0.0000   0.0000   0.0000

          k = 0.3200 0.5774 0.0000 (  4392 PWs)   bands (ev):

   -17.6074 -11.5002 -10.7547  -3.6409   1.0951   8.5887   9.4794  10.6432

     occupation numbers 
     1.0000   1.0000   1.0000   1.0000   0.0000   0.0000   0.0000   0.0000

     the Fermi energy is    -1.1343 ev
     (compare with:    -1.1343 eV, computed in scf)

     Writing all to output data dir ./tmp50/hBN_1l_PBE_vdW.save/

     init_run     :      9.85s CPU      9.92s WALL (       1 calls)
     electrons    :     13.42s CPU     14.87s WALL (       1 calls)

     Called by init_run:
     wfcinit      :      0.00s CPU      0.00s WALL (       1 calls)
     wfcinit:atom :      0.02s CPU      0.02s WALL (     234 calls)
     wfcinit:wfcr :      0.66s CPU      0.71s WALL (     234 calls)
     potinit      :      9.53s CPU      9.58s WALL (       1 calls)
     hinit0       :      0.29s CPU      0.30s WALL (       1 calls)

     Called by electrons:
     c_bands      :     13.42s CPU     14.87s WALL (       1 calls)
     v_of_rho     :      9.53s CPU      9.58s WALL (       1 calls)
     v_h          :      0.00s CPU      0.00s WALL (       1 calls)
     v_xc         :      9.53s CPU      9.58s WALL (       1 calls)
     vdW_kernel   :      9.50s CPU      9.54s WALL (       1 calls)

     Called by c_bands:
     init_us_2    :      0.03s CPU      0.03s WALL (     234 calls)
     init_us_2:cp :      0.03s CPU      0.03s WALL (     234 calls)
     cegterg      :     12.59s CPU     13.97s WALL (     402 calls)

     Called by sum_band:

     Called by *egterg:
     cdiaghg      :      0.61s CPU      0.63s WALL (    5685 calls)
     cegterg:over :      0.90s CPU      0.93s WALL (    5451 calls)
     cegterg:upda :      0.83s CPU      1.17s WALL (    5451 calls)
     cegterg:last :      0.81s CPU      0.99s WALL (    3111 calls)
     h_psi        :      9.36s CPU     10.04s WALL (    6087 calls)
     g_psi        :      0.09s CPU      0.15s WALL (    5451 calls)

     Called by h_psi:
     h_psi:calbec :      0.44s CPU      0.47s WALL (    6087 calls)
     vloc_psi     :      8.29s CPU      8.64s WALL (    6087 calls)
     add_vuspsi   :      0.55s CPU      0.83s WALL (    6087 calls)

     General routines
     calbec       :      0.44s CPU      0.45s WALL (    6087 calls)
     fft          :      0.27s CPU      0.27s WALL (      61 calls)
     fftw         :      7.55s CPU      7.83s WALL (   54168 calls)
     davcio       :      0.00s CPU      0.02s WALL (     468 calls)

     Parallel routines

     PWSCF        :     23.79s CPU     25.49s WALL


   This run was terminated on:  12:31: 0  16Apr2024            

=------------------------------------------------------------------------------=
   JOB DONE.
=------------------------------------------------------------------------------=
