
     Program PWSCF v.7.2 starts on 16Apr2024 at 12:18:11 

     This program is part of the open-source Quantum ESPRESSO suite
     for quantum simulation of materials; please cite
         "P. Giannozzi et al., J. Phys.:Condens. Matter 21 395502 (2009);
         "P. Giannozzi et al., J. Phys.:Condens. Matter 29 465901 (2017);
         "P. Giannozzi et al., J. Chem. Phys. 152 154105 (2020);
          URL http://www.quantum-espresso.org", 
     in publications or presentations arising from this work. More details at
     http://www.quantum-espresso.org/quote

     Parallel version (MPI & OpenMP), running on       8 processor cores
     Number of MPI processes:                 8
     Threads/MPI process:                     1

     MPI processes distributed on     1 nodes
     0 MiB available memory on the printing compute node when the environment starts

     Waiting for input...
     Reading input from standard input
Warning: card / ignored
Warning: card $IONS ignored
Warning: card / ignored
Warning: card $CELL ignored
Warning: card / ignored

     Current dimensions of program PWSCF are:
     Max number of different atomic species (ntypx) = 10
     Max number of k-points (npk) =  40000
     Max angular momentum in pseudopotentials (lmaxx) =  4

     Atomic positions and unit cell read from directory:
     ./tmp30/hBN_1l_PBE_vdW.save/
     Atomic positions from file used, from input discarded


     IMPORTANT: XC functional enforced from input :
     Exchange-correlation= VDW-DF2-B86R
                           (   1   4  26   0   2   0   0)
     Any further DFT definition will be discarded
     Please, verify this is what you really want


     R & G space division:  proc/nbgrp/npool/nimage =       8
     Subspace diagonalization in iterative solution of the eigenvalue problem:
     a serial algorithm will be used


     Parallelization info
     --------------------
     sticks:   dense  smooth     PW     G-vecs:    dense   smooth      PW
     Min          45      45     15                 4333     4333     755
     Max          46      46     16                 4356     4356     767
     Sum         367     367    121                34803    34803    6103

     Using Slab Decomposition



     bravais-lattice index     =            4
     lattice parameter (alat)  =       4.7470  a.u.
     unit-cell volume          =     555.8269 (a.u.)^3
     number of atoms/cell      =            2
     number of atomic types    =            2
     number of electrons       =         8.00
     number of Kohn-Sham states=            8
     kinetic-energy cutoff     =      60.0000  Ry
     charge density cutoff     =     240.0000  Ry
     Exchange-correlation= VDW-DF2-B86R
                           (   1   4  26   0   2   0   0)

     celldm(1)=   4.747000  celldm(2)=   0.000000  celldm(3)=   6.000000
     celldm(4)=   0.000000  celldm(5)=   0.000000  celldm(6)=   0.000000

     crystal axes: (cart. coord. in units of alat)
               a(1) = (   1.000000   0.000000   0.000000 )  
               a(2) = (  -0.500000   0.866025   0.000000 )  
               a(3) = (   0.000000   0.000000   6.000000 )  

     reciprocal axes: (cart. coord. in units 2 pi/alat)
               b(1) = (  1.000000  0.577350 -0.000000 )  
               b(2) = (  0.000000  1.154701  0.000000 )  
               b(3) = (  0.000000 -0.000000  0.166667 )  


     PseudoPot. # 1 for N  read from file:
     ../../../Pseudo/PBE/N.upf
     MD5 check sum: d34365f73bb0e2ee98afc20ec3e87676
     Pseudo is Norm-conserving + core correction, Zval =  5.0
     Generated using ONCVPSP code by D. R. Hamann
     Using radial grid of 1058 points,  4 beta functions with: 
                l(1) =   0
                l(2) =   0
                l(3) =   1
                l(4) =   1

     PseudoPot. # 2 for B  read from file:
     ../../../Pseudo/PBE/B.upf
     MD5 check sum: 72f82fc31bc892420d0cab7e25c88ab8
     Pseudo is Norm-conserving + core correction, Zval =  3.0
     Generated using ONCVPSP code by D. R. Hamann
     Using radial grid of 1534 points,  4 beta functions with: 
                l(1) =   0
                l(2) =   0
                l(3) =   1
                l(4) =   1

     atomic species   valence    mass     pseudopotential
        N              5.00    14.00670     N ( 1.00)
        B              3.00    10.80100     B ( 1.00)

     12 Sym. Ops. (no inversion) found


                                    s                        frac. trans.

      isym =  1     identity                                     

 cryst.   s( 1) = (     1          0          0      )
                  (     0          1          0      )
                  (     0          0          1      )

 cart.    s( 1) = (  1.0000000  0.0000000  0.0000000 )
                  (  0.0000000  1.0000000  0.0000000 )
                  (  0.0000000  0.0000000  1.0000000 )


      isym =  2     180 deg rotation - cart. axis [0,1,0]        

 cryst.   s( 2) = (    -1          0          0      )
                  (     1          1          0      )
                  (     0          0         -1      )

 cart.    s( 2) = ( -1.0000000  0.0000000  0.0000000 )
                  (  0.0000000  1.0000000  0.0000000 )
                  (  0.0000000  0.0000000 -1.0000000 )


      isym =  3     120 deg rotation - cryst. axis [0,0,1]       

 cryst.   s( 3) = (     0          1          0      )
                  (    -1         -1          0      )
                  (     0          0          1      )

 cart.    s( 3) = ( -0.5000000 -0.8660254  0.0000000 )
                  (  0.8660254 -0.5000000  0.0000000 )
                  (  0.0000000  0.0000000  1.0000000 )


      isym =  4     120 deg rotation - cryst. axis [0,0,-1]      

 cryst.   s( 4) = (    -1         -1          0      )
                  (     1          0          0      )
                  (     0          0          1      )

 cart.    s( 4) = ( -0.5000000  0.8660254  0.0000000 )
                  ( -0.8660254 -0.5000000  0.0000000 )
                  (  0.0000000  0.0000000  1.0000000 )


      isym =  5     180 deg rotation - cryst. axis [1,-1,0]      

 cryst.   s( 5) = (     0         -1          0      )
                  (    -1          0          0      )
                  (     0          0         -1      )

 cart.    s( 5) = (  0.5000000 -0.8660254  0.0000000 )
                  ( -0.8660254 -0.5000000  0.0000000 )
                  (  0.0000000  0.0000000 -1.0000000 )


      isym =  6     180 deg rotation - cryst. axis [2,1,0]       

 cryst.   s( 6) = (     1          1          0      )
                  (     0         -1          0      )
                  (     0          0         -1      )

 cart.    s( 6) = (  0.5000000  0.8660254  0.0000000 )
                  (  0.8660254 -0.5000000  0.0000000 )
                  (  0.0000000  0.0000000 -1.0000000 )


      isym =  7     inv. 180 deg rotation - cart. axis [0,0,1]   

 cryst.   s( 7) = (     1          0          0      )
                  (     0          1          0      )
                  (     0          0         -1      )

 cart.    s( 7) = (  1.0000000  0.0000000  0.0000000 )
                  (  0.0000000  1.0000000  0.0000000 )
                  (  0.0000000  0.0000000 -1.0000000 )


      isym =  8     inv. 180 deg rotation - cart. axis [1,0,0]   

 cryst.   s( 8) = (    -1          0          0      )
                  (     1          1          0      )
                  (     0          0          1      )

 cart.    s( 8) = ( -1.0000000  0.0000000  0.0000000 )
                  (  0.0000000  1.0000000  0.0000000 )
                  (  0.0000000  0.0000000  1.0000000 )


      isym =  9     inv.  60 deg rotation - cryst. axis [0,0,1]  

 cryst.   s( 9) = (    -1         -1          0      )
                  (     1          0          0      )
                  (     0          0         -1      )

 cart.    s( 9) = ( -0.5000000  0.8660254  0.0000000 )
                  ( -0.8660254 -0.5000000  0.0000000 )
                  (  0.0000000  0.0000000 -1.0000000 )


      isym = 10     inv.  60 deg rotation - cryst. axis [0,0,-1] 

 cryst.   s(10) = (     0          1          0      )
                  (    -1         -1          0      )
                  (     0          0         -1      )

 cart.    s(10) = ( -0.5000000 -0.8660254  0.0000000 )
                  (  0.8660254 -0.5000000  0.0000000 )
                  (  0.0000000  0.0000000 -1.0000000 )


      isym = 11     inv. 180 deg rotation - cryst. axis [0,1,0]  

 cryst.   s(11) = (     1          1          0      )
                  (     0         -1          0      )
                  (     0          0          1      )

 cart.    s(11) = (  0.5000000  0.8660254  0.0000000 )
                  (  0.8660254 -0.5000000  0.0000000 )
                  (  0.0000000  0.0000000  1.0000000 )


      isym = 12     inv. 180 deg rotation - cryst. axis [1,1,0]  

 cryst.   s(12) = (     0         -1          0      )
                  (    -1          0          0      )
                  (     0          0          1      )

 cart.    s(12) = (  0.5000000 -0.8660254  0.0000000 )
                  ( -0.8660254 -0.5000000  0.0000000 )
                  (  0.0000000  0.0000000  1.0000000 )


     point group D_3h (-62m)
     there are  6 classes
     the character table:

       E     2C3   3C2   s_h   2S3   3s_v 
A'_1   1.00  1.00  1.00  1.00  1.00  1.00
A'_2   1.00  1.00 -1.00  1.00  1.00 -1.00
E'     2.00 -1.00  0.00  2.00 -1.00  0.00
A''1   1.00  1.00  1.00 -1.00 -1.00 -1.00
A''2   1.00  1.00 -1.00 -1.00 -1.00  1.00
E''    2.00 -1.00  0.00 -2.00  1.00  0.00

     the symmetry operations in each class and the name of the first element:

     E        1
          identity                                               
     2C3      3    4
          120 deg rotation - cryst. axis [0,0,1]                 
     3C2      2    6    5
          180 deg rotation - cart. axis [0,1,0]                  
     s_h      7
          inv. 180 deg rotation - cart. axis [0,0,1]             
     2S3      9   10
          inv.  60 deg rotation - cryst. axis [0,0,1]            
     3s_v     8   11   12
          inv. 180 deg rotation - cart. axis [1,0,0]             

   Cartesian axes

     site n.     atom                  positions (alat units)
         1           B   tau(   1) = (   0.0000000   0.0000000   0.0000000  )
         2           N   tau(   2) = (  -0.0000000   0.5773503   0.0000000  )

   Crystallographic axes

     site n.     atom                  positions (cryst. coord.)
         1           B   tau(   1) = (  0.0000000  0.0000000  0.0000000  )
         2           N   tau(   2) = (  0.3333333  0.6666667  0.0000000  )

     number of k points=    91  Marzari-Vanderbilt smearing, width (Ry)=  0.0050
                       cart. coord. in units 2pi/alat
        k(    1) = (   0.0000000   0.0000000   0.0000000), wk =   0.0022222
        k(    2) = (   0.0000000   0.0384900   0.0000000), wk =   0.0133333
        k(    3) = (   0.0000000   0.0769800   0.0000000), wk =   0.0133333
        k(    4) = (   0.0000000   0.1154701   0.0000000), wk =   0.0133333
        k(    5) = (   0.0000000   0.1539601   0.0000000), wk =   0.0133333
        k(    6) = (   0.0000000   0.1924501   0.0000000), wk =   0.0133333
        k(    7) = (   0.0000000   0.2309401   0.0000000), wk =   0.0133333
        k(    8) = (   0.0000000   0.2694301   0.0000000), wk =   0.0133333
        k(    9) = (   0.0000000   0.3079201   0.0000000), wk =   0.0133333
        k(   10) = (   0.0000000   0.3464102   0.0000000), wk =   0.0133333
        k(   11) = (   0.0000000   0.3849002   0.0000000), wk =   0.0133333
        k(   12) = (   0.0000000   0.4233902   0.0000000), wk =   0.0133333
        k(   13) = (   0.0000000   0.4618802   0.0000000), wk =   0.0133333
        k(   14) = (   0.0000000   0.5003702   0.0000000), wk =   0.0133333
        k(   15) = (   0.0000000   0.5388603   0.0000000), wk =   0.0133333
        k(   16) = (   0.0000000  -0.5773503   0.0000000), wk =   0.0066667
        k(   17) = (   0.0333333   0.0577350   0.0000000), wk =   0.0133333
        k(   18) = (   0.0333333   0.0962250   0.0000000), wk =   0.0266667
        k(   19) = (   0.0333333   0.1347151   0.0000000), wk =   0.0266667
        k(   20) = (   0.0333333   0.1732051   0.0000000), wk =   0.0266667
        k(   21) = (   0.0333333   0.2116951   0.0000000), wk =   0.0266667
        k(   22) = (   0.0333333   0.2501851   0.0000000), wk =   0.0266667
        k(   23) = (   0.0333333   0.2886751   0.0000000), wk =   0.0266667
        k(   24) = (   0.0333333   0.3271652   0.0000000), wk =   0.0266667
        k(   25) = (   0.0333333   0.3656552   0.0000000), wk =   0.0266667
        k(   26) = (   0.0333333   0.4041452   0.0000000), wk =   0.0266667
        k(   27) = (   0.0333333   0.4426352   0.0000000), wk =   0.0266667
        k(   28) = (   0.0333333   0.4811252   0.0000000), wk =   0.0266667
        k(   29) = (   0.0333333   0.5196152   0.0000000), wk =   0.0266667
        k(   30) = (   0.0333333   0.5581053   0.0000000), wk =   0.0266667
        k(   31) = (   0.0666667   0.1154701   0.0000000), wk =   0.0133333
        k(   32) = (   0.0666667   0.1539601   0.0000000), wk =   0.0266667
        k(   33) = (   0.0666667   0.1924501   0.0000000), wk =   0.0266667
        k(   34) = (   0.0666667   0.2309401   0.0000000), wk =   0.0266667
        k(   35) = (   0.0666667   0.2694301   0.0000000), wk =   0.0266667
        k(   36) = (   0.0666667   0.3079201   0.0000000), wk =   0.0266667
        k(   37) = (   0.0666667   0.3464102   0.0000000), wk =   0.0266667
        k(   38) = (   0.0666667   0.3849002   0.0000000), wk =   0.0266667
        k(   39) = (   0.0666667   0.4233902   0.0000000), wk =   0.0266667
        k(   40) = (   0.0666667   0.4618802   0.0000000), wk =   0.0266667
        k(   41) = (   0.0666667   0.5003702   0.0000000), wk =   0.0266667
        k(   42) = (   0.0666667   0.5388603   0.0000000), wk =   0.0266667
        k(   43) = (   0.0666667   0.5773503   0.0000000), wk =   0.0133333
        k(   44) = (   0.1000000   0.1732051   0.0000000), wk =   0.0133333
        k(   45) = (   0.1000000   0.2116951   0.0000000), wk =   0.0266667
        k(   46) = (   0.1000000   0.2501851   0.0000000), wk =   0.0266667
        k(   47) = (   0.1000000   0.2886751   0.0000000), wk =   0.0266667
        k(   48) = (   0.1000000   0.3271652   0.0000000), wk =   0.0266667
        k(   49) = (   0.1000000   0.3656552   0.0000000), wk =   0.0266667
        k(   50) = (   0.1000000   0.4041452   0.0000000), wk =   0.0266667
        k(   51) = (   0.1000000   0.4426352   0.0000000), wk =   0.0266667
        k(   52) = (   0.1000000   0.4811252   0.0000000), wk =   0.0266667
        k(   53) = (   0.1000000   0.5196152   0.0000000), wk =   0.0266667
        k(   54) = (   0.1000000   0.5581053   0.0000000), wk =   0.0266667
        k(   55) = (   0.1333333   0.2309401   0.0000000), wk =   0.0133333
        k(   56) = (   0.1333333   0.2694301   0.0000000), wk =   0.0266667
        k(   57) = (   0.1333333   0.3079201   0.0000000), wk =   0.0266667
        k(   58) = (   0.1333333   0.3464102   0.0000000), wk =   0.0266667
        k(   59) = (   0.1333333   0.3849002   0.0000000), wk =   0.0266667
        k(   60) = (   0.1333333   0.4233902   0.0000000), wk =   0.0266667
        k(   61) = (   0.1333333   0.4618802   0.0000000), wk =   0.0266667
        k(   62) = (   0.1333333   0.5003702   0.0000000), wk =   0.0266667
        k(   63) = (   0.1333333   0.5388603   0.0000000), wk =   0.0266667
        k(   64) = (   0.1333333   0.5773503   0.0000000), wk =   0.0133333
        k(   65) = (   0.1666667   0.2886751   0.0000000), wk =   0.0133333
        k(   66) = (   0.1666667   0.3271652   0.0000000), wk =   0.0266667
        k(   67) = (   0.1666667   0.3656552   0.0000000), wk =   0.0266667
        k(   68) = (   0.1666667   0.4041452   0.0000000), wk =   0.0266667
        k(   69) = (   0.1666667   0.4426352   0.0000000), wk =   0.0266667
        k(   70) = (   0.1666667   0.4811252   0.0000000), wk =   0.0266667
        k(   71) = (   0.1666667   0.5196152   0.0000000), wk =   0.0266667
        k(   72) = (   0.1666667   0.5581053   0.0000000), wk =   0.0266667
        k(   73) = (   0.2000000   0.3464102   0.0000000), wk =   0.0133333
        k(   74) = (   0.2000000   0.3849002   0.0000000), wk =   0.0266667
        k(   75) = (   0.2000000   0.4233902   0.0000000), wk =   0.0266667
        k(   76) = (   0.2000000   0.4618802   0.0000000), wk =   0.0266667
        k(   77) = (   0.2000000   0.5003702   0.0000000), wk =   0.0266667
        k(   78) = (   0.2000000   0.5388603   0.0000000), wk =   0.0266667
        k(   79) = (   0.2000000   0.5773503   0.0000000), wk =   0.0133333
        k(   80) = (   0.2333333   0.4041452   0.0000000), wk =   0.0133333
        k(   81) = (   0.2333333   0.4426352   0.0000000), wk =   0.0266667
        k(   82) = (   0.2333333   0.4811252   0.0000000), wk =   0.0266667
        k(   83) = (   0.2333333   0.5196152   0.0000000), wk =   0.0266667
        k(   84) = (   0.2333333   0.5581053   0.0000000), wk =   0.0266667
        k(   85) = (   0.2666667   0.4618802   0.0000000), wk =   0.0133333
        k(   86) = (   0.2666667   0.5003702   0.0000000), wk =   0.0266667
        k(   87) = (   0.2666667   0.5388603   0.0000000), wk =   0.0266667
        k(   88) = (   0.2666667   0.5773503   0.0000000), wk =   0.0133333
        k(   89) = (   0.3000000   0.5196152   0.0000000), wk =   0.0133333
        k(   90) = (   0.3000000   0.5581053   0.0000000), wk =   0.0266667
        k(   91) = (   0.3333333   0.5773503   0.0000000), wk =   0.0044444

                       cryst. coord.
        k(    1) = (   0.0000000   0.0000000   0.0000000), wk =   0.0022222
        k(    2) = (   0.0000000   0.0333333   0.0000000), wk =   0.0133333
        k(    3) = (   0.0000000   0.0666667   0.0000000), wk =   0.0133333
        k(    4) = (   0.0000000   0.1000000   0.0000000), wk =   0.0133333
        k(    5) = (   0.0000000   0.1333333   0.0000000), wk =   0.0133333
        k(    6) = (   0.0000000   0.1666667   0.0000000), wk =   0.0133333
        k(    7) = (   0.0000000   0.2000000   0.0000000), wk =   0.0133333
        k(    8) = (   0.0000000   0.2333333   0.0000000), wk =   0.0133333
        k(    9) = (   0.0000000   0.2666667   0.0000000), wk =   0.0133333
        k(   10) = (   0.0000000   0.3000000   0.0000000), wk =   0.0133333
        k(   11) = (   0.0000000   0.3333333   0.0000000), wk =   0.0133333
        k(   12) = (   0.0000000   0.3666667   0.0000000), wk =   0.0133333
        k(   13) = (   0.0000000   0.4000000   0.0000000), wk =   0.0133333
        k(   14) = (   0.0000000   0.4333333   0.0000000), wk =   0.0133333
        k(   15) = (   0.0000000   0.4666667   0.0000000), wk =   0.0133333
        k(   16) = (   0.0000000  -0.5000000   0.0000000), wk =   0.0066667
        k(   17) = (   0.0333333   0.0333333   0.0000000), wk =   0.0133333
        k(   18) = (   0.0333333   0.0666667   0.0000000), wk =   0.0266667
        k(   19) = (   0.0333333   0.1000000   0.0000000), wk =   0.0266667
        k(   20) = (   0.0333333   0.1333333   0.0000000), wk =   0.0266667
        k(   21) = (   0.0333333   0.1666667   0.0000000), wk =   0.0266667
        k(   22) = (   0.0333333   0.2000000   0.0000000), wk =   0.0266667
        k(   23) = (   0.0333333   0.2333333   0.0000000), wk =   0.0266667
        k(   24) = (   0.0333333   0.2666667   0.0000000), wk =   0.0266667
        k(   25) = (   0.0333333   0.3000000   0.0000000), wk =   0.0266667
        k(   26) = (   0.0333333   0.3333333   0.0000000), wk =   0.0266667
        k(   27) = (   0.0333333   0.3666667   0.0000000), wk =   0.0266667
        k(   28) = (   0.0333333   0.4000000   0.0000000), wk =   0.0266667
        k(   29) = (   0.0333333   0.4333333   0.0000000), wk =   0.0266667
        k(   30) = (   0.0333333   0.4666667   0.0000000), wk =   0.0266667
        k(   31) = (   0.0666667   0.0666667   0.0000000), wk =   0.0133333
        k(   32) = (   0.0666667   0.1000000   0.0000000), wk =   0.0266667
        k(   33) = (   0.0666667   0.1333333   0.0000000), wk =   0.0266667
        k(   34) = (   0.0666667   0.1666667   0.0000000), wk =   0.0266667
        k(   35) = (   0.0666667   0.2000000   0.0000000), wk =   0.0266667
        k(   36) = (   0.0666667   0.2333333   0.0000000), wk =   0.0266667
        k(   37) = (   0.0666667   0.2666667   0.0000000), wk =   0.0266667
        k(   38) = (   0.0666667   0.3000000   0.0000000), wk =   0.0266667
        k(   39) = (   0.0666667   0.3333333   0.0000000), wk =   0.0266667
        k(   40) = (   0.0666667   0.3666667   0.0000000), wk =   0.0266667
        k(   41) = (   0.0666667   0.4000000   0.0000000), wk =   0.0266667
        k(   42) = (   0.0666667   0.4333333   0.0000000), wk =   0.0266667
        k(   43) = (   0.0666667   0.4666667   0.0000000), wk =   0.0133333
        k(   44) = (   0.1000000   0.1000000   0.0000000), wk =   0.0133333
        k(   45) = (   0.1000000   0.1333333   0.0000000), wk =   0.0266667
        k(   46) = (   0.1000000   0.1666667   0.0000000), wk =   0.0266667
        k(   47) = (   0.1000000   0.2000000   0.0000000), wk =   0.0266667
        k(   48) = (   0.1000000   0.2333333   0.0000000), wk =   0.0266667
        k(   49) = (   0.1000000   0.2666667   0.0000000), wk =   0.0266667
        k(   50) = (   0.1000000   0.3000000   0.0000000), wk =   0.0266667
        k(   51) = (   0.1000000   0.3333333   0.0000000), wk =   0.0266667
        k(   52) = (   0.1000000   0.3666667   0.0000000), wk =   0.0266667
        k(   53) = (   0.1000000   0.4000000   0.0000000), wk =   0.0266667
        k(   54) = (   0.1000000   0.4333333   0.0000000), wk =   0.0266667
        k(   55) = (   0.1333333   0.1333333   0.0000000), wk =   0.0133333
        k(   56) = (   0.1333333   0.1666667   0.0000000), wk =   0.0266667
        k(   57) = (   0.1333333   0.2000000   0.0000000), wk =   0.0266667
        k(   58) = (   0.1333333   0.2333333   0.0000000), wk =   0.0266667
        k(   59) = (   0.1333333   0.2666667   0.0000000), wk =   0.0266667
        k(   60) = (   0.1333333   0.3000000   0.0000000), wk =   0.0266667
        k(   61) = (   0.1333333   0.3333333   0.0000000), wk =   0.0266667
        k(   62) = (   0.1333333   0.3666667   0.0000000), wk =   0.0266667
        k(   63) = (   0.1333333   0.4000000   0.0000000), wk =   0.0266667
        k(   64) = (   0.1333333   0.4333333   0.0000000), wk =   0.0133333
        k(   65) = (   0.1666667   0.1666667   0.0000000), wk =   0.0133333
        k(   66) = (   0.1666667   0.2000000   0.0000000), wk =   0.0266667
        k(   67) = (   0.1666667   0.2333333   0.0000000), wk =   0.0266667
        k(   68) = (   0.1666667   0.2666667   0.0000000), wk =   0.0266667
        k(   69) = (   0.1666667   0.3000000   0.0000000), wk =   0.0266667
        k(   70) = (   0.1666667   0.3333333   0.0000000), wk =   0.0266667
        k(   71) = (   0.1666667   0.3666667   0.0000000), wk =   0.0266667
        k(   72) = (   0.1666667   0.4000000   0.0000000), wk =   0.0266667
        k(   73) = (   0.2000000   0.2000000   0.0000000), wk =   0.0133333
        k(   74) = (   0.2000000   0.2333333   0.0000000), wk =   0.0266667
        k(   75) = (   0.2000000   0.2666667   0.0000000), wk =   0.0266667
        k(   76) = (   0.2000000   0.3000000   0.0000000), wk =   0.0266667
        k(   77) = (   0.2000000   0.3333333   0.0000000), wk =   0.0266667
        k(   78) = (   0.2000000   0.3666667   0.0000000), wk =   0.0266667
        k(   79) = (   0.2000000   0.4000000   0.0000000), wk =   0.0133333
        k(   80) = (   0.2333333   0.2333333   0.0000000), wk =   0.0133333
        k(   81) = (   0.2333333   0.2666667   0.0000000), wk =   0.0266667
        k(   82) = (   0.2333333   0.3000000   0.0000000), wk =   0.0266667
        k(   83) = (   0.2333333   0.3333333   0.0000000), wk =   0.0266667
        k(   84) = (   0.2333333   0.3666667   0.0000000), wk =   0.0266667
        k(   85) = (   0.2666667   0.2666667   0.0000000), wk =   0.0133333
        k(   86) = (   0.2666667   0.3000000   0.0000000), wk =   0.0266667
        k(   87) = (   0.2666667   0.3333333   0.0000000), wk =   0.0266667
        k(   88) = (   0.2666667   0.3666667   0.0000000), wk =   0.0133333
        k(   89) = (   0.3000000   0.3000000   0.0000000), wk =   0.0133333
        k(   90) = (   0.3000000   0.3333333   0.0000000), wk =   0.0266667
        k(   91) = (   0.3333333   0.3333333   0.0000000), wk =   0.0044444

     Dense  grid:    34803 G-vectors     FFT dimensions: (  24,  24, 144)

     Dynamical RAM for                 wfc:       0.07 MB

     Dynamical RAM for     wfc (w. buffer):       0.07 MB

     Dynamical RAM for           str. fact:       0.13 MB

     Dynamical RAM for           local pot:       0.00 MB

     Dynamical RAM for          nlocal pot:       0.13 MB

     Dynamical RAM for                qrad:       0.71 MB

     Dynamical RAM for          rho,v,vnew:       0.44 MB

     Dynamical RAM for           G-vectors:       0.28 MB

     Dynamical RAM for          h,s,v(r/c):       0.01 MB

     Dynamical RAM for          <psi|beta>:       0.00 MB

     Dynamical RAM for                 psi:       0.13 MB

     Dynamical RAM for                hpsi:       0.13 MB

     Dynamical RAM for      wfcinit/wfcrot:       0.13 MB

     Estimated static dynamical RAM per process >       2.36 MB

     Estimated max dynamical RAM per process >       2.64 MB

     Estimated total dynamical RAM >      21.10 MB

     The potential is recalculated from file :
     ./tmp30/hBN_1l_PBE_vdW.save/charge-density



     %%%%%%%%%%%%%%%%%%%%%%%%%%%%%%%%%%%%%%%%%%%%%%%%%%%%%%%%%%%%%%%%%%%%%%%%
     %                                                                      %
     % You are using vdW-DF, which was implemented by the Thonhauser group. %
     % Please cite the following two papers that made this development      %
     % possible and the two reviews that describe the various versions:     %
     %                                                                      %
     %   T. Thonhauser et al., PRL 115, 136402 (2015).                      %
     %   T. Thonhauser et al., PRB 76, 125112 (2007).                       %
     %   K. Berland et al., Rep. Prog. Phys. 78, 066501 (2015).             %
     %   D.C. Langreth et al., J. Phys.: Condens. Matter 21, 084203 (2009). %
     %                                                                      %
     % If you are calculating stress with vdW-DF, please also cite:         %
     %                                                                      %
     %   R. Sabatini et al., J. Phys.: Condens. Matter 24, 424209 (2012).   %
     %                                                                      %
     %%%%%%%%%%%%%%%%%%%%%%%%%%%%%%%%%%%%%%%%%%%%%%%%%%%%%%%%%%%%%%%%%%%%%%%%

     %%%%%%%%%%%%%%%%%%%%%%%%%%%%%%%%%%%%%%%%%%%%%%%%%%%%%%%%%%%%%%%%%%%%%%%%
     %                                                                      %
     %  vdW-DF NEWS:                                                        %
     %                                                                      %
     %  * vdW-DF3 is now available. DOI: 10.1021/acs.jctc.0c00471           %
     %    use with input_dft = 'vdW-DF3-opt1' or 'vdW-DF3-opt2'             %
     %                                                                      %
     %  * Unscreened and range-separated hybrid vdW-DF-cx functionals       %
     %    DOI: 10.1063/1.4986522 and 10.1088/1361-648X/ac2ad2               %
     %    use with input_dft = 'vdW-DF-cx0'    and 'vdW-DF-ahcx'            %
     %  * Unscreened and range-separated hybrid vdW-DF2-b86r functionals    %
     %    DOI: 10.1063/1.4986522 and DOI: 10.1103/PhysRevX.12.041003        %
     %    use with input_dft = 'vdW-DF2-br0' and 'vdW-DF2-ahbr'             %
     %                                                                      %
     %%%%%%%%%%%%%%%%%%%%%%%%%%%%%%%%%%%%%%%%%%%%%%%%%%%%%%%%%%%%%%%%%%%%%%%%


     Carrying out vdW-DF run using the following parameters:
     Nqs    =  20  Npoints =  1024  r_max =  100.000
     q_mesh =  0.00001000  0.04494208  0.09755937  0.15916263
               0.23128650  0.31572767  0.41458969  0.53033537
               0.66584808  0.82450364  1.01025438  1.22772762
               1.48234092  1.78043706  2.12944203  2.53805004
               3.01644009  3.57652955  4.23227104  5.00000000


     -----------------------------------------------
     Non-local corr. energy    =       0.10705985 Ry
     -----------------------------------------------

     Starting wfcs are    8 randomized atomic wfcs

     Band Structure Calculation
     Davidson diagonalization with overlap

     Computing kpt #:     1  of    91
     total cpu time spent up to now is       10.3 secs

     Computing kpt #:     2  of    91
     total cpu time spent up to now is       10.4 secs

     Computing kpt #:     3  of    91
     total cpu time spent up to now is       10.5 secs

     Computing kpt #:     4  of    91
     total cpu time spent up to now is       10.6 secs

     Computing kpt #:     5  of    91
     total cpu time spent up to now is       10.6 secs

     Computing kpt #:     6  of    91
     total cpu time spent up to now is       10.7 secs

     Computing kpt #:     7  of    91
     total cpu time spent up to now is       10.8 secs

     Computing kpt #:     8  of    91
     total cpu time spent up to now is       10.8 secs

     Computing kpt #:     9  of    91
     total cpu time spent up to now is       10.9 secs

     Computing kpt #:    10  of    91
     total cpu time spent up to now is       11.0 secs

     Computing kpt #:    11  of    91
     total cpu time spent up to now is       11.0 secs

     Computing kpt #:    12  of    91
     total cpu time spent up to now is       11.1 secs

     Computing kpt #:    13  of    91
     total cpu time spent up to now is       11.1 secs

     Computing kpt #:    14  of    91
     total cpu time spent up to now is       11.2 secs

     Computing kpt #:    15  of    91
     total cpu time spent up to now is       11.3 secs

     Computing kpt #:    16  of    91
     total cpu time spent up to now is       11.3 secs

     Computing kpt #:    17  of    91
     total cpu time spent up to now is       11.4 secs

     Computing kpt #:    18  of    91
     total cpu time spent up to now is       11.5 secs

     Computing kpt #:    19  of    91
     total cpu time spent up to now is       11.5 secs

     Computing kpt #:    20  of    91
     total cpu time spent up to now is       11.6 secs

     Computing kpt #:    21  of    91
     total cpu time spent up to now is       11.7 secs

     Computing kpt #:    22  of    91
     total cpu time spent up to now is       11.7 secs

     Computing kpt #:    23  of    91
     total cpu time spent up to now is       11.8 secs

     Computing kpt #:    24  of    91
     total cpu time spent up to now is       11.8 secs

     Computing kpt #:    25  of    91
     total cpu time spent up to now is       11.9 secs

     Computing kpt #:    26  of    91
     total cpu time spent up to now is       12.0 secs

     Computing kpt #:    27  of    91
     total cpu time spent up to now is       12.1 secs

     Computing kpt #:    28  of    91
     total cpu time spent up to now is       12.1 secs

     Computing kpt #:    29  of    91
     total cpu time spent up to now is       12.2 secs

     Computing kpt #:    30  of    91
     total cpu time spent up to now is       12.2 secs

     Computing kpt #:    31  of    91
     total cpu time spent up to now is       12.3 secs

     Computing kpt #:    32  of    91
     total cpu time spent up to now is       12.4 secs

     Computing kpt #:    33  of    91
     total cpu time spent up to now is       12.5 secs

     Computing kpt #:    34  of    91
     total cpu time spent up to now is       12.5 secs

     Computing kpt #:    35  of    91
     total cpu time spent up to now is       12.6 secs

     Computing kpt #:    36  of    91
     total cpu time spent up to now is       12.6 secs

     Computing kpt #:    37  of    91
     total cpu time spent up to now is       12.7 secs

     Computing kpt #:    38  of    91
     total cpu time spent up to now is       12.8 secs

     Computing kpt #:    39  of    91
     total cpu time spent up to now is       12.9 secs

     Computing kpt #:    40  of    91
     total cpu time spent up to now is       12.9 secs

     Computing kpt #:    41  of    91
     total cpu time spent up to now is       13.0 secs

     Computing kpt #:    42  of    91
     total cpu time spent up to now is       13.1 secs

     Computing kpt #:    43  of    91
     total cpu time spent up to now is       13.2 secs

     Computing kpt #:    44  of    91
     total cpu time spent up to now is       13.2 secs

     Computing kpt #:    45  of    91
     total cpu time spent up to now is       13.3 secs

     Computing kpt #:    46  of    91
     total cpu time spent up to now is       13.4 secs

     Computing kpt #:    47  of    91
     total cpu time spent up to now is       13.4 secs

     Computing kpt #:    48  of    91
     total cpu time spent up to now is       13.5 secs

     Computing kpt #:    49  of    91
     total cpu time spent up to now is       13.5 secs

     Computing kpt #:    50  of    91
     total cpu time spent up to now is       13.6 secs

     Computing kpt #:    51  of    91
     total cpu time spent up to now is       13.7 secs

     Computing kpt #:    52  of    91
     total cpu time spent up to now is       13.8 secs

     Computing kpt #:    53  of    91
     total cpu time spent up to now is       13.8 secs

     Computing kpt #:    54  of    91
     total cpu time spent up to now is       13.9 secs

     Computing kpt #:    55  of    91
     total cpu time spent up to now is       14.0 secs

     Computing kpt #:    56  of    91
     total cpu time spent up to now is       14.0 secs

     Computing kpt #:    57  of    91
     total cpu time spent up to now is       14.1 secs

     Computing kpt #:    58  of    91
     total cpu time spent up to now is       14.2 secs

     Computing kpt #:    59  of    91
     total cpu time spent up to now is       14.2 secs

     Computing kpt #:    60  of    91
     total cpu time spent up to now is       14.3 secs

     Computing kpt #:    61  of    91
     total cpu time spent up to now is       14.3 secs

     Computing kpt #:    62  of    91
     total cpu time spent up to now is       14.4 secs

     Computing kpt #:    63  of    91
     total cpu time spent up to now is       14.5 secs

     Computing kpt #:    64  of    91
     total cpu time spent up to now is       14.6 secs

     Computing kpt #:    65  of    91
     total cpu time spent up to now is       14.6 secs

     Computing kpt #:    66  of    91
     total cpu time spent up to now is       14.7 secs

     Computing kpt #:    67  of    91
     total cpu time spent up to now is       14.7 secs

     Computing kpt #:    68  of    91
     total cpu time spent up to now is       14.8 secs

     Computing kpt #:    69  of    91
     total cpu time spent up to now is       14.8 secs

     Computing kpt #:    70  of    91
     total cpu time spent up to now is       14.9 secs

     Computing kpt #:    71  of    91
     total cpu time spent up to now is       15.0 secs

     Computing kpt #:    72  of    91
     total cpu time spent up to now is       15.1 secs

     Computing kpt #:    73  of    91
     total cpu time spent up to now is       15.1 secs

     Computing kpt #:    74  of    91
     total cpu time spent up to now is       15.2 secs

     Computing kpt #:    75  of    91
     total cpu time spent up to now is       15.3 secs

     Computing kpt #:    76  of    91
     total cpu time spent up to now is       15.3 secs

     Computing kpt #:    77  of    91
     total cpu time spent up to now is       15.4 secs

     Computing kpt #:    78  of    91
     total cpu time spent up to now is       15.5 secs

     Computing kpt #:    79  of    91
     total cpu time spent up to now is       15.6 secs

     Computing kpt #:    80  of    91
     total cpu time spent up to now is       15.6 secs

     Computing kpt #:    81  of    91
     total cpu time spent up to now is       15.7 secs

     Computing kpt #:    82  of    91
     total cpu time spent up to now is       15.8 secs

     Computing kpt #:    83  of    91
     total cpu time spent up to now is       15.8 secs

     Computing kpt #:    84  of    91
     total cpu time spent up to now is       15.9 secs

     Computing kpt #:    85  of    91
     total cpu time spent up to now is       16.0 secs

     Computing kpt #:    86  of    91
     total cpu time spent up to now is       16.1 secs

     Computing kpt #:    87  of    91
     total cpu time spent up to now is       16.1 secs

     Computing kpt #:    88  of    91
     total cpu time spent up to now is       16.2 secs

     Computing kpt #:    89  of    91
     total cpu time spent up to now is       16.3 secs

     Computing kpt #:    90  of    91
     total cpu time spent up to now is       16.4 secs

     Computing kpt #:    91  of    91
     total cpu time spent up to now is       16.5 secs

     ethr =  5.00E-06,  avg # of iterations = 23.3

     total cpu time spent up to now is       16.5 secs

     End of band structure calculation

          k = 0.0000 0.0000 0.0000 (  4301 PWs)   bands (ev):

   -21.2170  -8.8406  -5.0155  -5.0155   0.7508   1.8471   2.5827   4.2890

     occupation numbers 
     1.0000   1.0000   1.0000   1.0000   0.0000   0.0000   0.0000   0.0000

          k = 0.0000 0.0385 0.0000 (  4333 PWs)   bands (ev):

   -21.1959  -8.8125  -5.1085  -5.0586   0.7879   1.8801   2.6183   4.3208

     occupation numbers 
     1.0000   1.0000   1.0000   1.0000   0.0000   0.0000   0.0000   0.0000

          k = 0.0000 0.0770 0.0000 (  4327 PWs)   bands (ev):

   -21.1323  -8.7265  -5.3754  -5.1821   0.8982   1.9791   2.7251   4.4160

     occupation numbers 
     1.0000   1.0000   1.0000   1.0000   0.0000   0.0000   0.0000   0.0000

          k = 0.0000 0.1155 0.0000 (  4324 PWs)   bands (ev):

   -21.0270  -8.5843  -5.7936  -5.3738   1.0787   2.1431   2.9023   4.5721

     occupation numbers 
     1.0000   1.0000   1.0000   1.0000   0.0000   0.0000   0.0000   0.0000

          k = 0.0000 0.1540 0.0000 (  4322 PWs)   bands (ev):

   -20.8809  -8.3861  -6.3330  -5.6163   1.3268   2.3704   3.1493   4.7841

     occupation numbers 
     1.0000   1.0000   1.0000   1.0000   0.0000   0.0000   0.0000   0.0000

          k = 0.0000 0.1925 0.0000 (  4324 PWs)   bands (ev):

   -20.6955  -8.1343  -6.9600  -5.8911   1.6402   2.6572   3.4657   5.0393

     occupation numbers 
     1.0000   1.0000   1.0000   1.0000   0.0000   0.0000   0.0000   0.0000

          k = 0.0000 0.2309 0.0000 (  4324 PWs)   bands (ev):

   -20.4730  -7.8310  -7.6451  -6.1813   2.0176   2.9950   3.8506   5.3006

     occupation numbers 
     1.0000   1.0000   1.0000   1.0000   0.0000   0.0000   0.0000   0.0000

          k = 0.0000 0.2694 0.0000 (  4336 PWs)   bands (ev):

   -20.2163  -8.3621  -7.4797  -6.4719   2.4573   3.3612   4.3034   5.4576

     occupation numbers 
     1.0000   1.0000   1.0000   1.0000   0.0000   0.0000   0.0000   0.0000

          k = 0.0000 0.3079 0.0000 (  4358 PWs)   bands (ev):

   -19.9302  -9.0883  -7.0853  -6.7506   2.9572   3.6816   4.8224   5.3767

     occupation numbers 
     1.0000   1.0000   1.0000   1.0000   0.0000   0.0000   0.0000   0.0000

          k = 0.0000 0.3464 0.0000 (  4362 PWs)   bands (ev):

   -19.6206  -9.8020  -7.0072  -6.6548   3.5133   3.7311   5.3402   5.4029

     occupation numbers 
     1.0000   1.0000   1.0000   1.0000   0.0000   0.0000   0.0000   0.0000

          k = 0.0000 0.3849 0.0000 (  4382 PWs)   bands (ev):

   -19.2972 -10.4838  -7.2350  -6.1997   3.3541   4.1171   5.6837   6.0281

     occupation numbers 
     1.0000   1.0000   1.0000   1.0000   0.0000   0.0000   0.0000   0.0000

          k = 0.0000 0.4234 0.0000 (  4380 PWs)   bands (ev):

   -18.9733 -11.1102  -7.4278  -5.7359   2.7781   4.7484   6.2738   6.5999

     occupation numbers 
     1.0000   1.0000   1.0000   1.0000   0.0000   0.0000   0.0000   0.0000

          k = 0.0000 0.4619 0.0000 (  4398 PWs)   bands (ev):

   -18.6692 -11.6559  -7.5822  -5.2899   2.1834   5.3540   6.9243   6.9871

     occupation numbers 
     1.0000   1.0000   1.0000   1.0000   0.0000   0.0000   0.0000   0.0000

          k = 0.0000 0.5004 0.0000 (  4384 PWs)   bands (ev):

   -18.4123 -12.0881  -7.6941  -4.9014   1.6683   5.8162   7.2911   7.7783

     occupation numbers 
     1.0000   1.0000   1.0000   1.0000   0.0000   0.0000   0.0000   0.0000

          k = 0.0000 0.5389 0.0000 (  4376 PWs)   bands (ev):

   -18.2367 -12.3700  -7.7619  -4.6277   1.3113   6.0457   7.9024   8.6129

     occupation numbers 
     1.0000   1.0000   1.0000   1.0000   0.0000   0.0000   0.0000   0.0000

          k = 0.0000-0.5774 0.0000 (  4348 PWs)   bands (ev):

   -18.1736 -12.4679  -7.7843  -4.5273   1.1823   6.1063   8.5123   8.9998

     occupation numbers 
     1.0000   1.0000   1.0000   1.0000   0.0000   0.0000   0.0000   0.0000

          k = 0.0333 0.0577 0.0000 (  4343 PWs)   bands (ev):

   -21.1536  -8.7554  -5.2858  -5.1443   0.8616   1.9461   2.6895   4.3842

     occupation numbers 
     1.0000   1.0000   1.0000   1.0000   0.0000   0.0000   0.0000   0.0000

          k = 0.0333 0.0962 0.0000 (  4332 PWs)   bands (ev):

   -21.0691  -8.6412  -5.6226  -5.3073   1.0070   2.0776   2.8315   4.5100

     occupation numbers 
     1.0000   1.0000   1.0000   1.0000   0.0000   0.0000   0.0000   0.0000

          k = 0.0333 0.1347 0.0000 (  4327 PWs)   bands (ev):

   -20.9434  -8.4709  -6.0946  -5.5313   1.2214   2.2733   3.0437   4.6944

     occupation numbers 
     1.0000   1.0000   1.0000   1.0000   0.0000   0.0000   0.0000   0.0000

          k = 0.0333 0.1732 0.0000 (  4334 PWs)   bands (ev):

   -20.7776  -8.2461  -6.6709  -5.7973   1.5023   2.5306   3.3255   4.9291

     occupation numbers 
     1.0000   1.0000   1.0000   1.0000   0.0000   0.0000   0.0000   0.0000

          k = 0.0333 0.2117 0.0000 (  4326 PWs)   bands (ev):

   -20.5735  -7.9683  -7.3203  -6.0858   1.8480   2.8437   3.6763   5.1919

     occupation numbers 
     1.0000   1.0000   1.0000   1.0000   0.0000   0.0000   0.0000   0.0000

          k = 0.0333 0.2502 0.0000 (  4336 PWs)   bands (ev):

   -20.3338  -8.0163  -7.6408  -6.3816   2.2571   3.1988   4.0956   5.4151

     occupation numbers 
     1.0000   1.0000   1.0000   1.0000   0.0000   0.0000   0.0000   0.0000

          k = 0.0333 0.2887 0.0000 (  4348 PWs)   bands (ev):

   -20.0621  -8.7336  -7.2676  -6.6704   2.7278   3.5544   4.5820   5.4436

     occupation numbers 
     1.0000   1.0000   1.0000   1.0000   0.0000   0.0000   0.0000   0.0000

          k = 0.0333 0.3272 0.0000 (  4357 PWs)   bands (ev):

   -19.7637  -9.4506  -6.9414  -6.8546   3.2575   3.7687   5.1334   5.3235

     occupation numbers 
     1.0000   1.0000   1.0000   1.0000   0.0000   0.0000   0.0000   0.0000

          k = 0.0333 0.3657 0.0000 (  4359 PWs)   bands (ev):

   -19.4462 -10.1464  -7.1860  -6.4104   3.5823   3.8406   5.4845   5.7424

     occupation numbers 
     1.0000   1.0000   1.0000   1.0000   0.0000   0.0000   0.0000   0.0000

          k = 0.0333 0.4041 0.0000 (  4384 PWs)   bands (ev):

   -19.1212 -10.8002  -7.3984  -5.9491   3.0719   4.4651   5.9799   6.3747

     occupation numbers 
     1.0000   1.0000   1.0000   1.0000   0.0000   0.0000   0.0000   0.0000

          k = 0.0333 0.4426 0.0000 (  4388 PWs)   bands (ev):

   -18.8049 -11.3871  -7.5731  -5.4910   2.4742   5.1007   6.6406   6.8492

     occupation numbers 
     1.0000   1.0000   1.0000   1.0000   0.0000   0.0000   0.0000   0.0000

          k = 0.0333 0.4811 0.0000 (  4380 PWs)   bands (ev):

   -18.5210 -11.8781  -7.7070  -5.0681   1.9117   5.6682   7.1422   7.3957

     occupation numbers 
     1.0000   1.0000   1.0000   1.0000   0.0000   0.0000   0.0000   0.0000

          k = 0.0333 0.5196 0.0000 (  4368 PWs)   bands (ev):

   -18.3011 -12.2382  -7.7973  -4.7301   1.4681   6.0344   7.6100   8.2125

     occupation numbers 
     1.0000   1.0000   1.0000   1.0000   0.0000   0.0000   0.0000   0.0000

          k = 0.0333 0.5581 0.0000 (  4368 PWs)   bands (ev):

   -18.1791 -12.4307  -7.8432  -4.5373   1.2191   6.1781   8.2942   9.0226

     occupation numbers 
     1.0000   1.0000   1.0000   1.0000   0.0000   0.0000   0.0000   0.0000

          k = 0.0667 0.1155 0.0000 (  4329 PWs)   bands (ev):

   -20.9642  -8.4992  -6.0036  -5.5127   1.1863   2.2409   3.0085   4.6641

     occupation numbers 
     1.0000   1.0000   1.0000   1.0000   0.0000   0.0000   0.0000   0.0000

          k = 0.0667 0.1540 0.0000 (  4334 PWs)   bands (ev):

   -20.8188  -8.3020  -6.4977  -5.7753   1.4336   2.4668   3.2555   4.8724

     occupation numbers 
     1.0000   1.0000   1.0000   1.0000   0.0000   0.0000   0.0000   0.0000

          k = 0.0667 0.1925 0.0000 (  4330 PWs)   bands (ev):

   -20.6342  -8.0511  -7.0805  -6.0706   1.7472   2.7513   3.5721   5.1190

     occupation numbers 
     1.0000   1.0000   1.0000   1.0000   0.0000   0.0000   0.0000   0.0000

          k = 0.0667 0.2309 0.0000 (  4345 PWs)   bands (ev):

   -20.4128  -7.7492  -7.7273  -6.3792   2.1254   3.0847   3.9575   5.3604

     occupation numbers 
     1.0000   1.0000   1.0000   1.0000   0.0000   0.0000   0.0000   0.0000

          k = 0.0667 0.2694 0.0000 (  4341 PWs)   bands (ev):

   -20.1576  -8.4120  -7.3993  -6.6841   2.5668   3.4412   4.4112   5.4752

     occupation numbers 
     1.0000   1.0000   1.0000   1.0000   0.0000   0.0000   0.0000   0.0000

          k = 0.0667 0.3079 0.0000 (  4343 PWs)   bands (ev):

   -19.8729  -9.1121  -7.0064  -6.9743   3.0694   3.7353   4.9320   5.3754

     occupation numbers 
     1.0000   1.0000   1.0000   1.0000   0.0000   0.0000   0.0000   0.0000

          k = 0.0667 0.3464 0.0000 (  4365 PWs)   bands (ev):

   -19.5654  -9.8057  -7.2401  -6.5783   3.6299   3.7338   5.3853   5.5166

     occupation numbers 
     1.0000   1.0000   1.0000   1.0000   0.0000   0.0000   0.0000   0.0000

          k = 0.0667 0.3849 0.0000 (  4375 PWs)   bands (ev):

   -19.2442 -10.4706  -7.4742  -6.1255   3.3339   4.2416   5.7626   6.1548

     occupation numbers 
     1.0000   1.0000   1.0000   1.0000   0.0000   0.0000   0.0000   0.0000

          k = 0.0667 0.4234 0.0000 (  4374 PWs)   bands (ev):

   -18.9229 -11.0841  -7.6715  -5.6644   2.7629   4.8891   6.3607   6.7897

     occupation numbers 
     1.0000   1.0000   1.0000   1.0000   0.0000   0.0000   0.0000   0.0000

          k = 0.0667 0.4619 0.0000 (  4378 PWs)   bands (ev):

   -18.6215 -11.6193  -7.8286  -5.2213   2.1797   5.5323   7.0729   7.1909

     occupation numbers 
     1.0000   1.0000   1.0000   1.0000   0.0000   0.0000   0.0000   0.0000

          k = 0.0667 0.5004 0.0000 (  4374 PWs)   bands (ev):

   -18.3675 -12.0437  -7.9427  -4.8361   1.6745   6.0682   7.5036   7.8579

     occupation numbers 
     1.0000   1.0000   1.0000   1.0000   0.0000   0.0000   0.0000   0.0000

          k = 0.0667 0.5389 0.0000 (  4366 PWs)   bands (ev):

   -18.1941 -12.3204  -8.0117  -4.5649   1.3247   6.3651   8.0428   8.6777

     occupation numbers 
     1.0000   1.0000   1.0000   1.0000   0.0000   0.0000   0.0000   0.0000

          k = 0.0667 0.5774 0.0000 (  4370 PWs)   bands (ev):

   -18.1320 -12.4171  -8.0350  -4.4656   1.1979   6.4456   8.6034   9.1334

     occupation numbers 
     1.0000   1.0000   1.0000   1.0000   0.0000   0.0000   0.0000   0.0000

          k = 0.1000 0.1732 0.0000 (  4342 PWs)   bands (ev):

   -20.6546  -8.0790  -6.9873  -6.0789   1.7138   2.7202   3.5374   5.0935

     occupation numbers 
     1.0000   1.0000   1.0000   1.0000   0.0000   0.0000   0.0000   0.0000

          k = 0.1000 0.2117 0.0000 (  4342 PWs)   bands (ev):

   -20.4525  -7.8036  -7.5501  -6.4111   2.0602   3.0263   3.8887   5.3259

     occupation numbers 
     1.0000   1.0000   1.0000   1.0000   0.0000   0.0000   0.0000   0.0000

          k = 0.1000 0.2502 0.0000 (  4350 PWs)   bands (ev):

   -20.2154  -8.1686  -7.4789  -6.7466   2.4714   3.3666   4.3091   5.4794

     occupation numbers 
     1.0000   1.0000   1.0000   1.0000   0.0000   0.0000   0.0000   0.0000

          k = 0.1000 0.2887 0.0000 (  4351 PWs)   bands (ev):

   -19.9467  -8.8221  -7.1088  -7.0679   2.9457   3.6854   4.7977   5.4315

     occupation numbers 
     1.0000   1.0000   1.0000   1.0000   0.0000   0.0000   0.0000   0.0000

          k = 0.1000 0.3272 0.0000 (  4357 PWs)   bands (ev):

   -19.6520  -9.4879  -7.3638  -6.6999   3.4810   3.8094   5.3531   5.3642

     occupation numbers 
     1.0000   1.0000   1.0000   1.0000   0.0000   0.0000   0.0000   0.0000

          k = 0.1000 0.3657 0.0000 (  4371 PWs)   bands (ev):

   -19.3391 -10.1435  -7.6273  -6.2607   3.5413   4.0735   5.6217   5.9718

     occupation numbers 
     1.0000   1.0000   1.0000   1.0000   0.0000   0.0000   0.0000   0.0000

          k = 0.1000 0.4041 0.0000 (  4377 PWs)   bands (ev):

   -19.0190 -10.7648  -7.8528  -5.8049   3.0256   4.7157   6.1494   6.6418

     occupation numbers 
     1.0000   1.0000   1.0000   1.0000   0.0000   0.0000   0.0000   0.0000

          k = 0.1000 0.4426 0.0000 (  4371 PWs)   bands (ev):

   -18.7084 -11.3263  -8.0367  -5.3527   2.4483   5.3898   6.8135   7.2855

     occupation numbers 
     1.0000   1.0000   1.0000   1.0000   0.0000   0.0000   0.0000   0.0000

          k = 0.1000 0.4811 0.0000 (  4374 PWs)   bands (ev):

   -18.4306 -11.7981  -8.1768  -4.9367   1.9090   6.0473   7.5596   7.6457

     occupation numbers 
     1.0000   1.0000   1.0000   1.0000   0.0000   0.0000   0.0000   0.0000

          k = 0.1000 0.5196 0.0000 (  4360 PWs)   bands (ev):

   -18.2158 -12.1444  -8.2707  -4.6045   1.4837   6.5650   7.9752   8.3537

     occupation numbers 
     1.0000   1.0000   1.0000   1.0000   0.0000   0.0000   0.0000   0.0000

          k = 0.1000 0.5581 0.0000 (  4357 PWs)   bands (ev):

   -18.0970 -12.3295  -8.3183  -4.4152   1.2448   6.8081   8.5264   9.1073

     occupation numbers 
     1.0000   1.0000   1.0000   1.0000   0.0000   0.0000   0.0000   0.0000

          k = 0.1333 0.2309 0.0000 (  4356 PWs)   bands (ev):

   -20.2347  -8.0731  -7.5056  -6.7827   2.4398   3.3409   4.2751   5.4776

     occupation numbers 
     1.0000   1.0000   1.0000   1.0000   0.0000   0.0000   0.0000   0.0000

          k = 0.1333 0.2694 0.0000 (  4357 PWs)   bands (ev):

   -19.9839  -8.6417  -7.1605  -7.1529   2.8843   3.6534   4.7305   5.4626

     occupation numbers 
     1.0000   1.0000   1.0000   1.0000   0.0000   0.0000   0.0000   0.0000

          k = 0.1333 0.3079 0.0000 (  4363 PWs)   bands (ev):

   -19.7046  -9.2426  -7.4990  -6.7737   3.3921   3.8355   5.2541   5.3776

     occupation numbers 
     1.0000   1.0000   1.0000   1.0000   0.0000   0.0000   0.0000   0.0000

          k = 0.1333 0.3464 0.0000 (  4360 PWs)   bands (ev):

   -19.4034  -9.8558  -7.8081  -6.3524   3.6800   3.9606   5.5467   5.8447

     occupation numbers 
     1.0000   1.0000   1.0000   1.0000   0.0000   0.0000   0.0000   0.0000

          k = 0.1333 0.3849 0.0000 (  4365 PWs)   bands (ev):

   -19.0897 -10.4578  -8.0744  -5.9078   3.2369   4.5859   6.0052   6.4985

     occupation numbers 
     1.0000   1.0000   1.0000   1.0000   0.0000   0.0000   0.0000   0.0000

          k = 0.1333 0.4234 0.0000 (  4363 PWs)   bands (ev):

   -18.7772 -11.0219  -8.2947  -5.4562   2.6897   5.2597   6.6195   7.2023

     occupation numbers 
     1.0000   1.0000   1.0000   1.0000   0.0000   0.0000   0.0000   0.0000

          k = 0.1333 0.4619 0.0000 (  4361 PWs)   bands (ev):

   -18.4852 -11.5190  -8.4674  -5.0235   2.1441   5.9626   7.3226   7.8647

     occupation numbers 
     1.0000   1.0000   1.0000   1.0000   0.0000   0.0000   0.0000   0.0000

          k = 0.1333 0.5004 0.0000 (  4376 PWs)   bands (ev):

   -18.2404 -11.9155  -8.5917  -4.6490   1.6726   6.6400   8.0782   8.1955

     occupation numbers 
     1.0000   1.0000   1.0000   1.0000   0.0000   0.0000   0.0000   0.0000

          k = 0.1333 0.5389 0.0000 (  4366 PWs)   bands (ev):

   -18.0740 -12.1744  -8.6664  -4.3856   1.3460   7.1462   8.5113   8.8283

     occupation numbers 
     1.0000   1.0000   1.0000   1.0000   0.0000   0.0000   0.0000   0.0000

          k = 0.1333 0.5774 0.0000 (  4362 PWs)   bands (ev):

   -18.0145 -12.2649  -8.6913  -4.2893   1.2277   7.3179   8.8797   9.2839

     occupation numbers 
     1.0000   1.0000   1.0000   1.0000   0.0000   0.0000   0.0000   0.0000

          k = 0.1667 0.2887 0.0000 (  4382 PWs)   bands (ev):

   -19.7223  -9.1452  -7.5614  -6.7985   3.3624   3.8402   5.2210   5.3864

     occupation numbers 
     1.0000   1.0000   1.0000   1.0000   0.0000   0.0000   0.0000   0.0000

          k = 0.1667 0.3272 0.0000 (  4370 PWs)   bands (ev):

   -19.4360  -9.6735  -7.9409  -6.3988   3.7471   3.9037   5.5177   5.7800

     occupation numbers 
     1.0000   1.0000   1.0000   1.0000   0.0000   0.0000   0.0000   0.0000

          k = 0.1667 0.3657 0.0000 (  4379 PWs)   bands (ev):

   -19.1332 -10.2143  -8.2735  -5.9710   3.3737   4.5055   5.9234   6.4058

     occupation numbers 
     1.0000   1.0000   1.0000   1.0000   0.0000   0.0000   0.0000   0.0000

          k = 0.1667 0.4041 0.0000 (  4369 PWs)   bands (ev):

   -18.8248 -10.7443  -8.5511  -5.5277   2.8737   5.1634   6.4910   7.0950

     occupation numbers 
     1.0000   1.0000   1.0000   1.0000   0.0000   0.0000   0.0000   0.0000

          k = 0.1667 0.4426 0.0000 (  4364 PWs)   bands (ev):

   -18.5274 -11.2356  -8.7719  -5.0902   2.3476   5.8684   7.1502   7.8338

     occupation numbers 
     1.0000   1.0000   1.0000   1.0000   0.0000   0.0000   0.0000   0.0000

          k = 0.1667 0.4811 0.0000 (  4361 PWs)   bands (ev):

   -18.2632 -11.6544  -8.9366  -4.6897   1.8612   6.5996   7.8608   8.5160

     occupation numbers 
     1.0000   1.0000   1.0000   1.0000   0.0000   0.0000   0.0000   0.0000

          k = 0.1667 0.5196 0.0000 (  4360 PWs)   bands (ev):

   -18.0605 -11.9646  -9.0460  -4.3716   1.4779   7.2954   8.5689   8.7968

     occupation numbers 
     1.0000   1.0000   1.0000   1.0000   0.0000   0.0000   0.0000   0.0000

          k = 0.1667 0.5581 0.0000 (  4355 PWs)   bands (ev):

   -17.9490 -12.1309  -9.1005  -4.1909   1.2627   7.7715   9.0178   9.1233

     occupation numbers 
     1.0000   1.0000   1.0000   1.0000   0.0000   0.0000   0.0000   0.0000

          k = 0.2000 0.3464 0.0000 (  4386 PWs)   bands (ev):

   -19.1478 -10.1159  -8.3585  -5.9922   3.4210   4.4783   5.8971   6.3741

     occupation numbers 
     1.0000   1.0000   1.0000   1.0000   0.0000   0.0000   0.0000   0.0000

          k = 0.2000 0.3849 0.0000 (  4384 PWs)   bands (ev):

   -18.8493 -10.5636  -8.7247  -5.5643   2.9739   5.1126   6.4271   7.0350

     occupation numbers 
     1.0000   1.0000   1.0000   1.0000   0.0000   0.0000   0.0000   0.0000

          k = 0.2000 0.4234 0.0000 (  4388 PWs)   bands (ev):

   -18.5541 -11.0011  -9.0251  -5.1323   2.4869   5.8016   7.0451   7.7590

     occupation numbers 
     1.0000   1.0000   1.0000   1.0000   0.0000   0.0000   0.0000   0.0000

          k = 0.2000 0.4619 0.0000 (  4373 PWs)   bands (ev):

   -18.2808 -11.4002  -9.2550  -4.7209   2.0151   6.5351   7.7093   8.5312

     occupation numbers 
     1.0000   1.0000   1.0000   1.0000   0.0000   0.0000   0.0000   0.0000

          k = 0.2000 0.5004 0.0000 (  4369 PWs)   bands (ev):

   -18.0540 -11.7261  -9.4167  -4.3672   1.6093   7.2887   8.3616   9.2054

     occupation numbers 
     1.0000   1.0000   1.0000   1.0000   0.0000   0.0000   0.0000   0.0000

          k = 0.2000 0.5389 0.0000 (  4364 PWs)   bands (ev):

   -17.9014 -11.9417  -9.5124  -4.1209   1.3281   7.9853   8.8794   9.3530

     occupation numbers 
     1.0000   1.0000   1.0000   1.0000   0.0000   0.0000   0.0000   0.0000

          k = 0.2000 0.5774 0.0000 (  4374 PWs)   bands (ev):

   -17.8473 -12.0179  -9.5442  -4.0311   1.2264   8.3375   9.0798   9.3551

     occupation numbers 
     1.0000   1.0000   1.0000   1.0000   0.0000   0.0000   0.0000   0.0000

          k = 0.2333 0.4041 0.0000 (  4390 PWs)   bands (ev):

   -18.5632 -10.9037  -9.1295  -5.1465   2.5370   5.7780   7.0098   7.7307

     occupation numbers 
     1.0000   1.0000   1.0000   1.0000   0.0000   0.0000   0.0000   0.0000

          k = 0.2333 0.4426 0.0000 (  4388 PWs)   bands (ev):

   -18.2904 -11.2260  -9.4640  -4.7378   2.1017   6.4950   7.6309   8.4879

     occupation numbers 
     1.0000   1.0000   1.0000   1.0000   0.0000   0.0000   0.0000   0.0000

          k = 0.2333 0.4811 0.0000 (  4382 PWs)   bands (ev):

   -18.0515 -11.5114  -9.7152  -4.3675   1.7064   7.2506   8.2259   9.2843

     occupation numbers 
     1.0000   1.0000   1.0000   1.0000   0.0000   0.0000   0.0000   0.0000

          k = 0.2333 0.5196 0.0000 (  4369 PWs)   bands (ev):

   -17.8708 -11.7294  -9.8802  -4.0768   1.3964   8.0109   8.6739   9.8192

     occupation numbers 
     1.0000   1.0000   1.0000   1.0000   0.0000   0.0000   0.0000   0.0000

          k = 0.2333 0.5581 0.0000 (  4357 PWs)   bands (ev):

   -17.7724 -11.8487  -9.9616  -3.9134   1.2228   8.6486   8.8778   9.7258

     occupation numbers 
     1.0000   1.0000   1.0000   1.0000   0.0000   0.0000   0.0000   0.0000

          k = 0.2667 0.4619 0.0000 (  4376 PWs)   bands (ev):

   -18.0508 -11.4165  -9.8383  -4.3679   1.7422   7.2339   8.1784   9.2718

     occupation numbers 
     1.0000   1.0000   1.0000   1.0000   0.0000   0.0000   0.0000   0.0000

          k = 0.2667 0.5004 0.0000 (  4370 PWs)   bands (ev):

   -17.8558 -11.5669 -10.1226  -4.0558   1.4395   7.9971   8.5581  10.0308

     occupation numbers 
     1.0000   1.0000   1.0000   1.0000   0.0000   0.0000   0.0000   0.0000

          k = 0.2667 0.5389 0.0000 (  4353 PWs)   bands (ev):

   -17.7270 -11.6657 -10.2987  -3.8420   1.2323   8.7058   8.7214  10.1747

     occupation numbers 
     1.0000   1.0000   1.0000   1.0000   0.0000   0.0000   0.0000   0.0000

          k = 0.2667 0.5774 0.0000 (  4356 PWs)   bands (ev):

   -17.6818 -11.7010 -10.3582  -3.7651   1.1578   8.7319   9.1229  10.0432

     occupation numbers 
     1.0000   1.0000   1.0000   1.0000   0.0000   0.0000   0.0000   0.0000

          k = 0.3000 0.5196 0.0000 (  4352 PWs)   bands (ev):

   -17.7117 -11.5735 -10.4432  -3.8180   1.2379   8.6413   8.7288  10.3772

     occupation numbers 
     1.0000   1.0000   1.0000   1.0000   0.0000   0.0000   0.0000   0.0000

          k = 0.3000 0.5581 0.0000 (  4370 PWs)   bands (ev):

   -17.6351 -11.5576 -10.6299  -3.6879   1.1274   8.6246   9.2906  10.4320

     occupation numbers 
     1.0000   1.0000   1.0000   1.0000   0.0000   0.0000   0.0000   0.0000

          k = 0.3333 0.5774 0.0000 (  4416 PWs)   bands (ev):

   -17.6039 -11.4896 -10.7747  -3.6352   1.0908   8.5832   9.5012  10.7031

     occupation numbers 
     1.0000   1.0000   1.0000   1.0000   0.0000   0.0000   0.0000   0.0000

     the Fermi energy is    -1.0969 ev
     (compare with:    -1.2453 eV, computed in scf)

     Writing all to output data dir ./tmp30/hBN_1l_PBE_vdW.save/

     init_run     :     10.03s CPU     10.15s WALL (       1 calls)
     electrons    :      5.57s CPU      6.23s WALL (       1 calls)

     Called by init_run:
     wfcinit      :      0.00s CPU      0.00s WALL (       1 calls)
     wfcinit:atom :      0.01s CPU      0.01s WALL (      91 calls)
     wfcinit:wfcr :      0.27s CPU      0.29s WALL (      91 calls)
     potinit      :      9.71s CPU      9.82s WALL (       1 calls)
     hinit0       :      0.30s CPU      0.30s WALL (       1 calls)

     Called by electrons:
     c_bands      :      5.57s CPU      6.22s WALL (       1 calls)
     v_of_rho     :      9.70s CPU      9.81s WALL (       1 calls)
     v_h          :      0.00s CPU      0.00s WALL (       1 calls)
     v_xc         :      9.70s CPU      9.81s WALL (       1 calls)
     vdW_kernel   :      9.67s CPU      9.77s WALL (       1 calls)

     Called by c_bands:
     init_us_2    :      0.01s CPU      0.01s WALL (      91 calls)
     init_us_2:cp :      0.01s CPU      0.01s WALL (      91 calls)
     cegterg      :      5.24s CPU      5.86s WALL (     159 calls)

     Called by sum_band:

     Called by *egterg:
     cdiaghg      :      0.25s CPU      0.26s WALL (    2215 calls)
     cegterg:over :      0.38s CPU      0.39s WALL (    2124 calls)
     cegterg:upda :      0.33s CPU      0.46s WALL (    2124 calls)
     cegterg:last :      0.33s CPU      0.41s WALL (    1217 calls)
     h_psi        :      3.93s CPU      4.25s WALL (    2374 calls)
     g_psi        :      0.04s CPU      0.06s WALL (    2124 calls)

     Called by h_psi:
     h_psi:calbec :      0.20s CPU      0.22s WALL (    2374 calls)
     vloc_psi     :      3.47s CPU      3.66s WALL (    2374 calls)
     add_vuspsi   :      0.23s CPU      0.33s WALL (    2374 calls)

     General routines
     calbec       :      0.20s CPU      0.21s WALL (    2374 calls)
     fft          :      0.27s CPU      0.28s WALL (      61 calls)
     fftw         :      3.16s CPU      3.31s WALL (   21220 calls)
     davcio       :      0.00s CPU      0.01s WALL (     182 calls)

     Parallel routines

     PWSCF        :     15.89s CPU     16.77s WALL


   This run was terminated on:  12:18:28  16Apr2024            

=------------------------------------------------------------------------------=
   JOB DONE.
=------------------------------------------------------------------------------=
