
     Program PWSCF v.6.7MaX starts on 14Feb2024 at 17: 2:28 

     This program is part of the open-source Quantum ESPRESSO suite
     for quantum simulation of materials; please cite
         "P. Giannozzi et al., J. Phys.:Condens. Matter 21 395502 (2009);
         "P. Giannozzi et al., J. Phys.:Condens. Matter 29 465901 (2017);
          URL http://www.quantum-espresso.org", 
     in publications or presentations arising from this work. More details at
     http://www.quantum-espresso.org/quote

     Parallel version (MPI), running on     1 processors

     MPI processes distributed on     1 nodes
     Waiting for input...
     Reading input from standard input

     Current dimensions of program PWSCF are:
     Max number of different atomic species (ntypx) = 10
     Max number of k-points (npk) =  40000
     Max angular momentum in pseudopotentials (lmaxx) =  3
     Message from routine read_pp_mesh:
     mesh size missing, using the one in header

     Subspace diagonalization in iterative solution of the eigenvalue problem:
     a serial algorithm will be used


     G-vector sticks info
     --------------------
     sticks:   dense  smooth     PW     G-vecs:    dense   smooth      PW
     Sum         361     361    109                32597    32597    5681



     bravais-lattice index     =            4
     lattice parameter (alat)  =       4.6350  a.u.
     unit-cell volume          =     517.4056 (a.u.)^3
     number of atoms/cell      =            2
     number of atomic types    =            1
     number of electrons       =         8.00
     number of Kohn-Sham states=            8
     kinetic-energy cutoff     =      60.0000  Ry
     charge density cutoff     =     240.0000  Ry
     scf convergence threshold =      1.0E-06
     mixing beta               =       0.7000
     number of iterations used =            8  plain     mixing
     energy convergence thresh.=      1.0E-04
     force convergence thresh. =      1.0E-03
     press convergence thresh. =      5.0E-01
     Exchange-correlation= PBE
                           (   1   4   3   4   0   0   0)
     nstep                     =           50


     celldm(1)=   4.635000  celldm(2)=   0.000000  celldm(3)=   6.000000
     celldm(4)=   0.000000  celldm(5)=   0.000000  celldm(6)=   0.000000

     crystal axes: (cart. coord. in units of alat)
               a(1) = (   1.000000   0.000000   0.000000 )  
               a(2) = (  -0.500000   0.866025   0.000000 )  
               a(3) = (   0.000000   0.000000   6.000000 )  

     reciprocal axes: (cart. coord. in units 2 pi/alat)
               b(1) = (  1.000000  0.577350 -0.000000 )  
               b(2) = (  0.000000  1.154701  0.000000 )  
               b(3) = (  0.000000 -0.000000  0.166667 )  


     PseudoPot. # 1 for C  read from file:
     ../../../Pseudo/PBE/C.upf
     MD5 check sum: 34a24e64c0a39f27c6c36b90a16ac686
     Pseudo is Norm-conserving + core correction, Zval =  4.0
     Generated using ONCVPSP code by D. R. Hamann
     Using radial grid of 1248 points,  4 beta functions with: 
                l(1) =   0
                l(2) =   0
                l(3) =   1
                l(4) =   1

     atomic species   valence    mass     pseudopotential
        C              4.00    12.01100     C ( 1.00)

     24 Sym. Ops., with inversion, found (12 have fractional translation)


                                    s                        frac. trans.

      isym =  1     identity                                     

 cryst.   s( 1) = (     1          0          0      )
                  (     0          1          0      )
                  (     0          0          1      )

 cart.    s( 1) = (  1.0000000  0.0000000  0.0000000 )
                  (  0.0000000  1.0000000  0.0000000 )
                  (  0.0000000  0.0000000  1.0000000 )


      isym =  2     180 deg rotation - cart. axis [0,0,1]        

 cryst.   s( 2) = (    -1          0          0      )    f =( -0.3333333 )
                  (     0         -1          0      )       (  0.3333333 )
                  (     0          0          1      )       (  0.0000000 )

 cart.    s( 2) = ( -1.0000000  0.0000000  0.0000000 )    f =( -0.5000000 )
                  (  0.0000000 -1.0000000  0.0000000 )       (  0.2886751 )
                  (  0.0000000  0.0000000  1.0000000 )       (  0.0000000 )


      isym =  3     180 deg rotation - cart. axis [0,1,0]        

 cryst.   s( 3) = (    -1          0          0      )
                  (     1          1          0      )
                  (     0          0         -1      )

 cart.    s( 3) = ( -1.0000000  0.0000000  0.0000000 )
                  (  0.0000000  1.0000000  0.0000000 )
                  (  0.0000000  0.0000000 -1.0000000 )


      isym =  4     180 deg rotation - cart. axis [1,0,0]        

 cryst.   s( 4) = (     1          0          0      )    f =( -0.3333333 )
                  (    -1         -1          0      )       (  0.3333333 )
                  (     0          0         -1      )       (  0.0000000 )

 cart.    s( 4) = (  1.0000000  0.0000000  0.0000000 )    f =( -0.5000000 )
                  (  0.0000000 -1.0000000  0.0000000 )       (  0.2886751 )
                  (  0.0000000  0.0000000 -1.0000000 )       (  0.0000000 )


      isym =  5      60 deg rotation - cryst. axis [0,0,1]       

 cryst.   s( 5) = (     1          1          0      )    f =( -0.3333333 )
                  (    -1          0          0      )       (  0.3333333 )
                  (     0          0          1      )       (  0.0000000 )

 cart.    s( 5) = (  0.5000000 -0.8660254  0.0000000 )    f =( -0.5000000 )
                  (  0.8660254  0.5000000  0.0000000 )       (  0.2886751 )
                  (  0.0000000  0.0000000  1.0000000 )       (  0.0000000 )


      isym =  6      60 deg rotation - cryst. axis [0,0,-1]      

 cryst.   s( 6) = (     0         -1          0      )    f =( -0.3333333 )
                  (     1          1          0      )       (  0.3333333 )
                  (     0          0          1      )       (  0.0000000 )

 cart.    s( 6) = (  0.5000000  0.8660254  0.0000000 )    f =( -0.5000000 )
                  ( -0.8660254  0.5000000  0.0000000 )       (  0.2886751 )
                  (  0.0000000  0.0000000  1.0000000 )       (  0.0000000 )


      isym =  7     120 deg rotation - cryst. axis [0,0,1]       

 cryst.   s( 7) = (     0          1          0      )
                  (    -1         -1          0      )
                  (     0          0          1      )

 cart.    s( 7) = ( -0.5000000 -0.8660254  0.0000000 )
                  (  0.8660254 -0.5000000  0.0000000 )
                  (  0.0000000  0.0000000  1.0000000 )


      isym =  8     120 deg rotation - cryst. axis [0,0,-1]      

 cryst.   s( 8) = (    -1         -1          0      )
                  (     1          0          0      )
                  (     0          0          1      )

 cart.    s( 8) = ( -0.5000000  0.8660254  0.0000000 )
                  ( -0.8660254 -0.5000000  0.0000000 )
                  (  0.0000000  0.0000000  1.0000000 )


      isym =  9     180 deg rotation - cryst. axis [1,-1,0]      

 cryst.   s( 9) = (     0         -1          0      )
                  (    -1          0          0      )
                  (     0          0         -1      )

 cart.    s( 9) = (  0.5000000 -0.8660254  0.0000000 )
                  ( -0.8660254 -0.5000000  0.0000000 )
                  (  0.0000000  0.0000000 -1.0000000 )


      isym = 10     180 deg rotation - cryst. axis [2,1,0]       

 cryst.   s(10) = (     1          1          0      )
                  (     0         -1          0      )
                  (     0          0         -1      )

 cart.    s(10) = (  0.5000000  0.8660254  0.0000000 )
                  (  0.8660254 -0.5000000  0.0000000 )
                  (  0.0000000  0.0000000 -1.0000000 )


      isym = 11     180 deg rotation - cryst. axis [0,1,0]       

 cryst.   s(11) = (    -1         -1          0      )    f =( -0.3333333 )
                  (     0          1          0      )       (  0.3333333 )
                  (     0          0         -1      )       (  0.0000000 )

 cart.    s(11) = ( -0.5000000 -0.8660254  0.0000000 )    f =( -0.5000000 )
                  ( -0.8660254  0.5000000  0.0000000 )       (  0.2886751 )
                  (  0.0000000  0.0000000 -1.0000000 )       (  0.0000000 )


      isym = 12     180 deg rotation - cryst. axis [1,1,0]       

 cryst.   s(12) = (     0          1          0      )    f =( -0.3333333 )
                  (     1          0          0      )       (  0.3333333 )
                  (     0          0         -1      )       (  0.0000000 )

 cart.    s(12) = ( -0.5000000  0.8660254  0.0000000 )    f =( -0.5000000 )
                  (  0.8660254  0.5000000  0.0000000 )       (  0.2886751 )
                  (  0.0000000  0.0000000 -1.0000000 )       (  0.0000000 )


      isym = 13     inversion                                    

 cryst.   s(13) = (    -1          0          0      )    f =( -0.3333333 )
                  (     0         -1          0      )       (  0.3333333 )
                  (     0          0         -1      )       (  0.0000000 )

 cart.    s(13) = ( -1.0000000  0.0000000  0.0000000 )    f =( -0.5000000 )
                  (  0.0000000 -1.0000000  0.0000000 )       (  0.2886751 )
                  (  0.0000000  0.0000000 -1.0000000 )       (  0.0000000 )


      isym = 14     inv. 180 deg rotation - cart. axis [0,0,1]   

 cryst.   s(14) = (     1          0          0      )
                  (     0          1          0      )
                  (     0          0         -1      )

 cart.    s(14) = (  1.0000000  0.0000000  0.0000000 )
                  (  0.0000000  1.0000000  0.0000000 )
                  (  0.0000000  0.0000000 -1.0000000 )


      isym = 15     inv. 180 deg rotation - cart. axis [0,1,0]   

 cryst.   s(15) = (     1          0          0      )    f =( -0.3333333 )
                  (    -1         -1          0      )       (  0.3333333 )
                  (     0          0          1      )       (  0.0000000 )

 cart.    s(15) = (  1.0000000  0.0000000  0.0000000 )    f =( -0.5000000 )
                  (  0.0000000 -1.0000000  0.0000000 )       (  0.2886751 )
                  (  0.0000000  0.0000000  1.0000000 )       (  0.0000000 )


      isym = 16     inv. 180 deg rotation - cart. axis [1,0,0]   

 cryst.   s(16) = (    -1          0          0      )
                  (     1          1          0      )
                  (     0          0          1      )

 cart.    s(16) = ( -1.0000000  0.0000000  0.0000000 )
                  (  0.0000000  1.0000000  0.0000000 )
                  (  0.0000000  0.0000000  1.0000000 )


      isym = 17     inv.  60 deg rotation - cryst. axis [0,0,1]  

 cryst.   s(17) = (    -1         -1          0      )
                  (     1          0          0      )
                  (     0          0         -1      )

 cart.    s(17) = ( -0.5000000  0.8660254  0.0000000 )
                  ( -0.8660254 -0.5000000  0.0000000 )
                  (  0.0000000  0.0000000 -1.0000000 )


      isym = 18     inv.  60 deg rotation - cryst. axis [0,0,-1] 

 cryst.   s(18) = (     0          1          0      )
                  (    -1         -1          0      )
                  (     0          0         -1      )

 cart.    s(18) = ( -0.5000000 -0.8660254  0.0000000 )
                  (  0.8660254 -0.5000000  0.0000000 )
                  (  0.0000000  0.0000000 -1.0000000 )


      isym = 19     inv. 120 deg rotation - cryst. axis [0,0,1]  

 cryst.   s(19) = (     0         -1          0      )    f =( -0.3333333 )
                  (     1          1          0      )       (  0.3333333 )
                  (     0          0         -1      )       (  0.0000000 )

 cart.    s(19) = (  0.5000000  0.8660254  0.0000000 )    f =( -0.5000000 )
                  ( -0.8660254  0.5000000  0.0000000 )       (  0.2886751 )
                  (  0.0000000  0.0000000 -1.0000000 )       (  0.0000000 )


      isym = 20     inv. 120 deg rotation - cryst. axis [0,0,-1] 

 cryst.   s(20) = (     1          1          0      )    f =( -0.3333333 )
                  (    -1          0          0      )       (  0.3333333 )
                  (     0          0         -1      )       (  0.0000000 )

 cart.    s(20) = (  0.5000000 -0.8660254  0.0000000 )    f =( -0.5000000 )
                  (  0.8660254  0.5000000  0.0000000 )       (  0.2886751 )
                  (  0.0000000  0.0000000 -1.0000000 )       (  0.0000000 )


      isym = 21     inv. 180 deg rotation - cryst. axis [1,-1,0] 

 cryst.   s(21) = (     0          1          0      )    f =( -0.3333333 )
                  (     1          0          0      )       (  0.3333333 )
                  (     0          0          1      )       (  0.0000000 )

 cart.    s(21) = ( -0.5000000  0.8660254  0.0000000 )    f =( -0.5000000 )
                  (  0.8660254  0.5000000  0.0000000 )       (  0.2886751 )
                  (  0.0000000  0.0000000  1.0000000 )       (  0.0000000 )


      isym = 22     inv. 180 deg rotation - cryst. axis [2,1,0]  

 cryst.   s(22) = (    -1         -1          0      )    f =( -0.3333333 )
                  (     0          1          0      )       (  0.3333333 )
                  (     0          0          1      )       (  0.0000000 )

 cart.    s(22) = ( -0.5000000 -0.8660254  0.0000000 )    f =( -0.5000000 )
                  ( -0.8660254  0.5000000  0.0000000 )       (  0.2886751 )
                  (  0.0000000  0.0000000  1.0000000 )       (  0.0000000 )


      isym = 23     inv. 180 deg rotation - cryst. axis [0,1,0]  

 cryst.   s(23) = (     1          1          0      )
                  (     0         -1          0      )
                  (     0          0          1      )

 cart.    s(23) = (  0.5000000  0.8660254  0.0000000 )
                  (  0.8660254 -0.5000000  0.0000000 )
                  (  0.0000000  0.0000000  1.0000000 )


      isym = 24     inv. 180 deg rotation - cryst. axis [1,1,0]  

 cryst.   s(24) = (     0         -1          0      )
                  (    -1          0          0      )
                  (     0          0          1      )

 cart.    s(24) = (  0.5000000 -0.8660254  0.0000000 )
                  ( -0.8660254 -0.5000000  0.0000000 )
                  (  0.0000000  0.0000000  1.0000000 )


     point group D_6h(6/mmm)
     there are 12 classes
     the character table:

       E     2C6   2C3   C2    3C2'  3C2'' i     2S3   2S6   s_h   3s_d  3s_v 
A_1g   1.00  1.00  1.00  1.00  1.00  1.00  1.00  1.00  1.00  1.00  1.00  1.00
A_2g   1.00  1.00  1.00  1.00 -1.00 -1.00  1.00  1.00  1.00  1.00 -1.00 -1.00
B_1g   1.00 -1.00  1.00 -1.00  1.00 -1.00  1.00 -1.00  1.00 -1.00  1.00 -1.00
B_2g   1.00 -1.00  1.00 -1.00 -1.00  1.00  1.00 -1.00  1.00 -1.00 -1.00  1.00
E_1g   2.00  1.00 -1.00 -2.00  0.00  0.00  2.00  1.00 -1.00 -2.00  0.00  0.00
E_2g   2.00 -1.00 -1.00  2.00  0.00  0.00  2.00 -1.00 -1.00  2.00  0.00  0.00
A_1u   1.00  1.00  1.00  1.00  1.00  1.00 -1.00 -1.00 -1.00 -1.00 -1.00 -1.00
A_2u   1.00  1.00  1.00  1.00 -1.00 -1.00 -1.00 -1.00 -1.00 -1.00  1.00  1.00
B_1u   1.00 -1.00  1.00 -1.00  1.00 -1.00 -1.00  1.00 -1.00  1.00 -1.00  1.00
B_2u   1.00 -1.00  1.00 -1.00 -1.00  1.00 -1.00  1.00 -1.00  1.00  1.00 -1.00
E_1u   2.00  1.00 -1.00 -2.00  0.00  0.00 -2.00 -1.00  1.00  2.00  0.00  0.00
E_2u   2.00 -1.00 -1.00  2.00  0.00  0.00 -2.00  1.00  1.00 -2.00  0.00  0.00

     the symmetry operations in each class and the name of the first element:

     E        1
          identity                                               
     2C6      5    6
           60 deg rotation - cryst. axis [0,0,1]                 
     2C3      7    8
          120 deg rotation - cryst. axis [0,0,1]                 
     C2       2
          180 deg rotation - cart. axis [0,0,1]                  
     3C2'     4   12   11
          180 deg rotation - cart. axis [1,0,0]                  
     3C2''    3    9   10
          180 deg rotation - cart. axis [0,1,0]                  
     i       13
          inversion                                              
     2S3     17   18
          inv.  60 deg rotation - cryst. axis [0,0,1]            
     2S6     19   20
          inv. 120 deg rotation - cryst. axis [0,0,1]            
     s_h     14
          inv. 180 deg rotation - cart. axis [0,0,1]             
     3s_d    16   24   23
          inv. 180 deg rotation - cart. axis [1,0,0]             
     3s_v    15   21   22
          inv. 180 deg rotation - cart. axis [0,1,0]             

   Cartesian axes

     site n.     atom                  positions (alat units)
         1           C   tau(   1) = (   0.0000000   0.0000000   0.0000000  )
         2           C   tau(   2) = (  -0.0000000   0.5773503   0.0000000  )

   Crystallographic axes

     site n.     atom                  positions (cryst. coord.)
         1           C   tau(   1) = (  0.0000000  0.0000000  0.0000000  )
         2           C   tau(   2) = (  0.3333333  0.6666667  0.0000000  )

     number of k points=    19  Marzari-Vanderbilt smearing, width (Ry)=  0.0100
                       cart. coord. in units 2pi/alat
        k(    1) = (   0.0000000   0.0000000   0.0000000), wk =   0.0138889
        k(    2) = (   0.0000000   0.0962250   0.0000000), wk =   0.0833333
        k(    3) = (   0.0000000   0.1924501   0.0000000), wk =   0.0833333
        k(    4) = (   0.0000000   0.2886751   0.0000000), wk =   0.0833333
        k(    5) = (   0.0000000   0.3849002   0.0000000), wk =   0.0833333
        k(    6) = (   0.0000000   0.4811252   0.0000000), wk =   0.0833333
        k(    7) = (   0.0000000  -0.5773503   0.0000000), wk =   0.0416667
        k(    8) = (   0.0833333   0.1443376   0.0000000), wk =   0.0833333
        k(    9) = (   0.0833333   0.2405626   0.0000000), wk =   0.1666667
        k(   10) = (   0.0833333   0.3367877   0.0000000), wk =   0.1666667
        k(   11) = (   0.0833333   0.4330127   0.0000000), wk =   0.1666667
        k(   12) = (   0.0833333   0.5292377   0.0000000), wk =   0.1666667
        k(   13) = (   0.1666667   0.2886751   0.0000000), wk =   0.0833333
        k(   14) = (   0.1666667   0.3849002   0.0000000), wk =   0.1666667
        k(   15) = (   0.1666667   0.4811252   0.0000000), wk =   0.1666667
        k(   16) = (   0.1666667   0.5773503   0.0000000), wk =   0.0833333
        k(   17) = (   0.2500000   0.4330127   0.0000000), wk =   0.0833333
        k(   18) = (   0.2500000   0.5292377   0.0000000), wk =   0.1666667
        k(   19) = (   0.3333333   0.5773503   0.0000000), wk =   0.0277778

                       cryst. coord.
        k(    1) = (   0.0000000   0.0000000   0.0000000), wk =   0.0138889
        k(    2) = (   0.0000000   0.0833333   0.0000000), wk =   0.0833333
        k(    3) = (   0.0000000   0.1666667   0.0000000), wk =   0.0833333
        k(    4) = (   0.0000000   0.2500000   0.0000000), wk =   0.0833333
        k(    5) = (   0.0000000   0.3333333   0.0000000), wk =   0.0833333
        k(    6) = (   0.0000000   0.4166667   0.0000000), wk =   0.0833333
        k(    7) = (   0.0000000  -0.5000000   0.0000000), wk =   0.0416667
        k(    8) = (   0.0833333   0.0833333   0.0000000), wk =   0.0833333
        k(    9) = (   0.0833333   0.1666667   0.0000000), wk =   0.1666667
        k(   10) = (   0.0833333   0.2500000   0.0000000), wk =   0.1666667
        k(   11) = (   0.0833333   0.3333333   0.0000000), wk =   0.1666667
        k(   12) = (   0.0833333   0.4166667   0.0000000), wk =   0.1666667
        k(   13) = (   0.1666667   0.1666667   0.0000000), wk =   0.0833333
        k(   14) = (   0.1666667   0.2500000   0.0000000), wk =   0.1666667
        k(   15) = (   0.1666667   0.3333333   0.0000000), wk =   0.1666667
        k(   16) = (   0.1666667   0.4166667   0.0000000), wk =   0.0833333
        k(   17) = (   0.2500000   0.2500000   0.0000000), wk =   0.0833333
        k(   18) = (   0.2500000   0.3333333   0.0000000), wk =   0.1666667
        k(   19) = (   0.3333333   0.3333333   0.0000000), wk =   0.0277778

     Dense  grid:    32597 G-vectors     FFT dimensions: (  24,  24, 144)

     Dynamical RAM for                 wfc:       0.50 MB

     Dynamical RAM for     wfc (w. buffer):       9.91 MB

     Dynamical RAM for           str. fact:       0.50 MB

     Dynamical RAM for           local pot:       0.00 MB

     Dynamical RAM for          nlocal pot:       0.99 MB

     Dynamical RAM for                qrad:       0.71 MB

     Dynamical RAM for          rho,v,vnew:       3.39 MB

     Dynamical RAM for               rhoin:       1.13 MB

     Dynamical RAM for            rho*nmix:       7.96 MB

     Dynamical RAM for           G-vectors:       2.11 MB

     Dynamical RAM for          h,s,v(r/c):       0.01 MB

     Dynamical RAM for          <psi|beta>:       0.00 MB

     Dynamical RAM for                 psi:       0.99 MB

     Dynamical RAM for                hpsi:       0.99 MB

     Dynamical RAM for      wfcinit/wfcrot:       0.99 MB

     Estimated static dynamical RAM per process >      30.87 MB

     Estimated max dynamical RAM per process >      32.86 MB

     Initial potential from superposition of free atoms

     starting charge    7.99991, renormalised to    8.00000

     negative rho (up, down):  1.565E-05 0.000E+00
     Starting wfcs are    8 randomized atomic wfcs

     total cpu time spent up to now is        1.5 secs

     Self-consistent Calculation

     iteration #  1     ecut=    60.00 Ry     beta= 0.70
     Davidson diagonalization with overlap
     ethr =  1.00E-02,  avg # of iterations =  6.1

     negative rho (up, down):  1.630E-07 0.000E+00

     total cpu time spent up to now is        2.8 secs

     total energy              =     -24.06010789 Ry
     estimated scf accuracy    <       0.20045439 Ry

     iteration #  2     ecut=    60.00 Ry     beta= 0.70
     Davidson diagonalization with overlap
     ethr =  2.51E-03,  avg # of iterations =  4.1

     total cpu time spent up to now is        3.8 secs

     total energy              =     -24.08837691 Ry
     estimated scf accuracy    <       0.00202977 Ry

     iteration #  3     ecut=    60.00 Ry     beta= 0.70
     Davidson diagonalization with overlap
     ethr =  2.54E-05,  avg # of iterations =  9.7

     total cpu time spent up to now is        5.2 secs

     total energy              =     -24.08880347 Ry
     estimated scf accuracy    <       0.00015336 Ry

     iteration #  4     ecut=    60.00 Ry     beta= 0.70
     Davidson diagonalization with overlap
     ethr =  1.92E-06,  avg # of iterations =  4.7

     total cpu time spent up to now is        6.3 secs

     total energy              =     -24.08881662 Ry
     estimated scf accuracy    <       0.00000248 Ry

     iteration #  5     ecut=    60.00 Ry     beta= 0.70
     Davidson diagonalization with overlap
     ethr =  3.10E-08,  avg # of iterations =  3.1

     total cpu time spent up to now is        8.0 secs

     End of self-consistent calculation

          k = 0.0000 0.0000 0.0000 (  4053 PWs)   bands (ev):

   -21.2837  -9.3427  -4.6517  -4.6517   1.5957   2.5095   3.0398   4.9920

     occupation numbers 
     1.0000   1.0000   1.0000   1.0000   0.0000   0.0000   0.0000   0.0000

          k = 0.0000 0.0962 0.0000 (  4064 PWs)   bands (ev):

   -21.1183  -9.1434  -5.3096  -4.9977   1.8210   2.7368   3.2691   5.2176

     occupation numbers 
     1.0000   1.0000   1.0000   1.0000   0.0000   0.0000   0.0000   0.0000

          k = 0.0000 0.1925 0.0000 (  4070 PWs)   bands (ev):

   -20.6238  -8.5520  -6.9658  -5.8077   2.4970   3.4167   3.9568   5.8910

     occupation numbers 
     1.0000   1.0000   1.0000   1.0000   0.0000   0.0000   0.0000   0.0000

          k = 0.0000 0.2887 0.0000 (  4058 PWs)   bands (ev):

   -19.8058  -9.0867  -7.5870  -6.7060   3.6216   4.5308   5.1017   5.7780

     occupation numbers 
     1.0000   1.0000   1.0000   1.0000   0.0000   0.0000   0.0000   0.0000

          k = 0.0000 0.3849 0.0000 (  4084 PWs)   bands (ev):

   -18.6765 -11.3146  -7.4547  -6.3005   3.3863   5.1848   6.1531   6.3200

     occupation numbers 
     1.0000   1.0000   1.0000   1.0000   0.0000   0.0000   0.0000   0.0000

          k = 0.0000 0.4811 0.0000 (  4070 PWs)   bands (ev):

   -17.2649 -13.4393  -7.9371  -4.8552   1.2158   6.0736   7.2167   8.1582

     occupation numbers 
     1.0000   1.0000   1.0000   1.0000   0.0000   0.0000   0.0000   0.0000

          k = 0.0000-0.5774 0.0000 (  4104 PWs)   bands (ev):

   -15.9707 -14.9801  -8.1035  -3.9975   0.0993   5.9969   9.5497   9.6930

     occupation numbers 
     1.0000   1.0000   1.0000   1.0000   0.0000   0.0000   0.0000   0.0000

          k = 0.0833 0.1443 0.0000 (  4065 PWs)   bands (ev):

   -20.7884  -8.7478  -6.3541  -5.6894   2.2718   3.1905   3.7276   5.6675

     occupation numbers 
     1.0000   1.0000   1.0000   1.0000   0.0000   0.0000   0.0000   0.0000

          k = 0.0833 0.2406 0.0000 (  4067 PWs)   bands (ev):

   -20.1321  -8.0822  -7.9688  -6.7064   3.1730   4.0938   4.6448   6.5220

     occupation numbers 
     1.0000   1.0000   1.0000   1.0000   0.0000   0.0000   0.0000   0.0000

          k = 0.0833 0.3368 0.0000 (  4065 PWs)   bands (ev):

   -19.1583 -10.1783  -7.6090  -6.8362   4.4147   4.5203   5.4740   6.0180

     occupation numbers 
     1.0000   1.0000   1.0000   1.0000   0.0000   0.0000   0.0000   0.0000

          k = 0.0833 0.4330 0.0000 (  4072 PWs)   bands (ev):

   -17.8852 -12.3252  -8.2554  -5.4359   2.1798   6.2939   6.9277   7.2484

     occupation numbers 
     1.0000   1.0000   1.0000   1.0000   0.0000   0.0000   0.0000   0.0000

          k = 0.0833 0.5292 0.0000 (  4077 PWs)   bands (ev):

   -16.3847 -14.2939  -8.5896  -4.1059   0.3819   6.7403   8.5285   9.4218

     occupation numbers 
     1.0000   1.0000   1.0000   1.0000   0.0000   0.0000   0.0000   0.0000

          k = 0.1667 0.2887 0.0000 (  4066 PWs)   bands (ev):

   -19.3202  -9.4224  -8.0922  -7.0179   4.2977   4.8833   5.2159   5.7915

     occupation numbers 
     1.0000   1.0000   1.0000   1.0000   0.0000   0.0000   0.0000   0.0000

          k = 0.1667 0.3849 0.0000 (  4070 PWs)   bands (ev):

   -18.2014 -11.1692  -9.1631  -5.7459   2.9031   5.8635   6.7632   7.3938

     occupation numbers 
     1.0000   1.0000   1.0000   1.0000   0.0000   0.0000   0.0000   0.0000

          k = 0.1667 0.4811 0.0000 (  4053 PWs)   bands (ev):

   -16.8100 -13.1042  -9.7450  -4.2972   0.9603   7.8472   8.6545   8.6656

     occupation numbers 
     1.0000   1.0000   1.0000   1.0000   0.0000   0.0000   0.0000   0.0000

          k = 0.1667 0.5774 0.0000 (  4052 PWs)   bands (ev):

   -15.5472 -14.5705  -9.9321  -3.3892  -0.1261   8.5634  10.1233  10.3096

     occupation numbers 
     1.0000   1.0000   1.0000   1.0000   0.0000   0.0000   0.0000   0.0000

          k = 0.2500 0.4330 0.0000 (  4056 PWs)   bands (ev):

   -16.9603 -12.2063 -10.6723  -4.3830   1.2646   7.6323   8.3594   9.2204

     occupation numbers 
     1.0000   1.0000   1.0000   1.0000   0.0000   0.0000   0.0000   0.0000

          k = 0.2500 0.5292 0.0000 (  4038 PWs)   bands (ev):

   -15.5182 -13.6489 -11.3865  -2.9750  -0.2797   9.3367   9.7578  10.8330

     occupation numbers 
     1.0000   1.0000   1.0000   1.0000   0.0000   0.0000   0.0000   0.0000

          k = 0.3333 0.5774 0.0000 (  4056 PWs)   bands (ev):

   -14.2832 -14.2832 -12.3118  -1.5980  -1.5980   9.0783  11.4142  11.4143

     occupation numbers 
     1.0000   1.0000   1.0000   0.5000   0.5000   0.0000   0.0000   0.0000

     the Fermi energy is    -1.5790 ev

!    total energy              =     -24.08881788 Ry
     estimated scf accuracy    <       0.00000005 Ry
     smearing contrib. (-TS)   =      -0.00009116 Ry
     internal energy E=F+TS    =     -24.08872671 Ry

     The total energy is F=E-TS. E is the sum of the following terms:
     one-electron contribution =    -154.90895982 Ry
     hartree contribution      =      78.97825830 Ry
     xc contribution           =      -8.60076127 Ry
     ewald contribution        =      60.44273608 Ry

     convergence has been achieved in   5 iterations

     Forces acting on atoms (cartesian axes, Ry/au):

     atom    1 type  1   force =     0.00000000   -0.00000000    0.00000000
     atom    2 type  1   force =     0.00000000    0.00000000    0.00000000
     The non-local contrib.  to forces
     atom    1 type  1   force =     0.00000000   -0.00000000   -0.00000000
     atom    2 type  1   force =    -0.00000000    0.00000000   -0.00000000
     The ionic contribution  to forces
     atom    1 type  1   force =    -0.00000001    0.00000000   -0.00000000
     atom    2 type  1   force =     0.00000001   -0.00000000   -0.00000000
     The local contribution  to forces
     atom    1 type  1   force =     0.00000000   -0.00000000    0.00000000
     atom    2 type  1   force =     0.00000001   -0.00000000    0.00000000
     The core correction contribution to forces
     atom    1 type  1   force =     0.00000000   -0.00000000    0.00000000
     atom    2 type  1   force =    -0.00000000    0.00000000    0.00000000
     The Hubbard contrib.    to forces
     atom    1 type  1   force =     0.00000000    0.00000000    0.00000000
     atom    2 type  1   force =     0.00000000    0.00000000    0.00000000
     The SCF correction term to forces
     atom    1 type  1   force =    -0.00000000    0.00000000    0.00000000
     atom    2 type  1   force =     0.00000000   -0.00000000    0.00000000

     Total force =     0.000000     Total SCF correction =     0.000000


     Computing stress (Cartesian axis) and pressure

          total   stress  (Ry/bohr**3)                   (kbar)     P=        0.33
   0.00004054  -0.00000000   0.00000000            5.96       -0.00        0.00
  -0.00000000   0.00004054   0.00000000           -0.00        5.96        0.00
   0.00000000   0.00000000  -0.00007431            0.00        0.00      -10.93

     kinetic stress (kbar)   3088.51      0.00      0.00
                                0.00   3088.51      0.00
                                0.00      0.00   3401.28

     local   stress (kbar) -47107.29      0.00      0.00
                                0.00 -47107.29     -0.00
                                0.00     -0.00  48054.32

     nonloc. stress (kbar)   -320.43      0.00     -0.00
                                0.00   -320.43      0.00
                               -0.00      0.00   -268.58

     hartree stress (kbar)  22221.26     -0.00     -0.00
                               -0.00  22221.26      0.00
                               -0.00      0.00 -21987.99

     exc-cor stress (kbar)   -245.51     -0.00      0.00
                               -0.00   -245.51      0.00
                                0.00      0.00   -274.78

     corecor stress (kbar)   -464.09      0.00     -0.00
                                0.00   -464.09      0.00
                               -0.00      0.00   -452.81

     ewald   stress (kbar)  22833.51     -0.00     -0.00
                               -0.00  22833.51     -0.00
                               -0.00     -0.00 -28482.36

     hubbard stress (kbar)      0.00      0.00      0.00
                                0.00      0.00      0.00
                                0.00      0.00      0.00

     DFT-D   stress (kbar)      0.00      0.00      0.00
                                0.00      0.00      0.00
                                0.00      0.00      0.00

     XDM     stress (kbar)      0.00      0.00      0.00
                                0.00      0.00      0.00
                                0.00      0.00      0.00

     dft-nl  stress (kbar)      0.00      0.00      0.00
                                0.00      0.00      0.00
                                0.00      0.00      0.00

     TS-vdW  stress (kbar)      0.00      0.00      0.00
                                0.00      0.00      0.00
                                0.00      0.00      0.00



     BFGS Geometry Optimization
     Energy error            =      0.0E+00
     Gradient error          =      8.0E-26
     Cell gradient error     =      7.4E-05


     number of scf cycles    =   1
     number of bfgs steps    =   0

     enthalpy new            =     -24.0888178758 Ry

     new trust radius        =       0.0084510734 bohr
     new conv_thr            =       0.0000010000 Ry

     new unit-cell volume =    517.49182 a.u.^3 (    76.68438 Ang^3 )
     density =      0.52018 g/cm^3

CELL_PARAMETERS (alat=  4.63500000)
   1.001013553  -0.000000000   0.000000000
  -0.500506777   0.866903167   0.000000000
   0.000000000   0.000000000   5.988854037

ATOMIC_POSITIONS (crystal)
C            -0.0000000000       -0.0000000000        0.0000000000
C             0.3333333330        0.6666666670        0.0000000000



     Writing output data file ./tmp/graphene.save/
     NEW-OLD atomic charge density approx. for the potential

     negative rho (up, down):  7.324E-08 0.000E+00
     extrapolated charge    8.00133, renormalised to    8.00000

     total cpu time spent up to now is       13.9 secs

     Self-consistent Calculation

     iteration #  1     ecut=    60.00 Ry     beta= 0.70
     Davidson diagonalization with overlap
     ethr =  1.00E-06,  avg # of iterations =  2.0

     Threshold (ethr) on eigenvalues was too large:
     Diagonalizing with lowered threshold

     Davidson diagonalization with overlap
     ethr =  3.78E-08,  avg # of iterations =  1.0

     total cpu time spent up to now is       17.6 secs

     total energy              =     -24.08891780 Ry
     estimated scf accuracy    <       0.00000317 Ry

     iteration #  2     ecut=    60.00 Ry     beta= 0.70
     Davidson diagonalization with overlap
     ethr =  3.96E-08,  avg # of iterations =  2.1

     total cpu time spent up to now is       19.6 secs

     End of self-consistent calculation

          k = 0.0000 0.0000 0.0000 (  4053 PWs)   bands (ev):

   -21.2778  -9.3384  -4.6729  -4.6729   1.5950   2.5097   3.0467   5.0054

     occupation numbers 
     1.0000   1.0000   1.0000   1.0000   0.0000   0.0000   0.0000   0.0000

          k = 0.0000 0.0961 0.0000 (  4064 PWs)   bands (ev):

   -21.1127  -9.1397  -5.3301  -5.0178   1.8198   2.7365   3.2754   5.2304

     occupation numbers 
     1.0000   1.0000   1.0000   1.0000   0.0000   0.0000   0.0000   0.0000

          k = 0.0000 0.1923 0.0000 (  4070 PWs)   bands (ev):

   -20.6191  -8.5498  -6.9838  -5.8253   2.4944   3.4149   3.9617   5.9021

     occupation numbers 
     1.0000   1.0000   1.0000   1.0000   0.0000   0.0000   0.0000   0.0000

          k = 0.0000 0.2884 0.0000 (  4058 PWs)   bands (ev):

   -19.8026  -9.1012  -7.5873  -6.7210   3.6167   4.5261   5.1041   5.7406

     occupation numbers 
     1.0000   1.0000   1.0000   1.0000   0.0000   0.0000   0.0000   0.0000

          k = 0.0000 0.3845 0.0000 (  4084 PWs)   bands (ev):

   -18.6755 -11.3251  -7.4677  -6.3043   3.3566   5.1765   6.1451   6.2741

     occupation numbers 
     1.0000   1.0000   1.0000   1.0000   0.0000   0.0000   0.0000   0.0000

          k = 0.0000 0.4806 0.0000 (  4070 PWs)   bands (ev):

   -17.2671 -13.4454  -7.9488  -4.8633   1.1934   6.0256   7.2039   8.1457

     occupation numbers 
     1.0000   1.0000   1.0000   1.0000   0.0000   0.0000   0.0000   0.0000

          k =-0.0000-0.5768 0.0000 (  4104 PWs)   bands (ev):

   -15.9792 -14.9794  -8.1148  -4.0086   0.0810   5.9481   9.5318   9.6756

     occupation numbers 
     1.0000   1.0000   1.0000   1.0000   0.0000   0.0000   0.0000   0.0000

          k = 0.0832 0.1442 0.0000 (  4065 PWs)   bands (ev):

   -20.7834  -8.7451  -6.3733  -5.7073   2.2698   3.1892   3.7330   5.6793

     occupation numbers 
     1.0000   1.0000   1.0000   1.0000   0.0000   0.0000   0.0000   0.0000

          k = 0.0832 0.2403 0.0000 (  4067 PWs)   bands (ev):

   -20.1284  -8.0989  -7.9681  -6.7214   3.1690   4.0905   4.6483   6.5168

     occupation numbers 
     1.0000   1.0000   1.0000   1.0000   0.0000   0.0000   0.0000   0.0000

          k = 0.0832 0.3364 0.0000 (  4065 PWs)   bands (ev):

   -19.1564 -10.1911  -7.6218  -6.8385   4.3815   4.5136   5.4669   6.0184

     occupation numbers 
     1.0000   1.0000   1.0000   1.0000   0.0000   0.0000   0.0000   0.0000

          k = 0.0832 0.4326 0.0000 (  4072 PWs)   bands (ev):

   -17.8859 -12.3339  -8.2667  -5.4422   2.1537   6.2824   6.8799   7.2379

     occupation numbers 
     1.0000   1.0000   1.0000   1.0000   0.0000   0.0000   0.0000   0.0000

          k = 0.0832 0.5287 0.0000 (  4077 PWs)   bands (ev):

   -16.3896 -14.2975  -8.6002  -4.1164   0.3620   6.6907   8.5132   9.4057

     occupation numbers 
     1.0000   1.0000   1.0000   1.0000   0.0000   0.0000   0.0000   0.0000

          k = 0.1665 0.2884 0.0000 (  4066 PWs)   bands (ev):

   -19.3179  -9.4379  -8.1030  -7.0197   4.2915   4.8470   5.2101   5.7926

     occupation numbers 
     1.0000   1.0000   1.0000   1.0000   0.0000   0.0000   0.0000   0.0000

          k = 0.1665 0.3845 0.0000 (  4070 PWs)   bands (ev):

   -18.2014 -11.1815  -9.1719  -5.7512   2.8734   5.8540   6.7537   7.3913

     occupation numbers 
     1.0000   1.0000   1.0000   1.0000   0.0000   0.0000   0.0000   0.0000

          k = 0.1665 0.4806 0.0000 (  4053 PWs)   bands (ev):

   -16.8131 -13.1118  -9.7531  -4.3068   0.9370   7.8329   8.6143   8.6399

     occupation numbers 
     1.0000   1.0000   1.0000   1.0000   0.0000   0.0000   0.0000   0.0000

          k = 0.1665 0.5768 0.0000 (  4052 PWs)   bands (ev):

   -15.5562 -14.5718  -9.9399  -3.4020  -0.1455   8.5110  10.1033  10.2904

     occupation numbers 
     1.0000   1.0000   1.0000   1.0000   0.0000   0.0000   0.0000   0.0000

          k = 0.2497 0.4326 0.0000 (  4056 PWs)   bands (ev):

   -16.9629 -12.2186 -10.6760  -4.3922   1.2394   7.6190   8.3454   9.2139

     occupation numbers 
     1.0000   1.0000   1.0000   1.0000   0.0000   0.0000   0.0000   0.0000

          k = 0.2497 0.5287 0.0000 (  4038 PWs)   bands (ev):

   -15.5247 -13.6571 -11.3891  -2.9885  -0.3003   9.3180   9.7387  10.7802

     occupation numbers 
     1.0000   1.0000   1.0000   1.0000   0.0000   0.0000   0.0000   0.0000

          k = 0.3330 0.5768 0.0000 (  4056 PWs)   bands (ev):

   -14.2934 -14.2934 -12.3083  -1.6153  -1.6153   9.0608  11.3801  11.3801

     occupation numbers 
     1.0000   1.0000   1.0000   0.5000   0.5000   0.0000   0.0000   0.0000

     the Fermi energy is    -1.5964 ev

!    total energy              =     -24.08891941 Ry
     estimated scf accuracy    <       0.00000050 Ry
     smearing contrib. (-TS)   =      -0.00009116 Ry
     internal energy E=F+TS    =     -24.08882824 Ry

     The total energy is F=E-TS. E is the sum of the following terms:
     one-electron contribution =    -154.22105260 Ry
     hartree contribution      =      78.63418990 Ry
     xc contribution           =      -8.59644678 Ry
     ewald contribution        =      60.09448123 Ry

     convergence has been achieved in   2 iterations

     Forces acting on atoms (cartesian axes, Ry/au):

     atom    1 type  1   force =    -0.00000000    0.00000000    0.00000000
     atom    2 type  1   force =     0.00000000    0.00000000    0.00000000
     The non-local contrib.  to forces
     atom    1 type  1   force =    -0.00000000    0.00000000    0.00000000
     atom    2 type  1   force =     0.00000000    0.00000000    0.00000000
     The ionic contribution  to forces
     atom    1 type  1   force =    -0.00000001    0.00000000   -0.00000000
     atom    2 type  1   force =     0.00000001   -0.00000000   -0.00000000
     The local contribution  to forces
     atom    1 type  1   force =     0.00000000   -0.00000000    0.00000000
     atom    2 type  1   force =     0.00000001   -0.00000000    0.00000000
     The core correction contribution to forces
     atom    1 type  1   force =     0.00000000   -0.00000000    0.00000000
     atom    2 type  1   force =    -0.00000000    0.00000000    0.00000000
     The Hubbard contrib.    to forces
     atom    1 type  1   force =     0.00000000    0.00000000    0.00000000
     atom    2 type  1   force =     0.00000000    0.00000000    0.00000000
     The SCF correction term to forces
     atom    1 type  1   force =     0.00000000   -0.00000000    0.00000000
     atom    2 type  1   force =    -0.00000000    0.00000000    0.00000000

     Total force =     0.000000     Total SCF correction =     0.000000


     Computing stress (Cartesian axis) and pressure

          total   stress  (Ry/bohr**3)                   (kbar)     P=       -1.45
   0.00001944   0.00000000   0.00000000            2.86        0.00        0.00
  -0.00000000   0.00001944  -0.00000000           -0.00        2.86       -0.00
   0.00000000   0.00000000  -0.00006840            0.00        0.00      -10.06

     kinetic stress (kbar)   3084.26     -0.00      0.00
                               -0.00   3084.26      0.00
                                0.00      0.00   3399.16

     local   stress (kbar) -46897.19      0.00     -0.00
                                0.00 -46897.19     -0.00
                               -0.00     -0.00  47838.53

     nonloc. stress (kbar)   -319.41      0.00      0.00
                                0.00   -319.41      0.00
                                0.00      0.00   -267.97

     hartree stress (kbar)  22119.25      0.00     -0.00
                                0.00  22119.25      0.00
                               -0.00      0.00 -21885.52

     exc-cor stress (kbar)   -245.15     -0.00     -0.00
                               -0.00   -245.15      0.00
                               -0.00      0.00   -274.39

     corecor stress (kbar)   -463.90      0.00     -0.00
                                0.00   -463.90     -0.00
                               -0.00     -0.00   -452.68

     ewald   stress (kbar)  22724.99     -0.00     -0.00
                               -0.00  22724.99     -0.00
                               -0.00     -0.00 -28367.18

     hubbard stress (kbar)      0.00      0.00      0.00
                                0.00      0.00      0.00
                                0.00      0.00      0.00

     DFT-D   stress (kbar)      0.00      0.00      0.00
                                0.00      0.00      0.00
                                0.00      0.00      0.00

     XDM     stress (kbar)      0.00      0.00      0.00
                                0.00      0.00      0.00
                                0.00      0.00      0.00

     dft-nl  stress (kbar)      0.00      0.00      0.00
                                0.00      0.00      0.00
                                0.00      0.00      0.00

     TS-vdW  stress (kbar)      0.00      0.00      0.00
                                0.00      0.00      0.00
                                0.00      0.00      0.00


     Energy error            =      1.0E-04
     Gradient error          =      1.4E-25
     Cell gradient error     =      6.8E-05


     number of scf cycles    =   2
     number of bfgs steps    =   1

     enthalpy old            =     -24.0888178758 Ry
     enthalpy new            =     -24.0889194051 Ry

     CASE: enthalpy_new < enthalpy_old

     new trust radius        =       0.0093142583 bohr
     new conv_thr            =       0.0000000100 Ry

     new unit-cell volume =    517.12416 a.u.^3 (    76.62990 Ang^3 )
     density =      0.52055 g/cm^3

CELL_PARAMETERS (alat=  4.63500000)
   1.001683763  -0.000000000   0.000000000
  -0.500841881   0.867483585   0.000000000
   0.000000000  -0.000000000   5.976593478

ATOMIC_POSITIONS (crystal)
C            -0.0000000000       -0.0000000000        0.0000000000
C             0.3333333330        0.6666666670        0.0000000000



     Writing output data file ./tmp/graphene.save/
     NEW-OLD atomic charge density approx. for the potential

     negative rho (up, down):  1.081E-07 0.000E+00
     extrapolated charge    7.99431, renormalised to    8.00000

     total cpu time spent up to now is       25.0 secs

     Self-consistent Calculation

     iteration #  1     ecut=    60.00 Ry     beta= 0.70
     Davidson diagonalization with overlap
     ethr =  1.00E-06,  avg # of iterations =  3.7

     Threshold (ethr) on eigenvalues was too large:
     Diagonalizing with lowered threshold

     Davidson diagonalization with overlap
     ethr =  3.54E-08,  avg # of iterations =  1.0

     total cpu time spent up to now is       28.8 secs

     total energy              =     -24.08899474 Ry
     estimated scf accuracy    <       0.00000279 Ry

     iteration #  2     ecut=    60.00 Ry     beta= 0.70
     Davidson diagonalization with overlap
     ethr =  3.48E-08,  avg # of iterations =  4.3

     total cpu time spent up to now is       31.3 secs

     total energy              =     -24.08900569 Ry
     estimated scf accuracy    <       0.00000663 Ry

     iteration #  3     ecut=    60.00 Ry     beta= 0.70
     Davidson diagonalization with overlap
     ethr =  3.48E-08,  avg # of iterations =  1.0

     total cpu time spent up to now is       32.9 secs

     total energy              =     -24.08900418 Ry
     estimated scf accuracy    <       0.00000248 Ry

     iteration #  4     ecut=    60.00 Ry     beta= 0.70
     Davidson diagonalization with overlap
     ethr =  3.10E-08,  avg # of iterations =  2.0

     total cpu time spent up to now is       34.7 secs

     total energy              =     -24.08900471 Ry
     estimated scf accuracy    <       0.00000003 Ry

     iteration #  5     ecut=    60.00 Ry     beta= 0.70
     Davidson diagonalization with overlap
     ethr =  3.34E-10,  avg # of iterations =  1.6

     total cpu time spent up to now is       36.7 secs

     total energy              =     -24.08900470 Ry
     estimated scf accuracy    <       0.00000002 Ry

     iteration #  6     ecut=    60.00 Ry     beta= 0.70
     Davidson diagonalization with overlap
     ethr =  2.05E-10,  avg # of iterations =  1.0

     total cpu time spent up to now is       38.9 secs

     End of self-consistent calculation

          k = 0.0000 0.0000 0.0000 (  4053 PWs)   bands (ev):

   -21.2545  -9.3196  -4.6657  -4.6657   1.6012   2.5174   3.0530   5.0230

     occupation numbers 
     1.0000   1.0000   1.0000   1.0000   0.0000   0.0000   0.0000   0.0000

          k = 0.0000 0.0961 0.0000 (  4064 PWs)   bands (ev):

   -21.0896  -9.1212  -5.3224  -5.0099   1.8258   2.7438   3.2814   5.2476

     occupation numbers 
     1.0000   1.0000   1.0000   1.0000   0.0000   0.0000   0.0000   0.0000

          k = 0.0000 0.1921 0.0000 (  4070 PWs)   bands (ev):

   -20.5966  -8.5322  -6.9747  -5.8158   2.4995   3.4213   3.9667   5.9181

     occupation numbers 
     1.0000   1.0000   1.0000   1.0000   0.0000   0.0000   0.0000   0.0000

          k = 0.0000 0.2882 0.0000 (  4058 PWs)   bands (ev):

   -19.7810  -9.0902  -7.5713  -6.7099   3.6203   4.5306   5.1076   5.7333

     occupation numbers 
     1.0000   1.0000   1.0000   1.0000   0.0000   0.0000   0.0000   0.0000

          k = 0.0000 0.3843 0.0000 (  4084 PWs)   bands (ev):

   -18.6553 -11.3117  -7.4553  -6.2904   3.3541   5.1781   6.1473   6.2622

     occupation numbers 
     1.0000   1.0000   1.0000   1.0000   0.0000   0.0000   0.0000   0.0000

          k = 0.0000 0.4803 0.0000 (  4070 PWs)   bands (ev):

   -17.2488 -13.4293  -7.9355  -4.8520   1.1954   6.0126   7.2026   8.1450

     occupation numbers 
     1.0000   1.0000   1.0000   1.0000   0.0000   0.0000   0.0000   0.0000

          k =-0.0000-0.5764-0.0000 (  4104 PWs)   bands (ev):

   -15.9649 -14.9591  -8.1012  -3.9991   0.0854   5.9347   9.5275   9.6714

     occupation numbers 
     1.0000   1.0000   1.0000   1.0000   0.0000   0.0000   0.0000   0.0000

          k = 0.0832 0.1441 0.0000 (  4065 PWs)   bands (ev):

   -20.7606  -8.7272  -6.3650  -5.6980   2.2751   3.1959   3.7384   5.6959

     occupation numbers 
     1.0000   1.0000   1.0000   1.0000   0.0000   0.0000   0.0000   0.0000

          k = 0.0832 0.2402 0.0000 (  4067 PWs)   bands (ev):

   -20.1064  -8.0891  -7.9514  -6.7103   3.1732   4.0959   4.6524   6.5171

     occupation numbers 
     1.0000   1.0000   1.0000   1.0000   0.0000   0.0000   0.0000   0.0000

          k = 0.0832 0.3362 0.0000 (  4065 PWs)   bands (ev):

   -19.1356 -10.1791  -7.6094  -6.8237   4.3768   4.5160   5.4700   6.0206

     occupation numbers 
     1.0000   1.0000   1.0000   1.0000   0.0000   0.0000   0.0000   0.0000

          k = 0.0832 0.4323 0.0000 (  4072 PWs)   bands (ev):

   -17.8667 -12.3194  -8.2533  -5.4298   2.1534   6.2823   6.8667   7.2385

     occupation numbers 
     1.0000   1.0000   1.0000   1.0000   0.0000   0.0000   0.0000   0.0000

          k = 0.0832 0.5283 0.0000 (  4077 PWs)   bands (ev):

   -16.3730 -14.2799  -8.5863  -4.1066   0.3655   6.6768   8.5103   9.4028

     occupation numbers 
     1.0000   1.0000   1.0000   1.0000   0.0000   0.0000   0.0000   0.0000

          k = 0.1664 0.2882 0.0000 (  4066 PWs)   bands (ev):

   -19.2969  -9.4275  -8.0895  -7.0046   4.2942   4.8408   5.2138   5.7951

     occupation numbers 
     1.0000   1.0000   1.0000   1.0000   0.0000   0.0000   0.0000   0.0000

          k = 0.1664 0.3843 0.0000 (  4070 PWs)   bands (ev):

   -18.1817 -11.1691  -9.1570  -5.7383   2.8712   5.8547   6.7550   7.3916

     occupation numbers 
     1.0000   1.0000   1.0000   1.0000   0.0000   0.0000   0.0000   0.0000

          k = 0.1664 0.4803 0.0000 (  4053 PWs)   bands (ev):

   -16.7954 -13.0967  -9.7378  -4.2965   0.9387   7.8309   8.5991   8.6379

     occupation numbers 
     1.0000   1.0000   1.0000   1.0000   0.0000   0.0000   0.0000   0.0000

          k = 0.1664 0.5764 0.0000 (  4052 PWs)   bands (ev):

   -15.5421 -14.5527  -9.9245  -3.3934  -0.1415   8.4954  10.0503  10.0981

     occupation numbers 
     1.0000   1.0000   1.0000   1.0000   0.0000   0.0000   0.0000   0.0000

          k = 0.2496 0.4323 0.0000 (  4056 PWs)   bands (ev):

   -16.9448 -12.2065 -10.6581  -4.3816   1.2400   7.6174   8.3439   9.2115

     occupation numbers 
     1.0000   1.0000   1.0000   1.0000   0.0000   0.0000   0.0000   0.0000

          k = 0.2496 0.5283 0.0000 (  4038 PWs)   bands (ev):

   -15.5091 -13.6424 -11.3706  -2.9805  -0.2967   9.3161   9.7340  10.7634

     occupation numbers 
     1.0000   1.0000   1.0000   1.0000   0.0000   0.0000   0.0000   0.0000

          k = 0.3328 0.5764 0.0000 (  4056 PWs)   bands (ev):

   -14.2800 -14.2800 -12.2860  -1.6097  -1.6097   9.0605  11.3697  11.3697

     occupation numbers 
     1.0000   1.0000   1.0000   0.5000   0.5000   0.0000   0.0000   0.0000

     the Fermi energy is    -1.5908 ev

!    total energy              =     -24.08900470 Ry
     estimated scf accuracy    <          2.3E-09 Ry
     smearing contrib. (-TS)   =      -0.00009116 Ry
     internal energy E=F+TS    =     -24.08891354 Ry

     The total energy is F=E-TS. E is the sum of the following terms:
     one-electron contribution =    -153.60275005 Ry
     hartree contribution      =      78.32344404 Ry
     xc contribution           =      -8.59313454 Ry
     ewald contribution        =      59.78352701 Ry

     convergence has been achieved in   6 iterations

     Forces acting on atoms (cartesian axes, Ry/au):

     atom    1 type  1   force =     0.00000000    0.00000000    0.00000000
     atom    2 type  1   force =    -0.00000000   -0.00000000   -0.00000000
     The non-local contrib.  to forces
     atom    1 type  1   force =    -0.00000000    0.00000000    0.00000000
     atom    2 type  1   force =     0.00000000   -0.00000000   -0.00000000
     The ionic contribution  to forces
     atom    1 type  1   force =    -0.00000001    0.00000000   -0.00000000
     atom    2 type  1   force =     0.00000001   -0.00000000   -0.00000000
     The local contribution  to forces
     atom    1 type  1   force =    -0.00000000   -0.00000000    0.00000000
     atom    2 type  1   force =     0.00000001   -0.00000000    0.00000000
     The core correction contribution to forces
     atom    1 type  1   force =     0.00000000   -0.00000000   -0.00000000
     atom    2 type  1   force =    -0.00000000    0.00000000    0.00000000
     The Hubbard contrib.    to forces
     atom    1 type  1   force =     0.00000000    0.00000000    0.00000000
     atom    2 type  1   force =     0.00000000    0.00000000    0.00000000
     The SCF correction term to forces
     atom    1 type  1   force =    -0.00000000    0.00000000   -0.00000000
     atom    2 type  1   force =    -0.00000000    0.00000000    0.00000000

     Total force =     0.000000     Total SCF correction =     0.000000


     Computing stress (Cartesian axis) and pressure

          total   stress  (Ry/bohr**3)                   (kbar)     P=       -2.84
   0.00000646   0.00000000  -0.00000000            0.95        0.00       -0.00
   0.00000000   0.00000646   0.00000000            0.00        0.95        0.00
  -0.00000000   0.00000000  -0.00007091           -0.00        0.00      -10.43

     kinetic stress (kbar)   3083.79     -0.00     -0.00
                               -0.00   3083.79     -0.00
                               -0.00      0.00   3399.71

     local   stress (kbar) -46749.93      0.00     -0.00
                                0.00 -46749.93     -0.00
                               -0.00     -0.00  47688.24

     nonloc. stress (kbar)   -318.92     -0.00      0.00
                               -0.00   -318.92      0.00
                                0.00      0.00   -267.62

     hartree stress (kbar)  22046.32     -0.00      0.00
                               -0.00  22046.32      0.00
                                0.00      0.00 -21812.16

     exc-cor stress (kbar)   -245.08     -0.00     -0.00
                               -0.00   -245.08     -0.00
                               -0.00     -0.00   -274.32

     corecor stress (kbar)   -464.14      0.00     -0.00
                                0.00   -464.14      0.00
                                0.00      0.00   -452.94

     ewald   stress (kbar)  22648.91     -0.00     -0.00
                               -0.00  22648.91     -0.00
                               -0.00     -0.00 -28291.34

     hubbard stress (kbar)      0.00      0.00      0.00
                                0.00      0.00      0.00
                                0.00      0.00      0.00

     DFT-D   stress (kbar)      0.00      0.00      0.00
                                0.00      0.00      0.00
                                0.00      0.00      0.00

     XDM     stress (kbar)      0.00      0.00      0.00
                                0.00      0.00      0.00
                                0.00      0.00      0.00

     dft-nl  stress (kbar)      0.00      0.00      0.00
                                0.00      0.00      0.00
                                0.00      0.00      0.00

     TS-vdW  stress (kbar)      0.00      0.00      0.00
                                0.00      0.00      0.00
                                0.00      0.00      0.00


     Energy error            =      8.5E-05
     Gradient error          =      7.9E-26
     Cell gradient error     =      7.1E-05


     number of scf cycles    =   3
     number of bfgs steps    =   2

     enthalpy old            =     -24.0889194051 Ry
     enthalpy new            =     -24.0890046991 Ry

     CASE: enthalpy_new < enthalpy_old

     new trust radius        =       0.0139950746 bohr
     new conv_thr            =       0.0000000100 Ry

     new unit-cell volume =    516.28269 a.u.^3 (    76.50520 Ang^3 )
     density =      0.52140 g/cm^3

CELL_PARAMETERS (alat=  4.63500000)
   1.002411919  -0.000000000  -0.000000000
  -0.501205959   0.868114187   0.000000000
   0.000000000  -0.000000000   5.958202640

ATOMIC_POSITIONS (crystal)
C            -0.0000000000       -0.0000000000       -0.0000000000
C             0.3333333330        0.6666666670        0.0000000000



     Writing output data file ./tmp/graphene.save/
     NEW-OLD atomic charge density approx. for the potential

     negative rho (up, down):  3.330E-07 0.000E+00
     extrapolated charge    7.98696, renormalised to    8.00000

     total cpu time spent up to now is       44.9 secs

     Self-consistent Calculation

     iteration #  1     ecut=    60.00 Ry     beta= 0.70
     Davidson diagonalization with overlap
     ethr =  1.00E-06,  avg # of iterations =  5.6

     total cpu time spent up to now is       47.7 secs

     total energy              =     -24.08905361 Ry
     estimated scf accuracy    <       0.00002348 Ry

     iteration #  2     ecut=    60.00 Ry     beta= 0.70
     Davidson diagonalization with overlap
     ethr =  2.93E-07,  avg # of iterations =  5.9

     total cpu time spent up to now is       50.6 secs

     total energy              =     -24.08911991 Ry
     estimated scf accuracy    <       0.00003585 Ry

     iteration #  3     ecut=    60.00 Ry     beta= 0.70
     Davidson diagonalization with overlap
     ethr =  2.93E-07,  avg # of iterations =  1.0

     total cpu time spent up to now is       52.2 secs

     total energy              =     -24.08911408 Ry
     estimated scf accuracy    <       0.00001048 Ry

     iteration #  4     ecut=    60.00 Ry     beta= 0.70
     Davidson diagonalization with overlap
     ethr =  1.31E-07,  avg # of iterations =  2.5

     total cpu time spent up to now is       54.1 secs

     total energy              =     -24.08911625 Ry
     estimated scf accuracy    <       0.00000008 Ry

     iteration #  5     ecut=    60.00 Ry     beta= 0.70
     Davidson diagonalization with overlap
     ethr =  9.39E-10,  avg # of iterations =  1.9

     total cpu time spent up to now is       55.7 secs

     total energy              =     -24.08911626 Ry
     estimated scf accuracy    <       0.00000004 Ry

     iteration #  6     ecut=    60.00 Ry     beta= 0.70
     Davidson diagonalization with overlap
     ethr =  4.43E-10,  avg # of iterations =  1.0

     total cpu time spent up to now is       57.3 secs

     total energy              =     -24.08911624 Ry
     estimated scf accuracy    <       0.00000003 Ry

     iteration #  7     ecut=    60.00 Ry     beta= 0.70
     Davidson diagonalization with overlap
     ethr =  3.22E-10,  avg # of iterations =  2.0

     total cpu time spent up to now is       59.2 secs

     total energy              =     -24.08911625 Ry
     estimated scf accuracy    <       0.00000001 Ry

     iteration #  8     ecut=    60.00 Ry     beta= 0.70
     Davidson diagonalization with overlap
     ethr =  1.29E-10,  avg # of iterations =  2.0

     total cpu time spent up to now is       61.2 secs

     End of self-consistent calculation

          k = 0.0000 0.0000 0.0000 (  4053 PWs)   bands (ev):

   -21.2371  -9.3053  -4.6667  -4.6667   1.6072   2.5255   3.0648   5.0491

     occupation numbers 
     1.0000   1.0000   1.0000   1.0000   0.0000   0.0000   0.0000   0.0000

          k = 0.0000 0.0960 0.0000 (  4064 PWs)   bands (ev):

   -21.0724  -9.1073  -5.3229  -5.0101   1.8315   2.7515   3.2928   5.2733

     occupation numbers 
     1.0000   1.0000   1.0000   1.0000   0.0000   0.0000   0.0000   0.0000

          k = 0.0000 0.1920 0.0000 (  4070 PWs)   bands (ev):

   -20.5800  -8.5193  -6.9736  -5.8143   2.5042   3.4279   3.9771   5.9425

     occupation numbers 
     1.0000   1.0000   1.0000   1.0000   0.0000   0.0000   0.0000   0.0000

          k = 0.0000 0.2880 0.0000 (  4058 PWs)   bands (ev):

   -19.7655  -9.0867  -7.5602  -6.7065   3.6235   4.5352   5.1161   5.7185

     occupation numbers 
     1.0000   1.0000   1.0000   1.0000   0.0000   0.0000   0.0000   0.0000

          k = 0.0000 0.3840 0.0000 (  4084 PWs)   bands (ev):

   -18.6413 -11.3054  -7.4505  -6.2818   3.3445   5.1788   6.1495   6.2419

     occupation numbers 
     1.0000   1.0000   1.0000   1.0000   0.0000   0.0000   0.0000   0.0000

          k = 0.0000 0.4800 0.0000 (  4070 PWs)   bands (ev):

   -17.2370 -13.4201  -7.9298  -4.8464   1.1909   5.9910   7.2002   8.1439

     occupation numbers 
     1.0000   1.0000   1.0000   1.0000   0.0000   0.0000   0.0000   0.0000

          k =-0.0000-0.5760-0.0000 (  4104 PWs)   bands (ev):

   -15.9575 -14.9452  -8.0952  -3.9954   0.0836   5.9126   9.5217   9.6657

     occupation numbers 
     1.0000   1.0000   1.0000   1.0000   0.0000   0.0000   0.0000   0.0000

          k = 0.0831 0.1440 0.0000 (  4065 PWs)   bands (ev):

   -20.7439  -8.7140  -6.3647  -5.6967   2.2802   3.2029   3.7491   5.7207

     occupation numbers 
     1.0000   1.0000   1.0000   1.0000   0.0000   0.0000   0.0000   0.0000

          k = 0.0831 0.2400 0.0000 (  4067 PWs)   bands (ev):

   -20.0905  -8.0870  -7.9396  -6.7070   3.1770   4.1014   4.6617   6.5143

     occupation numbers 
     1.0000   1.0000   1.0000   1.0000   0.0000   0.0000   0.0000   0.0000

          k = 0.0831 0.3360 0.0000 (  4065 PWs)   bands (ev):

   -19.1209 -10.1745  -7.6046  -6.8140   4.3646   4.5179   5.4730   6.0276

     occupation numbers 
     1.0000   1.0000   1.0000   1.0000   0.0000   0.0000   0.0000   0.0000

          k = 0.0831 0.4320 0.0000 (  4072 PWs)   bands (ev):

   -17.8538 -12.3120  -8.2474  -5.4229   2.1464   6.2810   6.8450   7.2388

     occupation numbers 
     1.0000   1.0000   1.0000   1.0000   0.0000   0.0000   0.0000   0.0000

          k = 0.0831 0.5280 0.0000 (  4077 PWs)   bands (ev):

   -16.3631 -14.2689  -8.5798  -4.1025   0.3627   6.6541   8.5061   9.3990

     occupation numbers 
     1.0000   1.0000   1.0000   1.0000   0.0000   0.0000   0.0000   0.0000

          k = 0.1663 0.2880 0.0000 (  4066 PWs)   bands (ev):

   -19.2820  -9.4248  -8.0834  -6.9946   4.2964   4.8268   5.2175   5.8026

     occupation numbers 
     1.0000   1.0000   1.0000   1.0000   0.0000   0.0000   0.0000   0.0000

          k = 0.1663 0.3840 0.0000 (  4070 PWs)   bands (ev):

   -18.1684 -11.1642  -9.1494  -5.7307   2.8617   5.8546   6.7560   7.3965

     occupation numbers 
     1.0000   1.0000   1.0000   1.0000   0.0000   0.0000   0.0000   0.0000

          k = 0.1663 0.4800 0.0000 (  4053 PWs)   bands (ev):

   -16.7842 -13.0886  -9.7297  -4.2918   0.9337   7.8276   8.5751   8.6351

     occupation numbers 
     1.0000   1.0000   1.0000   1.0000   0.0000   0.0000   0.0000   0.0000

          k = 0.1663 0.5760 0.0000 (  4052 PWs)   bands (ev):

   -15.5349 -14.5402  -9.9163  -3.3908  -0.1439   8.4708  10.0427  10.0911

     occupation numbers 
     1.0000   1.0000   1.0000   1.0000   0.0000   0.0000   0.0000   0.0000

          k = 0.2494 0.4320 0.0000 (  4056 PWs)   bands (ev):

   -16.9333 -12.2016 -10.6470  -4.3767   1.2338   7.6146   8.3415   9.2133

     occupation numbers 
     1.0000   1.0000   1.0000   1.0000   0.0000   0.0000   0.0000   0.0000

          k = 0.2494 0.5280 0.0000 (  4038 PWs)   bands (ev):

   -15.5003 -13.6346 -11.3589  -2.9785  -0.2998   9.3111   9.7276  10.7380

     occupation numbers 
     1.0000   1.0000   1.0000   1.0000   0.0000   0.0000   0.0000   0.0000

          k = 0.3325 0.5760 0.0000 (  4056 PWs)   bands (ev):

   -14.2737 -14.2737 -12.2700  -1.6104  -1.6104   9.0566  11.3546  11.3546

     occupation numbers 
     1.0000   1.0000   1.0000   0.5000   0.5000   0.0000   0.0000   0.0000

     the Fermi energy is    -1.5915 ev

!    total energy              =     -24.08911625 Ry
     estimated scf accuracy    <          3.3E-10 Ry
     smearing contrib. (-TS)   =      -0.00009116 Ry
     internal energy E=F+TS    =     -24.08902509 Ry

     The total energy is F=E-TS. E is the sum of the following terms:
     one-electron contribution =    -152.76745705 Ry
     hartree contribution      =      77.90592104 Ry
     xc contribution           =      -8.58980936 Ry
     ewald contribution        =      59.36232029 Ry

     convergence has been achieved in   8 iterations

     Forces acting on atoms (cartesian axes, Ry/au):

     atom    1 type  1   force =    -0.00000000   -0.00000000   -0.00000000
     atom    2 type  1   force =     0.00000000    0.00000000    0.00000000
     The non-local contrib.  to forces
     atom    1 type  1   force =    -0.00000000   -0.00000000   -0.00000000
     atom    2 type  1   force =    -0.00000000    0.00000000    0.00000000
     The ionic contribution  to forces
     atom    1 type  1   force =    -0.00000001    0.00000000    0.00000000
     atom    2 type  1   force =     0.00000001   -0.00000000   -0.00000000
     The local contribution  to forces
     atom    1 type  1   force =    -0.00000000   -0.00000000    0.00000000
     atom    2 type  1   force =     0.00000001   -0.00000000    0.00000000
     The core correction contribution to forces
     atom    1 type  1   force =     0.00000000   -0.00000000    0.00000000
     atom    2 type  1   force =    -0.00000000    0.00000000    0.00000000
     The Hubbard contrib.    to forces
     atom    1 type  1   force =     0.00000000    0.00000000    0.00000000
     atom    2 type  1   force =     0.00000000    0.00000000    0.00000000
     The SCF correction term to forces
     atom    1 type  1   force =     0.00000000    0.00000000    0.00000000
     atom    2 type  1   force =    -0.00000000    0.00000000    0.00000000

     Total force =     0.000000     Total SCF correction =     0.000000


     Computing stress (Cartesian axis) and pressure

          total   stress  (Ry/bohr**3)                   (kbar)     P=       -4.18
  -0.00000794  -0.00000000   0.00000000           -1.17       -0.00        0.00
  -0.00000000  -0.00000794  -0.00000000           -0.00       -1.17       -0.00
   0.00000000  -0.00000000  -0.00006946            0.00       -0.00      -10.22

     kinetic stress (kbar)   3086.06      0.00     -0.00
                                0.00   3086.06      0.00
                               -0.00      0.00   3403.74

     local   stress (kbar) -46583.14      0.00      0.00
                                0.00 -46583.14      0.00
                                0.00      0.00  47519.00

     nonloc. stress (kbar)   -318.71     -0.00      0.00
                               -0.00   -318.71     -0.00
                                0.00     -0.00   -267.52

     hartree stress (kbar)  21962.96      0.00     -0.00
                                0.00  21962.96     -0.00
                               -0.00     -0.00 -21728.10

     exc-cor stress (kbar)   -245.23     -0.00     -0.00
                               -0.00   -245.23      0.00
                               -0.00      0.00   -274.49

     corecor stress (kbar)   -464.80      0.00     -0.00
                                0.00   -464.80      0.00
                               -0.00      0.00   -453.63

     ewald   stress (kbar)  22561.70     -0.00     -0.00
                               -0.00  22561.70     -0.00
                               -0.00     -0.00 -28209.22

     hubbard stress (kbar)      0.00      0.00      0.00
                                0.00      0.00      0.00
                                0.00      0.00      0.00

     DFT-D   stress (kbar)      0.00      0.00      0.00
                                0.00      0.00      0.00
                                0.00      0.00      0.00

     XDM     stress (kbar)      0.00      0.00      0.00
                                0.00      0.00      0.00
                                0.00      0.00      0.00

     dft-nl  stress (kbar)      0.00      0.00      0.00
                                0.00      0.00      0.00
                                0.00      0.00      0.00

     TS-vdW  stress (kbar)      0.00      0.00      0.00
                                0.00      0.00      0.00
                                0.00      0.00      0.00


     Energy error            =      1.1E-04
     Gradient error          =      7.9E-26
     Cell gradient error     =      6.9E-05


     number of scf cycles    =   4
     number of bfgs steps    =   3

     enthalpy old            =     -24.0890046991 Ry
     enthalpy new            =     -24.0891162474 Ry

     CASE: enthalpy_new < enthalpy_old

     new trust radius        =       0.0210402690 bohr
     new conv_thr            =       0.0000000100 Ry

     new unit-cell volume =    514.73881 a.u.^3 (    76.27642 Ang^3 )
     density =      0.52296 g/cm^3

CELL_PARAMETERS (alat=  4.63500000)
   1.003237178  -0.000000000   0.000000000
  -0.501618589   0.868828882  -0.000000000
   0.000000000  -0.000000000   5.930616383

ATOMIC_POSITIONS (crystal)
C            -0.0000000000       -0.0000000000        0.0000000000
C             0.3333333330        0.6666666670        0.0000000000



     Writing output data file ./tmp/graphene.save/
     NEW-OLD atomic charge density approx. for the potential

     negative rho (up, down):  7.639E-07 0.000E+00
     extrapolated charge    7.97601, renormalised to    8.00000

     total cpu time spent up to now is       66.5 secs

     Self-consistent Calculation

     iteration #  1     ecut=    60.00 Ry     beta= 0.70
     Davidson diagonalization with overlap
     c_bands:  1 eigenvalues not converged
     ethr =  1.00E-06,  avg # of iterations =  7.8

     negative rho (up, down):  3.695E-08 0.000E+00

     total cpu time spent up to now is       69.4 secs

     total energy              =     -24.08905046 Ry
     estimated scf accuracy    <       0.00008584 Ry

     iteration #  2     ecut=    60.00 Ry     beta= 0.70
     Davidson diagonalization with overlap
     ethr =  1.07E-06,  avg # of iterations =  7.8

     total cpu time spent up to now is       72.8 secs

     total energy              =     -24.08927729 Ry
     estimated scf accuracy    <       0.00012050 Ry

     iteration #  3     ecut=    60.00 Ry     beta= 0.70
     Davidson diagonalization with overlap
     ethr =  1.07E-06,  avg # of iterations =  1.0

     total cpu time spent up to now is       74.3 secs

     total energy              =     -24.08925950 Ry
     estimated scf accuracy    <       0.00003337 Ry

     iteration #  4     ecut=    60.00 Ry     beta= 0.70
     Davidson diagonalization with overlap
     ethr =  4.17E-07,  avg # of iterations =  2.4

     total cpu time spent up to now is       76.2 secs

     total energy              =     -24.08926614 Ry
     estimated scf accuracy    <       0.00000014 Ry

     iteration #  5     ecut=    60.00 Ry     beta= 0.70
     Davidson diagonalization with overlap
     ethr =  1.72E-09,  avg # of iterations =  2.1

     total cpu time spent up to now is       78.1 secs

     total energy              =     -24.08926617 Ry
     estimated scf accuracy    <       0.00000006 Ry

     iteration #  6     ecut=    60.00 Ry     beta= 0.70
     Davidson diagonalization with overlap
     ethr =  7.05E-10,  avg # of iterations =  1.0

     total cpu time spent up to now is       79.6 secs

     total energy              =     -24.08926616 Ry
     estimated scf accuracy    <       0.00000003 Ry

     iteration #  7     ecut=    60.00 Ry     beta= 0.70
     Davidson diagonalization with overlap
     ethr =  4.20E-10,  avg # of iterations =  2.0

     total cpu time spent up to now is       81.6 secs

     total energy              =     -24.08926616 Ry
     estimated scf accuracy    <       0.00000002 Ry

     iteration #  8     ecut=    60.00 Ry     beta= 0.70
     Davidson diagonalization with overlap
     ethr =  2.89E-10,  avg # of iterations =  2.0

     total cpu time spent up to now is       83.3 secs

     End of self-consistent calculation

          k = 0.0000 0.0000 0.0000 (  4053 PWs)   bands (ev):

   -21.2143  -9.2862  -4.6648  -4.6648   1.6168   2.5382   3.0835   5.0894

     occupation numbers 
     1.0000   1.0000   1.0000   1.0000   0.0000   0.0000   0.0000   0.0000

          k = 0.0000 0.0959 0.0000 (  4064 PWs)   bands (ev):

   -21.0499  -9.0886  -5.3204  -5.0073   1.8407   2.7639   3.3111   5.3132

     occupation numbers 
     1.0000   1.0000   1.0000   1.0000   0.0000   0.0000   0.0000   0.0000

          k = 0.0000 0.1918 0.0000 (  4070 PWs)   bands (ev):

   -20.5582  -8.5018  -6.9694  -5.8095   2.5124   3.4390   3.9941   5.9808

     occupation numbers 
     1.0000   1.0000   1.0000   1.0000   0.0000   0.0000   0.0000   0.0000

          k = 0.0000 0.2877 0.0000 (  4058 PWs)   bands (ev):

   -19.7449  -9.0797  -7.5447  -6.6998   3.6298   4.5438   5.1310   5.7046

     occupation numbers 
     1.0000   1.0000   1.0000   1.0000   0.0000   0.0000   0.0000   0.0000

          k = 0.0000 0.3837 0.0000 (  4084 PWs)   bands (ev):

   -18.6225 -11.2954  -7.4421  -6.2690   3.3365   5.1825   6.1555   6.2221

     occupation numbers 
     1.0000   1.0000   1.0000   1.0000   0.0000   0.0000   0.0000   0.0000

          k = 0.0000 0.4796 0.0000 (  4070 PWs)   bands (ev):

   -17.2207 -13.4066  -7.9204  -4.8370   1.1887   5.9695   7.2003   8.1460

     occupation numbers 
     1.0000   1.0000   1.0000   1.0000   0.0000   0.0000   0.0000   0.0000

          k =-0.0000-0.5755-0.0000 (  4104 PWs)   bands (ev):

   -15.9460 -14.9265  -8.0854  -3.9883   0.0846   5.8906   9.5180   9.6621

     occupation numbers 
     1.0000   1.0000   1.0000   1.0000   0.0000   0.0000   0.0000   0.0000

          k = 0.0831 0.1439 0.0000 (  4065 PWs)   bands (ev):

   -20.7219  -8.6961  -6.3613  -5.6922   2.2887   3.2145   3.7666   5.7596

     occupation numbers 
     1.0000   1.0000   1.0000   1.0000   0.0000   0.0000   0.0000   0.0000

          k = 0.0831 0.2398 0.0000 (  4067 PWs)   bands (ev):

   -20.0694  -8.0817  -7.9234  -6.7003   3.1841   4.1113   4.6774   6.5097

     occupation numbers 
     1.0000   1.0000   1.0000   1.0000   0.0000   0.0000   0.0000   0.0000

          k = 0.0831 0.3357 0.0000 (  4065 PWs)   bands (ev):

   -19.1013 -10.1663  -7.5961  -6.8001   4.3538   4.5227   5.4799   6.0407

     occupation numbers 
     1.0000   1.0000   1.0000   1.0000   0.0000   0.0000   0.0000   0.0000

          k = 0.0831 0.4316 0.0000 (  4072 PWs)   bands (ev):

   -17.8363 -12.3005  -8.2378  -5.4121   2.1412   6.2823   6.8236   7.2426

     occupation numbers 
     1.0000   1.0000   1.0000   1.0000   0.0000   0.0000   0.0000   0.0000

          k = 0.0831 0.5275 0.0000 (  4077 PWs)   bands (ev):

   -16.3489 -14.2535  -8.5695  -4.0950   0.3625   6.6314   8.5043   9.3979

     occupation numbers 
     1.0000   1.0000   1.0000   1.0000   0.0000   0.0000   0.0000   0.0000

          k = 0.1661 0.2877 0.0000 (  4066 PWs)   bands (ev):

   -19.2622  -9.4187  -8.0735  -6.9803   4.3016   4.8138   5.2253   5.8163

     occupation numbers 
     1.0000   1.0000   1.0000   1.0000   0.0000   0.0000   0.0000   0.0000

          k = 0.1661 0.3837 0.0000 (  4070 PWs)   bands (ev):

   -18.1503 -11.1555  -9.1378  -5.7191   2.8539   5.8573   6.7606   7.4071

     occupation numbers 
     1.0000   1.0000   1.0000   1.0000   0.0000   0.0000   0.0000   0.0000

          k = 0.1661 0.4796 0.0000 (  4053 PWs)   bands (ev):

   -16.7685 -13.0764  -9.7175  -4.2836   0.9309   7.8267   8.5510   8.6352

     occupation numbers 
     1.0000   1.0000   1.0000   1.0000   0.0000   0.0000   0.0000   0.0000

          k = 0.1661 0.5755 0.0000 (  4052 PWs)   bands (ev):

   -15.5238 -14.5231  -9.9039  -3.3850  -0.1437   8.4460  10.0373  10.0860

     occupation numbers 
     1.0000   1.0000   1.0000   1.0000   0.0000   0.0000   0.0000   0.0000

          k = 0.2492 0.4316 0.0000 (  4056 PWs)   bands (ev):

   -16.9172 -12.1931 -10.6314  -4.3682   1.2296   7.6143   8.3419   9.2205

     occupation numbers 
     1.0000   1.0000   1.0000   1.0000   0.0000   0.0000   0.0000   0.0000

          k = 0.2492 0.5275 0.0000 (  4038 PWs)   bands (ev):

   -15.4873 -13.6228 -11.3426  -2.9733  -0.3003   9.3084   9.7231  10.7122

     occupation numbers 
     1.0000   1.0000   1.0000   1.0000   0.0000   0.0000   0.0000   0.0000

          k = 0.3323 0.5755 0.0000 (  4056 PWs)   bands (ev):

   -14.2635 -14.2635 -12.2489  -1.6083  -1.6083   9.0553  11.3403  11.3403

     occupation numbers 
     1.0000   1.0000   1.0000   0.5000   0.5000   0.0000   0.0000   0.0000

     the Fermi energy is    -1.5893 ev

!    total energy              =     -24.08926616 Ry
     estimated scf accuracy    <          1.5E-11 Ry
     smearing contrib. (-TS)   =      -0.00009116 Ry
     internal energy E=F+TS    =     -24.08917500 Ry

     The total energy is F=E-TS. E is the sum of the following terms:
     one-electron contribution =    -151.60172911 Ry
     hartree contribution      =      77.32413931 Ry
     xc contribution           =      -8.58607207 Ry
     ewald contribution        =      58.77448687 Ry

     convergence has been achieved in   8 iterations

     Forces acting on atoms (cartesian axes, Ry/au):

     atom    1 type  1   force =    -0.00000000    0.00000000    0.00000000
     atom    2 type  1   force =     0.00000000    0.00000000   -0.00000000
     The non-local contrib.  to forces
     atom    1 type  1   force =    -0.00000000   -0.00000000   -0.00000000
     atom    2 type  1   force =    -0.00000000   -0.00000000   -0.00000000
     The ionic contribution  to forces
     atom    1 type  1   force =    -0.00000001    0.00000000   -0.00000000
     atom    2 type  1   force =     0.00000001   -0.00000000    0.00000000
     The local contribution  to forces
     atom    1 type  1   force =    -0.00000000   -0.00000000    0.00000000
     atom    2 type  1   force =     0.00000001   -0.00000000    0.00000000
     The core correction contribution to forces
     atom    1 type  1   force =     0.00000000   -0.00000000    0.00000000
     atom    2 type  1   force =    -0.00000000    0.00000000   -0.00000000
     The Hubbard contrib.    to forces
     atom    1 type  1   force =     0.00000000    0.00000000    0.00000000
     atom    2 type  1   force =     0.00000000    0.00000000    0.00000000
     The SCF correction term to forces
     atom    1 type  1   force =     0.00000000   -0.00000000   -0.00000000
     atom    2 type  1   force =    -0.00000000    0.00000000   -0.00000000

     Total force =     0.000000     Total SCF correction =     0.000000


     Computing stress (Cartesian axis) and pressure

          total   stress  (Ry/bohr**3)                   (kbar)     P=       -5.66
  -0.00002411  -0.00000000  -0.00000000           -3.55       -0.00       -0.00
  -0.00000000  -0.00002411   0.00000000           -0.00       -3.55        0.00
  -0.00000000   0.00000000  -0.00006712           -0.00        0.00       -9.87

     kinetic stress (kbar)   3092.21      0.00     -0.00
                                0.00   3092.21     -0.00
                               -0.00     -0.00   3412.31

     local   stress (kbar) -46384.05      0.00     -0.00
                                0.00 -46384.05     -0.00
                               -0.00     -0.00  47318.22

     nonloc. stress (kbar)   -318.85     -0.00      0.00
                               -0.00   -318.85     -0.00
                                0.00     -0.00   -267.68

     hartree stress (kbar)  21862.20      0.00      0.00
                                0.00  21862.20      0.00
                                0.00      0.00 -21626.26

     exc-cor stress (kbar)   -245.68     -0.00      0.00
                               -0.00   -245.68      0.00
                                0.00      0.00   -275.01

     corecor stress (kbar)   -466.10      0.00     -0.00
                                0.00   -466.10     -0.00
                               -0.00     -0.00   -454.93

[...]
     C2       2
          180 deg rotation - cart. axis [0,0,1]                  
     3C2'     4   12   11
          180 deg rotation - cart. axis [1,0,0]                  
     3C2''    3    9   10
          180 deg rotation - cart. axis [0,1,0]                  
     i       13
          inversion                                              
     2S3     17   18
          inv.  60 deg rotation - cryst. axis [0,0,1]            
     2S6     19   20
          inv. 120 deg rotation - cryst. axis [0,0,1]            
     s_h     14
          inv. 180 deg rotation - cart. axis [0,0,1]             
     3s_d    16   24   23
          inv. 180 deg rotation - cart. axis [1,0,0]             
     3s_v    15   21   22
          inv. 180 deg rotation - cart. axis [0,1,0]             

   Cartesian axes

     site n.     atom                  positions (alat units)
         1           C   tau(   1) = (  -0.0000000  -0.0000000  -0.0000000  )
         2           C   tau(   2) = (  -0.0000000   0.5793808  -0.0000000  )

   Crystallographic axes

     site n.     atom                  positions (cryst. coord.)
         1           C   tau(   1) = ( -0.0000000 -0.0000000  0.0000000  )
         2           C   tau(   2) = (  0.3333333  0.6666667  0.0000000  )

     number of k points=    19  Marzari-Vanderbilt smearing, width (Ry)=  0.0100
                       cart. coord. in units 2pi/alat
        k(    1) = (   0.0000000   0.0000000   0.0000000), wk =   0.0138889
        k(    2) = (   0.0000000   0.0958878   0.0000000), wk =   0.0833333
        k(    3) = (   0.0000000   0.1917756   0.0000000), wk =   0.0833333
        k(    4) = (   0.0000000   0.2876634   0.0000000), wk =   0.0833333
        k(    5) = (   0.0000000   0.3835512   0.0000000), wk =   0.0833333
        k(    6) = (   0.0000000   0.4794391   0.0000000), wk =   0.0833333
        k(    7) = (  -0.0000000  -0.5753269  -0.0000000), wk =   0.0416667
        k(    8) = (   0.0830413   0.1438317   0.0000000), wk =   0.0833333
        k(    9) = (   0.0830413   0.2397195   0.0000000), wk =   0.1666667
        k(   10) = (   0.0830413   0.3356073   0.0000000), wk =   0.1666667
        k(   11) = (   0.0830413   0.4314952   0.0000000), wk =   0.1666667
        k(   12) = (   0.0830413   0.5273830   0.0000000), wk =   0.1666667
        k(   13) = (   0.1660826   0.2876634   0.0000000), wk =   0.0833333
        k(   14) = (   0.1660826   0.3835512   0.0000000), wk =   0.1666667
        k(   15) = (   0.1660826   0.4794391   0.0000000), wk =   0.1666667
        k(   16) = (   0.1660826   0.5753269   0.0000000), wk =   0.0833333
        k(   17) = (   0.2491238   0.4314952   0.0000000), wk =   0.0833333
        k(   18) = (   0.2491238   0.5273830   0.0000000), wk =   0.1666667
        k(   19) = (   0.3321651   0.5753269   0.0000000), wk =   0.0277778

                       cryst. coord.
        k(    1) = (   0.0000000   0.0000000   0.0000000), wk =   0.0138889
        k(    2) = (   0.0000000   0.0833333   0.0000000), wk =   0.0833333
        k(    3) = (   0.0000000   0.1666667   0.0000000), wk =   0.0833333
        k(    4) = (   0.0000000   0.2500000  -0.0000000), wk =   0.0833333
        k(    5) = (   0.0000000   0.3333333   0.0000000), wk =   0.0833333
        k(    6) = (  -0.0000000   0.4166667   0.0000000), wk =   0.0833333
        k(    7) = (  -0.0000000  -0.5000000   0.0000000), wk =   0.0416667
        k(    8) = (   0.0833333   0.0833333  -0.0000000), wk =   0.0833333
        k(    9) = (   0.0833333   0.1666667   0.0000000), wk =   0.1666667
        k(   10) = (   0.0833333   0.2500000   0.0000000), wk =   0.1666667
        k(   11) = (   0.0833333   0.3333333  -0.0000000), wk =   0.1666667
        k(   12) = (   0.0833333   0.4166667  -0.0000000), wk =   0.1666667
        k(   13) = (   0.1666667   0.1666667  -0.0000000), wk =   0.0833333
        k(   14) = (   0.1666667   0.2500000  -0.0000000), wk =   0.1666667
        k(   15) = (   0.1666667   0.3333333   0.0000000), wk =   0.1666667
        k(   16) = (   0.1666667   0.4166667   0.0000000), wk =   0.0833333
        k(   17) = (   0.2500000   0.2500000  -0.0000000), wk =   0.0833333
        k(   18) = (   0.2500000   0.3333333   0.0000000), wk =   0.1666667
        k(   19) = (   0.3333333   0.3333333  -0.0000000), wk =   0.0277778

     Dense  grid:    18003 G-vectors     FFT dimensions: (  24,  24,  75)

     Dynamical RAM for                 wfc:       0.27 MB

     Dynamical RAM for     wfc (w. buffer):       5.47 MB

     Dynamical RAM for           str. fact:       0.27 MB

     Dynamical RAM for           local pot:       0.25 MB

     Dynamical RAM for          nlocal pot:       0.55 MB

     Dynamical RAM for                qrad:       0.71 MB

     Dynamical RAM for          rho,v,vnew:       1.81 MB

     Dynamical RAM for               rhoin:       0.60 MB

     Dynamical RAM for            rho*nmix:       4.40 MB

     Dynamical RAM for           G-vectors:       1.17 MB

     Dynamical RAM for          h,s,v(r/c):       0.01 MB

     Dynamical RAM for          <psi|beta>:       0.00 MB

     Dynamical RAM for                 psi:       0.55 MB

     Dynamical RAM for                hpsi:       0.55 MB

     Dynamical RAM for      wfcinit/wfcrot:       0.55 MB

     Estimated static dynamical RAM per process >      17.43 MB

     Estimated max dynamical RAM per process >      18.54 MB

     Initial potential from superposition of free atoms

     starting charge    7.99991, renormalised to    8.00000
     Starting wfcs are    8 randomized atomic wfcs

     total cpu time spent up to now is      424.1 secs

     Self-consistent Calculation

     iteration #  1     ecut=    60.00 Ry     beta= 0.70
     Davidson diagonalization with overlap
     c_bands:  1 eigenvalues not converged
     c_bands:  1 eigenvalues not converged
     c_bands:  1 eigenvalues not converged
     c_bands:  1 eigenvalues not converged
     c_bands:  3 eigenvalues not converged
     c_bands:  1 eigenvalues not converged
     c_bands:  1 eigenvalues not converged
     c_bands:  1 eigenvalues not converged
     c_bands:  2 eigenvalues not converged
     c_bands:  1 eigenvalues not converged
     c_bands:  2 eigenvalues not converged
     c_bands:  2 eigenvalues not converged
     ethr =  1.00E-06,  avg # of iterations = 19.2

     total cpu time spent up to now is      430.3 secs

     total energy              =     -24.05723633 Ry
     estimated scf accuracy    <       0.20210408 Ry

     iteration #  2     ecut=    60.00 Ry     beta= 0.70
     Davidson diagonalization with overlap
     ethr =  2.53E-03,  avg # of iterations =  2.3

     total cpu time spent up to now is      431.2 secs

     total energy              =     -24.08853475 Ry
     estimated scf accuracy    <       0.00241819 Ry

     iteration #  3     ecut=    60.00 Ry     beta= 0.70
     Davidson diagonalization with overlap
     ethr =  3.02E-05,  avg # of iterations =  5.1

     total cpu time spent up to now is      432.6 secs

     total energy              =     -24.08897183 Ry
     estimated scf accuracy    <       0.00018118 Ry

     iteration #  4     ecut=    60.00 Ry     beta= 0.70
     Davidson diagonalization with overlap
     ethr =  2.26E-06,  avg # of iterations =  3.5

     total cpu time spent up to now is      433.7 secs

     total energy              =     -24.08898766 Ry
     estimated scf accuracy    <       0.00000166 Ry

     iteration #  5     ecut=    60.00 Ry     beta= 0.70
     Davidson diagonalization with overlap
     ethr =  2.07E-08,  avg # of iterations =  3.6

     total cpu time spent up to now is      434.8 secs

     total energy              =     -24.08898946 Ry
     estimated scf accuracy    <       0.00000004 Ry

     iteration #  6     ecut=    60.00 Ry     beta= 0.70
     Davidson diagonalization with overlap
     ethr =  5.43E-10,  avg # of iterations =  2.2

     total cpu time spent up to now is      435.7 secs

     End of self-consistent calculation

          k = 0.0000 0.0000 0.0000 (  2233 PWs)   bands (ev):

   -19.1134  -7.1842  -2.5708  -2.5708   3.4324   6.0734   8.9167   8.9167

     occupation numbers 
     1.0000   1.0000   1.0000   1.0000   0.0000   0.0000   0.0000   0.0000

          k = 0.0000 0.0959 0.0000 (  2240 PWs)   bands (ev):

   -18.9490  -6.9876  -3.2264  -2.9133   3.6566   6.2908   8.2389   9.0042

     occupation numbers 
     1.0000   1.0000   1.0000   1.0000   0.0000   0.0000   0.0000   0.0000

          k = 0.0000 0.1918 0.0000 (  2238 PWs)   bands (ev):

   -18.4576  -6.4009  -4.8735  -3.7146   4.3291   6.9383   8.7342   9.1137

     occupation numbers 
     1.0000   1.0000   1.0000   1.0000   0.0000   0.0000   0.0000   0.0000

          k = 0.0000 0.2877 0.0000 (  2244 PWs)   bands (ev):

   -17.6448  -6.9843  -5.4450  -4.6045   5.4485   7.6466   8.1666   8.6189

     occupation numbers 
     1.0000   1.0000   1.0000   1.0000   0.0000   0.0000   0.0000   0.0000

          k = 0.0000 0.3836 0.0000 (  2246 PWs)   bands (ev):

   -16.5226  -9.1986  -5.3460  -4.1695   5.4313   7.0075   8.3107   9.5459

     occupation numbers 
     1.0000   1.0000   1.0000   1.0000   0.0000   0.0000   0.0000   0.0000

          k = 0.0000 0.4794 0.0000 (  2258 PWs)   bands (ev):

   -15.1223 -11.3093  -5.8247  -2.7401   3.2833   8.0545   9.0273  11.4055

     occupation numbers 
     1.0000   1.0000   1.0000   1.0000   0.0000   0.0000   0.0000   0.0000

          k =-0.0000-0.5753-0.0000 (  2260 PWs)   bands (ev):

   -13.8488 -12.8267  -5.9896  -1.8907   2.1804   7.9763  11.3607  11.4991

     occupation numbers 
     1.0000   1.0000   1.0000   1.0000   0.0000   0.0000   0.0000   0.0000

          k = 0.0830 0.1438 0.0000 (  2241 PWs)   bands (ev):

   -18.6211  -6.5954  -4.2664  -3.5976   4.1051   6.7241   8.6455   9.3373

     occupation numbers 
     1.0000   1.0000   1.0000   1.0000   0.0000   0.0000   0.0000   0.0000

          k = 0.0830 0.2397 0.0000 (  2240 PWs)   bands (ev):

   -17.9689  -5.9866  -5.8230  -4.6048   5.0017   7.5740   8.6393   9.2782

     occupation numbers 
     1.0000   1.0000   1.0000   1.0000   0.0000   0.0000   0.0000   0.0000

          k = 0.0830 0.3356 0.0000 (  2243 PWs)   bands (ev):

   -17.0014  -8.0702  -5.5001  -4.7010   6.3431   6.4535   8.8813   9.1615

     occupation numbers 
     1.0000   1.0000   1.0000   1.0000   0.0000   0.0000   0.0000   0.0000

          k = 0.0830 0.4315 0.0000 (  2247 PWs)   bands (ev):

   -15.7371 -10.2036  -6.1412  -3.3137   4.2355   8.1159   8.9005  10.5306

     occupation numbers 
     1.0000   1.0000   1.0000   1.0000   0.0000   0.0000   0.0000   0.0000

          k = 0.0830 0.5274 0.0000 (  2245 PWs)   bands (ev):

   -14.2509 -12.1552  -6.4724  -1.9978   2.4584   8.7170  10.3374  12.4156

     occupation numbers 
     1.0000   1.0000   1.0000   1.0000   0.0000   0.0000   0.0000   0.0000

          k = 0.1661 0.2877 0.0000 (  2236 PWs)   bands (ev):

   -17.1620  -7.3234  -5.9774  -4.8801   6.1210   6.9042   8.6259  10.4050

     occupation numbers 
     1.0000   1.0000   1.0000   1.0000   0.0000   0.0000   0.0000   0.0000

          k = 0.1661 0.3836 0.0000 (  2242 PWs)   bands (ev):

   -16.0509  -9.0590  -7.0406  -3.6204   4.9469   7.6806  10.0174  10.8149

     occupation numbers 
     1.0000   1.0000   1.0000   1.0000   0.0000   0.0000   0.0000   0.0000

          k = 0.1661 0.4794 0.0000 (  2240 PWs)   bands (ev):

   -14.6700 -10.9791  -7.6205  -2.1854   3.0250   9.6622  10.6315  11.5401

     occupation numbers 
     1.0000   1.0000   1.0000   1.0000   0.0000   0.0000   0.0000   0.0000

          k = 0.1661 0.5753 0.0000 (  2240 PWs)   bands (ev):

   -13.4270 -12.4246  -7.8068  -1.2883   1.9522  10.5309  11.9464  12.3307

     occupation numbers 
     1.0000   1.0000   1.0000   1.0000   0.0000   0.0000   0.0000   0.0000

          k = 0.2491 0.4315 0.0000 (  2228 PWs)   bands (ev):

   -14.8183 -10.0972  -8.5329  -2.2696   3.3226   9.4452  12.7841  13.2233

     occupation numbers 
     1.0000   1.0000   1.0000   1.0000   0.0000   0.0000   0.0000   0.0000

          k = 0.2491 0.5274 0.0000 (  2231 PWs)   bands (ev):

   -13.3900 -11.5256  -9.2441  -0.8768   1.7947  11.5083  11.5792  12.7904

     occupation numbers 
     1.0000   1.0000   1.0000   1.0000   0.0000   0.0000   0.0000   0.0000

          k = 0.3322 0.5753 0.0000 (  2232 PWs)   bands (ev):

   -12.1669 -12.1669 -10.1483   0.4877   0.4877  11.1766  13.3186  13.3186

     occupation numbers 
     1.0000   1.0000   1.0000   0.5000   0.5000   0.0000   0.0000   0.0000

     the Fermi energy is     0.5066 ev

!    total energy              =     -24.08898947 Ry
     estimated scf accuracy    <          2.1E-09 Ry
     smearing contrib. (-TS)   =      -0.00009116 Ry
     internal energy E=F+TS    =     -24.08889831 Ry

     The total energy is F=E-TS. E is the sum of the following terms:
     one-electron contribution =     -65.16839527 Ry
     hartree contribution      =      34.72350036 Ry
     xc contribution           =      -8.58480404 Ry
     ewald contribution        =      14.94080064 Ry

     convergence has been achieved in   6 iterations

     Forces acting on atoms (cartesian axes, Ry/au):

     atom    1 type  1   force =    -0.00000000   -0.00000000   -0.00000000
     atom    2 type  1   force =     0.00000000    0.00000000    0.00000000
     The non-local contrib.  to forces
     atom    1 type  1   force =    -0.00000000   -0.00000000   -0.00000000
     atom    2 type  1   force =     0.00000000    0.00000000    0.00000000
     The ionic contribution  to forces
     atom    1 type  1   force =    -0.00000001    0.00000000   -0.00000000
     atom    2 type  1   force =     0.00000001   -0.00000000    0.00000000
     The local contribution  to forces
     atom    1 type  1   force =    -0.00000000   -0.00000000    0.00000000
     atom    2 type  1   force =     0.00000001   -0.00000000    0.00000000
     The core correction contribution to forces
     atom    1 type  1   force =     0.00000000   -0.00000000   -0.00000000
     atom    2 type  1   force =    -0.00000000    0.00000000   -0.00000000
     The Hubbard contrib.    to forces
     atom    1 type  1   force =     0.00000000    0.00000000    0.00000000
     atom    2 type  1   force =     0.00000000    0.00000000    0.00000000
     The SCF correction term to forces
     atom    1 type  1   force =     0.00000000   -0.00000000   -0.00000000
     atom    2 type  1   force =    -0.00000000    0.00000000   -0.00000000

     Total force =     0.000000     Total SCF correction =     0.000000


     Computing stress (Cartesian axis) and pressure

          total   stress  (Ry/bohr**3)                   (kbar)     P=      -11.70
  -0.00005346  -0.00000000   0.00000000           -7.86       -0.00        0.00
  -0.00000000  -0.00005346   0.00000000           -0.00       -7.86        0.00
  -0.00000000  -0.00000000  -0.00013161           -0.00       -0.00      -19.36

     kinetic stress (kbar)   5569.78      0.00      0.00
                                0.00   5569.78      0.00
                                0.00      0.00   6147.01

     local   stress (kbar) -39067.00      0.00     -0.00
                                0.00 -39067.00      0.00
                               -0.00      0.00  40747.28

     nonloc. stress (kbar)   -573.73     -0.00      0.00
                               -0.00   -573.73     -0.00
                                0.00     -0.00   -482.81

     hartree stress (kbar)  17455.89      0.00     -0.00
                                0.00  17455.89     -0.00
                               -0.00     -0.00 -17030.53

     exc-cor stress (kbar)   -442.56     -0.00     -0.00
                               -0.00   -442.56     -0.00
                               -0.00     -0.00   -495.38

     corecor stress (kbar)   -839.79      0.00      0.00
                                0.00   -839.79     -0.00
                               -0.00     -0.00   -819.76

     ewald   stress (kbar)  17889.55     -0.00     -0.00
                               -0.00  17889.55     -0.00
                               -0.00     -0.00 -28085.18

     hubbard stress (kbar)      0.00      0.00      0.00
                                0.00      0.00      0.00
                                0.00      0.00      0.00

     DFT-D   stress (kbar)      0.00      0.00      0.00
                                0.00      0.00      0.00
                                0.00      0.00      0.00

     XDM     stress (kbar)      0.00      0.00      0.00
                                0.00      0.00      0.00
                                0.00      0.00      0.00

     dft-nl  stress (kbar)      0.00      0.00      0.00
                                0.00      0.00      0.00
                                0.00      0.00      0.00

     TS-vdW  stress (kbar)      0.00      0.00      0.00
                                0.00      0.00      0.00
                                0.00      0.00      0.00



     Writing output data file ./tmp/graphene.save/

     init_run     :      3.90s CPU      2.99s WALL (       2 calls)
     electrons    :    783.77s CPU    334.90s WALL (      19 calls)
     update_pot   :     34.53s CPU     32.58s WALL (      17 calls)
     forces       :     28.36s CPU     22.47s WALL (      19 calls)
     stress       :     56.13s CPU     44.28s WALL (      19 calls)

     Called by init_run:
     wfcinit      :      1.48s CPU      0.64s WALL (       2 calls)
     wfcinit:atom :      0.05s CPU      0.02s WALL (      38 calls)
     wfcinit:wfcr :      1.20s CPU      0.54s WALL (      38 calls)
     potinit      :      0.66s CPU      0.67s WALL (       2 calls)
     hinit0       :      1.67s CPU      1.63s WALL (       2 calls)

     Called by electrons:
     c_bands      :    721.20s CPU    293.60s WALL (     143 calls)
     sum_band     :     55.97s CPU     34.73s WALL (     143 calls)
     v_of_rho     :      6.08s CPU      6.05s WALL (     160 calls)
     v_h          :      0.31s CPU      0.30s WALL (     160 calls)
     v_xc         :      9.04s CPU      7.49s WALL (     198 calls)
     mix_rho      :      0.76s CPU      0.79s WALL (     143 calls)

     Called by c_bands:
     init_us_2    :     18.36s CPU      7.46s WALL (    6194 calls)
     cegterg      :    682.79s CPU    279.16s WALL (    2717 calls)

     Called by sum_band:
     sum_band:wei :      0.11s CPU      0.03s WALL (     143 calls)
     sum_band:loo :     54.69s CPU     33.55s WALL (     143 calls)
     sum_band:buf :      0.48s CPU      0.28s WALL (    2717 calls)
     sum_band:ini :      5.15s CPU      3.06s WALL (    2717 calls)

     Called by *egterg:
     cdiaghg      :      8.66s CPU      2.53s WALL (   13350 calls)
     cegterg:over :     17.46s CPU      5.87s WALL (   10994 calls)
     cegterg:upda :     13.29s CPU      4.52s WALL (   10994 calls)
     cegterg:last :     14.76s CPU      4.37s WALL (    7153 calls)
     h_psi        :    609.47s CPU    256.77s WALL (   13749 calls)
     g_psi        :      9.49s CPU      2.49s WALL (   10994 calls)

     Called by h_psi:
     h_psi:calbec :     29.13s CPU     18.35s WALL (   13749 calls)
     vloc_psi     :    565.02s CPU    232.90s WALL (   13749 calls)
     add_vuspsi   :     11.31s CPU      4.31s WALL (   13749 calls)

     General routines
     calbec       :     31.64s CPU     19.46s WALL (   15554 calls)
     fft          :      3.78s CPU      3.13s WALL (    2075 calls)
     ffts         :      0.23s CPU      0.24s WALL (     143 calls)
     fftw         :    515.91s CPU    223.09s WALL (  160944 calls)

     Parallel routines

     PWSCF        :  15m 7.67s CPU   7m17.73s WALL


   This run was terminated on:  17: 9:46  14Feb2024            

=------------------------------------------------------------------------------=
   JOB DONE.
=------------------------------------------------------------------------------=
