
     Program PWSCF v.6.7MaX starts on 18Jan2024 at 17:16:54 

     This program is part of the open-source Quantum ESPRESSO suite
     for quantum simulation of materials; please cite
         "P. Giannozzi et al., J. Phys.:Condens. Matter 21 395502 (2009);
         "P. Giannozzi et al., J. Phys.:Condens. Matter 29 465901 (2017);
          URL http://www.quantum-espresso.org", 
     in publications or presentations arising from this work. More details at
     http://www.quantum-espresso.org/quote

     Parallel version (MPI), running on     1 processors

     MPI processes distributed on     1 nodes
     Waiting for input...
     Reading input from standard input

     Current dimensions of program PWSCF are:
     Max number of different atomic species (ntypx) = 10
     Max number of k-points (npk) =  40000
     Max angular momentum in pseudopotentials (lmaxx) =  3

     Subspace diagonalization in iterative solution of the eigenvalue problem:
     a serial algorithm will be used


     G-vector sticks info
     --------------------
     sticks:   dense  smooth     PW     G-vecs:    dense   smooth      PW
     Sum         121     121     37                 6307     6307    1307



     bravais-lattice index     =            4
     lattice parameter (alat)  =       4.6350  a.u.
     unit-cell volume          =     517.4056 (a.u.)^3
     number of atoms/cell      =            2
     number of atomic types    =            1
     number of electrons       =         8.00
     number of Kohn-Sham states=            8
     kinetic-energy cutoff     =      20.0000  Ry
     charge density cutoff     =      80.0000  Ry
     scf convergence threshold =      1.0E-06
     mixing beta               =       0.7000
     number of iterations used =            8  plain     mixing
     Exchange-correlation=  SLA  PZ   NOGX NOGC
                           (   1   1   0   0   0   0   0)

     celldm(1)=   4.635000  celldm(2)=   0.000000  celldm(3)=   6.000000
     celldm(4)=   0.000000  celldm(5)=   0.000000  celldm(6)=   0.000000

     crystal axes: (cart. coord. in units of alat)
               a(1) = (   1.000000   0.000000   0.000000 )  
               a(2) = (  -0.500000   0.866025   0.000000 )  
               a(3) = (   0.000000   0.000000   6.000000 )  

     reciprocal axes: (cart. coord. in units 2 pi/alat)
               b(1) = (  1.000000  0.577350 -0.000000 )  
               b(2) = (  0.000000  1.154701  0.000000 )  
               b(3) = (  0.000000 -0.000000  0.166667 )  


     PseudoPot. # 1 for C  read from file:
     ../../../Pseudo/C.pz-vbc.UPF
     MD5 check sum: ab53dd623bfeb79c5a7b057bc96eae20
     Pseudo is Norm-conserving, Zval =  4.0
     Generated by new atomic code, or converted to UPF format
     Using radial grid of  269 points,  1 beta functions with: 
                l(1) =   0

     atomic species   valence    mass     pseudopotential
        C              4.00    12.01100     C ( 1.00)

     24 Sym. Ops., with inversion, found (12 have fractional translation)


                                    s                        frac. trans.

      isym =  1     identity                                     

 cryst.   s( 1) = (     1          0          0      )
                  (     0          1          0      )
                  (     0          0          1      )

 cart.    s( 1) = (  1.0000000  0.0000000  0.0000000 )
                  (  0.0000000  1.0000000  0.0000000 )
                  (  0.0000000  0.0000000  1.0000000 )


      isym =  2     180 deg rotation - cart. axis [0,0,1]        

 cryst.   s( 2) = (    -1          0          0      )    f =( -0.3333333 )
                  (     0         -1          0      )       (  0.3333333 )
                  (     0          0          1      )       (  0.0000000 )

 cart.    s( 2) = ( -1.0000000  0.0000000  0.0000000 )    f =( -0.5000000 )
                  (  0.0000000 -1.0000000  0.0000000 )       (  0.2886751 )
                  (  0.0000000  0.0000000  1.0000000 )       (  0.0000000 )


      isym =  3     180 deg rotation - cart. axis [0,1,0]        

 cryst.   s( 3) = (    -1          0          0      )
                  (     1          1          0      )
                  (     0          0         -1      )

 cart.    s( 3) = ( -1.0000000  0.0000000  0.0000000 )
                  (  0.0000000  1.0000000  0.0000000 )
                  (  0.0000000  0.0000000 -1.0000000 )


      isym =  4     180 deg rotation - cart. axis [1,0,0]        

 cryst.   s( 4) = (     1          0          0      )    f =( -0.3333333 )
                  (    -1         -1          0      )       (  0.3333333 )
                  (     0          0         -1      )       (  0.0000000 )

 cart.    s( 4) = (  1.0000000  0.0000000  0.0000000 )    f =( -0.5000000 )
                  (  0.0000000 -1.0000000  0.0000000 )       (  0.2886751 )
                  (  0.0000000  0.0000000 -1.0000000 )       (  0.0000000 )


      isym =  5      60 deg rotation - cryst. axis [0,0,1]       

 cryst.   s( 5) = (     1          1          0      )    f =( -0.3333333 )
                  (    -1          0          0      )       (  0.3333333 )
                  (     0          0          1      )       (  0.0000000 )

 cart.    s( 5) = (  0.5000000 -0.8660254  0.0000000 )    f =( -0.5000000 )
                  (  0.8660254  0.5000000  0.0000000 )       (  0.2886751 )
                  (  0.0000000  0.0000000  1.0000000 )       (  0.0000000 )


      isym =  6      60 deg rotation - cryst. axis [0,0,-1]      

 cryst.   s( 6) = (     0         -1          0      )    f =( -0.3333333 )
                  (     1          1          0      )       (  0.3333333 )
                  (     0          0          1      )       (  0.0000000 )

 cart.    s( 6) = (  0.5000000  0.8660254  0.0000000 )    f =( -0.5000000 )
                  ( -0.8660254  0.5000000  0.0000000 )       (  0.2886751 )
                  (  0.0000000  0.0000000  1.0000000 )       (  0.0000000 )


      isym =  7     120 deg rotation - cryst. axis [0,0,1]       

 cryst.   s( 7) = (     0          1          0      )
                  (    -1         -1          0      )
                  (     0          0          1      )

 cart.    s( 7) = ( -0.5000000 -0.8660254  0.0000000 )
                  (  0.8660254 -0.5000000  0.0000000 )
                  (  0.0000000  0.0000000  1.0000000 )


      isym =  8     120 deg rotation - cryst. axis [0,0,-1]      

 cryst.   s( 8) = (    -1         -1          0      )
                  (     1          0          0      )
                  (     0          0          1      )

 cart.    s( 8) = ( -0.5000000  0.8660254  0.0000000 )
                  ( -0.8660254 -0.5000000  0.0000000 )
                  (  0.0000000  0.0000000  1.0000000 )


      isym =  9     180 deg rotation - cryst. axis [1,-1,0]      

 cryst.   s( 9) = (     0         -1          0      )
                  (    -1          0          0      )
                  (     0          0         -1      )

 cart.    s( 9) = (  0.5000000 -0.8660254  0.0000000 )
                  ( -0.8660254 -0.5000000  0.0000000 )
                  (  0.0000000  0.0000000 -1.0000000 )


      isym = 10     180 deg rotation - cryst. axis [2,1,0]       

 cryst.   s(10) = (     1          1          0      )
                  (     0         -1          0      )
                  (     0          0         -1      )

 cart.    s(10) = (  0.5000000  0.8660254  0.0000000 )
                  (  0.8660254 -0.5000000  0.0000000 )
                  (  0.0000000  0.0000000 -1.0000000 )


      isym = 11     180 deg rotation - cryst. axis [0,1,0]       

 cryst.   s(11) = (    -1         -1          0      )    f =( -0.3333333 )
                  (     0          1          0      )       (  0.3333333 )
                  (     0          0         -1      )       (  0.0000000 )

 cart.    s(11) = ( -0.5000000 -0.8660254  0.0000000 )    f =( -0.5000000 )
                  ( -0.8660254  0.5000000  0.0000000 )       (  0.2886751 )
                  (  0.0000000  0.0000000 -1.0000000 )       (  0.0000000 )


      isym = 12     180 deg rotation - cryst. axis [1,1,0]       

 cryst.   s(12) = (     0          1          0      )    f =( -0.3333333 )
                  (     1          0          0      )       (  0.3333333 )
                  (     0          0         -1      )       (  0.0000000 )

 cart.    s(12) = ( -0.5000000  0.8660254  0.0000000 )    f =( -0.5000000 )
                  (  0.8660254  0.5000000  0.0000000 )       (  0.2886751 )
                  (  0.0000000  0.0000000 -1.0000000 )       (  0.0000000 )


      isym = 13     inversion                                    

 cryst.   s(13) = (    -1          0          0      )    f =( -0.3333333 )
                  (     0         -1          0      )       (  0.3333333 )
                  (     0          0         -1      )       (  0.0000000 )

 cart.    s(13) = ( -1.0000000  0.0000000  0.0000000 )    f =( -0.5000000 )
                  (  0.0000000 -1.0000000  0.0000000 )       (  0.2886751 )
                  (  0.0000000  0.0000000 -1.0000000 )       (  0.0000000 )


      isym = 14     inv. 180 deg rotation - cart. axis [0,0,1]   

 cryst.   s(14) = (     1          0          0      )
                  (     0          1          0      )
                  (     0          0         -1      )

 cart.    s(14) = (  1.0000000  0.0000000  0.0000000 )
                  (  0.0000000  1.0000000  0.0000000 )
                  (  0.0000000  0.0000000 -1.0000000 )


      isym = 15     inv. 180 deg rotation - cart. axis [0,1,0]   

 cryst.   s(15) = (     1          0          0      )    f =( -0.3333333 )
                  (    -1         -1          0      )       (  0.3333333 )
                  (     0          0          1      )       (  0.0000000 )

 cart.    s(15) = (  1.0000000  0.0000000  0.0000000 )    f =( -0.5000000 )
                  (  0.0000000 -1.0000000  0.0000000 )       (  0.2886751 )
                  (  0.0000000  0.0000000  1.0000000 )       (  0.0000000 )


      isym = 16     inv. 180 deg rotation - cart. axis [1,0,0]   

 cryst.   s(16) = (    -1          0          0      )
                  (     1          1          0      )
                  (     0          0          1      )

 cart.    s(16) = ( -1.0000000  0.0000000  0.0000000 )
                  (  0.0000000  1.0000000  0.0000000 )
                  (  0.0000000  0.0000000  1.0000000 )


      isym = 17     inv.  60 deg rotation - cryst. axis [0,0,1]  

 cryst.   s(17) = (    -1         -1          0      )
                  (     1          0          0      )
                  (     0          0         -1      )

 cart.    s(17) = ( -0.5000000  0.8660254  0.0000000 )
                  ( -0.8660254 -0.5000000  0.0000000 )
                  (  0.0000000  0.0000000 -1.0000000 )


      isym = 18     inv.  60 deg rotation - cryst. axis [0,0,-1] 

 cryst.   s(18) = (     0          1          0      )
                  (    -1         -1          0      )
                  (     0          0         -1      )

 cart.    s(18) = ( -0.5000000 -0.8660254  0.0000000 )
                  (  0.8660254 -0.5000000  0.0000000 )
                  (  0.0000000  0.0000000 -1.0000000 )


      isym = 19     inv. 120 deg rotation - cryst. axis [0,0,1]  

 cryst.   s(19) = (     0         -1          0      )    f =( -0.3333333 )
                  (     1          1          0      )       (  0.3333333 )
                  (     0          0         -1      )       (  0.0000000 )

 cart.    s(19) = (  0.5000000  0.8660254  0.0000000 )    f =( -0.5000000 )
                  ( -0.8660254  0.5000000  0.0000000 )       (  0.2886751 )
                  (  0.0000000  0.0000000 -1.0000000 )       (  0.0000000 )


      isym = 20     inv. 120 deg rotation - cryst. axis [0,0,-1] 

 cryst.   s(20) = (     1          1          0      )    f =( -0.3333333 )
                  (    -1          0          0      )       (  0.3333333 )
                  (     0          0         -1      )       (  0.0000000 )

 cart.    s(20) = (  0.5000000 -0.8660254  0.0000000 )    f =( -0.5000000 )
                  (  0.8660254  0.5000000  0.0000000 )       (  0.2886751 )
                  (  0.0000000  0.0000000 -1.0000000 )       (  0.0000000 )


      isym = 21     inv. 180 deg rotation - cryst. axis [1,-1,0] 

 cryst.   s(21) = (     0          1          0      )    f =( -0.3333333 )
                  (     1          0          0      )       (  0.3333333 )
                  (     0          0          1      )       (  0.0000000 )

 cart.    s(21) = ( -0.5000000  0.8660254  0.0000000 )    f =( -0.5000000 )
                  (  0.8660254  0.5000000  0.0000000 )       (  0.2886751 )
                  (  0.0000000  0.0000000  1.0000000 )       (  0.0000000 )


      isym = 22     inv. 180 deg rotation - cryst. axis [2,1,0]  

 cryst.   s(22) = (    -1         -1          0      )    f =( -0.3333333 )
                  (     0          1          0      )       (  0.3333333 )
                  (     0          0          1      )       (  0.0000000 )

 cart.    s(22) = ( -0.5000000 -0.8660254  0.0000000 )    f =( -0.5000000 )
                  ( -0.8660254  0.5000000  0.0000000 )       (  0.2886751 )
                  (  0.0000000  0.0000000  1.0000000 )       (  0.0000000 )


      isym = 23     inv. 180 deg rotation - cryst. axis [0,1,0]  

 cryst.   s(23) = (     1          1          0      )
                  (     0         -1          0      )
                  (     0          0          1      )

 cart.    s(23) = (  0.5000000  0.8660254  0.0000000 )
                  (  0.8660254 -0.5000000  0.0000000 )
                  (  0.0000000  0.0000000  1.0000000 )


      isym = 24     inv. 180 deg rotation - cryst. axis [1,1,0]  

 cryst.   s(24) = (     0         -1          0      )
                  (    -1          0          0      )
                  (     0          0          1      )

 cart.    s(24) = (  0.5000000 -0.8660254  0.0000000 )
                  ( -0.8660254 -0.5000000  0.0000000 )
                  (  0.0000000  0.0000000  1.0000000 )


     point group D_6h(6/mmm)
     there are 12 classes
     the character table:

       E     2C6   2C3   C2    3C2'  3C2'' i     2S3   2S6   s_h   3s_d  3s_v 
A_1g   1.00  1.00  1.00  1.00  1.00  1.00  1.00  1.00  1.00  1.00  1.00  1.00
A_2g   1.00  1.00  1.00  1.00 -1.00 -1.00  1.00  1.00  1.00  1.00 -1.00 -1.00
B_1g   1.00 -1.00  1.00 -1.00  1.00 -1.00  1.00 -1.00  1.00 -1.00  1.00 -1.00
B_2g   1.00 -1.00  1.00 -1.00 -1.00  1.00  1.00 -1.00  1.00 -1.00 -1.00  1.00
E_1g   2.00  1.00 -1.00 -2.00  0.00  0.00  2.00  1.00 -1.00 -2.00  0.00  0.00
E_2g   2.00 -1.00 -1.00  2.00  0.00  0.00  2.00 -1.00 -1.00  2.00  0.00  0.00
A_1u   1.00  1.00  1.00  1.00  1.00  1.00 -1.00 -1.00 -1.00 -1.00 -1.00 -1.00
A_2u   1.00  1.00  1.00  1.00 -1.00 -1.00 -1.00 -1.00 -1.00 -1.00  1.00  1.00
B_1u   1.00 -1.00  1.00 -1.00  1.00 -1.00 -1.00  1.00 -1.00  1.00 -1.00  1.00
B_2u   1.00 -1.00  1.00 -1.00 -1.00  1.00 -1.00  1.00 -1.00  1.00  1.00 -1.00
E_1u   2.00  1.00 -1.00 -2.00  0.00  0.00 -2.00 -1.00  1.00  2.00  0.00  0.00
E_2u   2.00 -1.00 -1.00  2.00  0.00  0.00 -2.00  1.00  1.00 -2.00  0.00  0.00

     the symmetry operations in each class and the name of the first element:

     E        1
          identity                                               
     2C6      5    6
           60 deg rotation - cryst. axis [0,0,1]                 
     2C3      7    8
          120 deg rotation - cryst. axis [0,0,1]                 
     C2       2
          180 deg rotation - cart. axis [0,0,1]                  
     3C2'     4   12   11
          180 deg rotation - cart. axis [1,0,0]                  
     3C2''    3    9   10
          180 deg rotation - cart. axis [0,1,0]                  
     i       13
          inversion                                              
     2S3     17   18
          inv.  60 deg rotation - cryst. axis [0,0,1]            
     2S6     19   20
          inv. 120 deg rotation - cryst. axis [0,0,1]            
     s_h     14
          inv. 180 deg rotation - cart. axis [0,0,1]             
     3s_d    16   24   23
          inv. 180 deg rotation - cart. axis [1,0,0]             
     3s_v    15   21   22
          inv. 180 deg rotation - cart. axis [0,1,0]             

   Cartesian axes

     site n.     atom                  positions (alat units)
         1           C   tau(   1) = (   0.0000000   0.0000000   0.0000000  )
         2           C   tau(   2) = (  -0.0000000   0.5773503   0.0000000  )

   Crystallographic axes

     site n.     atom                  positions (cryst. coord.)
         1           C   tau(   1) = (  0.0000000  0.0000000  0.0000000  )
         2           C   tau(   2) = (  0.3333333  0.6666667  0.0000000  )

     number of k points=   102  Marzari-Vanderbilt smearing, width (Ry)=  0.0100
                       cart. coord. in units 2pi/alat
        k(    1) = (   0.0000000   0.0000000   0.0000000), wk =   0.0019531
        k(    2) = (   0.0000000   0.0360844   0.0000000), wk =   0.0117188
        k(    3) = (   0.0000000   0.0721688   0.0000000), wk =   0.0117188
        k(    4) = (   0.0000000   0.1082532   0.0000000), wk =   0.0117188
        k(    5) = (   0.0000000   0.1443376   0.0000000), wk =   0.0117188
        k(    6) = (   0.0000000   0.1804220   0.0000000), wk =   0.0117188
        k(    7) = (   0.0000000   0.2165064   0.0000000), wk =   0.0117188
        k(    8) = (   0.0000000   0.2525907   0.0000000), wk =   0.0117188
        k(    9) = (   0.0000000   0.2886751   0.0000000), wk =   0.0117188
        k(   10) = (   0.0000000   0.3247595   0.0000000), wk =   0.0117188
        k(   11) = (   0.0000000   0.3608439   0.0000000), wk =   0.0117188
        k(   12) = (   0.0000000   0.3969283   0.0000000), wk =   0.0117188
        k(   13) = (   0.0000000   0.4330127   0.0000000), wk =   0.0117188
        k(   14) = (   0.0000000   0.4690971   0.0000000), wk =   0.0117188
        k(   15) = (   0.0000000   0.5051815   0.0000000), wk =   0.0117188
        k(   16) = (   0.0000000   0.5412659   0.0000000), wk =   0.0117188
        k(   17) = (   0.0000000  -0.5773503   0.0000000), wk =   0.0058594
        k(   18) = (   0.0312500   0.0541266   0.0000000), wk =   0.0117188
        k(   19) = (   0.0312500   0.0902110   0.0000000), wk =   0.0234375
        k(   20) = (   0.0312500   0.1262954   0.0000000), wk =   0.0234375
        k(   21) = (   0.0312500   0.1623798   0.0000000), wk =   0.0234375
        k(   22) = (   0.0312500   0.1984642   0.0000000), wk =   0.0234375
        k(   23) = (   0.0312500   0.2345485   0.0000000), wk =   0.0234375
        k(   24) = (   0.0312500   0.2706329   0.0000000), wk =   0.0234375
        k(   25) = (   0.0312500   0.3067173   0.0000000), wk =   0.0234375
        k(   26) = (   0.0312500   0.3428017   0.0000000), wk =   0.0234375
        k(   27) = (   0.0312500   0.3788861   0.0000000), wk =   0.0234375
        k(   28) = (   0.0312500   0.4149705   0.0000000), wk =   0.0234375
        k(   29) = (   0.0312500   0.4510549   0.0000000), wk =   0.0234375
        k(   30) = (   0.0312500   0.4871393   0.0000000), wk =   0.0234375
        k(   31) = (   0.0312500   0.5232237   0.0000000), wk =   0.0234375
        k(   32) = (   0.0312500   0.5593081   0.0000000), wk =   0.0234375
        k(   33) = (   0.0625000   0.1082532   0.0000000), wk =   0.0117188
        k(   34) = (   0.0625000   0.1443376   0.0000000), wk =   0.0234375
        k(   35) = (   0.0625000   0.1804220   0.0000000), wk =   0.0234375
        k(   36) = (   0.0625000   0.2165064   0.0000000), wk =   0.0234375
        k(   37) = (   0.0625000   0.2525907   0.0000000), wk =   0.0234375
        k(   38) = (   0.0625000   0.2886751   0.0000000), wk =   0.0234375
        k(   39) = (   0.0625000   0.3247595   0.0000000), wk =   0.0234375
        k(   40) = (   0.0625000   0.3608439   0.0000000), wk =   0.0234375
        k(   41) = (   0.0625000   0.3969283   0.0000000), wk =   0.0234375
        k(   42) = (   0.0625000   0.4330127   0.0000000), wk =   0.0234375
        k(   43) = (   0.0625000   0.4690971   0.0000000), wk =   0.0234375
        k(   44) = (   0.0625000   0.5051815   0.0000000), wk =   0.0234375
        k(   45) = (   0.0625000   0.5412659   0.0000000), wk =   0.0234375
        k(   46) = (   0.0625000   0.5773503   0.0000000), wk =   0.0117188
        k(   47) = (   0.0937500   0.1623798   0.0000000), wk =   0.0117188
        k(   48) = (   0.0937500   0.1984642   0.0000000), wk =   0.0234375
        k(   49) = (   0.0937500   0.2345485   0.0000000), wk =   0.0234375
        k(   50) = (   0.0937500   0.2706329   0.0000000), wk =   0.0234375
        k(   51) = (   0.0937500   0.3067173   0.0000000), wk =   0.0234375
        k(   52) = (   0.0937500   0.3428017   0.0000000), wk =   0.0234375
        k(   53) = (   0.0937500   0.3788861   0.0000000), wk =   0.0234375
        k(   54) = (   0.0937500   0.4149705   0.0000000), wk =   0.0234375
        k(   55) = (   0.0937500   0.4510549   0.0000000), wk =   0.0234375
        k(   56) = (   0.0937500   0.4871393   0.0000000), wk =   0.0234375
        k(   57) = (   0.0937500   0.5232237   0.0000000), wk =   0.0234375
        k(   58) = (   0.0937500   0.5593081   0.0000000), wk =   0.0234375
        k(   59) = (   0.1250000   0.2165064   0.0000000), wk =   0.0117188
        k(   60) = (   0.1250000   0.2525907   0.0000000), wk =   0.0234375
        k(   61) = (   0.1250000   0.2886751   0.0000000), wk =   0.0234375
        k(   62) = (   0.1250000   0.3247595   0.0000000), wk =   0.0234375
        k(   63) = (   0.1250000   0.3608439   0.0000000), wk =   0.0234375
        k(   64) = (   0.1250000   0.3969283   0.0000000), wk =   0.0234375
        k(   65) = (   0.1250000   0.4330127   0.0000000), wk =   0.0234375
        k(   66) = (   0.1250000   0.4690971   0.0000000), wk =   0.0234375
        k(   67) = (   0.1250000   0.5051815   0.0000000), wk =   0.0234375
        k(   68) = (   0.1250000   0.5412659   0.0000000), wk =   0.0234375
        k(   69) = (   0.1250000   0.5773503   0.0000000), wk =   0.0117188
        k(   70) = (   0.1562500   0.2706329   0.0000000), wk =   0.0117188
        k(   71) = (   0.1562500   0.3067173   0.0000000), wk =   0.0234375
        k(   72) = (   0.1562500   0.3428017   0.0000000), wk =   0.0234375
        k(   73) = (   0.1562500   0.3788861   0.0000000), wk =   0.0234375
        k(   74) = (   0.1562500   0.4149705   0.0000000), wk =   0.0234375
        k(   75) = (   0.1562500   0.4510549   0.0000000), wk =   0.0234375
        k(   76) = (   0.1562500   0.4871393   0.0000000), wk =   0.0234375
        k(   77) = (   0.1562500   0.5232237   0.0000000), wk =   0.0234375
        k(   78) = (   0.1562500   0.5593081   0.0000000), wk =   0.0234375
        k(   79) = (   0.1875000   0.3247595   0.0000000), wk =   0.0117188
        k(   80) = (   0.1875000   0.3608439   0.0000000), wk =   0.0234375
        k(   81) = (   0.1875000   0.3969283   0.0000000), wk =   0.0234375
        k(   82) = (   0.1875000   0.4330127   0.0000000), wk =   0.0234375
        k(   83) = (   0.1875000   0.4690971   0.0000000), wk =   0.0234375
        k(   84) = (   0.1875000   0.5051815   0.0000000), wk =   0.0234375
        k(   85) = (   0.1875000   0.5412659   0.0000000), wk =   0.0234375
        k(   86) = (   0.1875000   0.5773503   0.0000000), wk =   0.0117188
        k(   87) = (   0.2187500   0.3788861   0.0000000), wk =   0.0117188
        k(   88) = (   0.2187500   0.4149705   0.0000000), wk =   0.0234375
        k(   89) = (   0.2187500   0.4510549   0.0000000), wk =   0.0234375
        k(   90) = (   0.2187500   0.4871393   0.0000000), wk =   0.0234375
        k(   91) = (   0.2187500   0.5232237   0.0000000), wk =   0.0234375
        k(   92) = (   0.2187500   0.5593081   0.0000000), wk =   0.0234375
        k(   93) = (   0.2500000   0.4330127   0.0000000), wk =   0.0117188
        k(   94) = (   0.2500000   0.4690971   0.0000000), wk =   0.0234375
        k(   95) = (   0.2500000   0.5051815   0.0000000), wk =   0.0234375
        k(   96) = (   0.2500000   0.5412659   0.0000000), wk =   0.0234375
        k(   97) = (   0.2500000   0.5773503   0.0000000), wk =   0.0117188
        k(   98) = (   0.2812500   0.4871393   0.0000000), wk =   0.0117188
        k(   99) = (   0.2812500   0.5232237   0.0000000), wk =   0.0234375
        k(  100) = (   0.2812500   0.5593081   0.0000000), wk =   0.0234375
        k(  101) = (   0.3125000   0.5412659   0.0000000), wk =   0.0117188
        k(  102) = (   0.3125000   0.5773503   0.0000000), wk =   0.0117188

                       cryst. coord.
        k(    1) = (   0.0000000   0.0000000   0.0000000), wk =   0.0019531
        k(    2) = (   0.0000000   0.0312500   0.0000000), wk =   0.0117188
        k(    3) = (   0.0000000   0.0625000   0.0000000), wk =   0.0117188
        k(    4) = (   0.0000000   0.0937500   0.0000000), wk =   0.0117188
        k(    5) = (   0.0000000   0.1250000   0.0000000), wk =   0.0117188
        k(    6) = (   0.0000000   0.1562500   0.0000000), wk =   0.0117188
        k(    7) = (   0.0000000   0.1875000   0.0000000), wk =   0.0117188
        k(    8) = (   0.0000000   0.2187500   0.0000000), wk =   0.0117188
        k(    9) = (   0.0000000   0.2500000   0.0000000), wk =   0.0117188
        k(   10) = (   0.0000000   0.2812500   0.0000000), wk =   0.0117188
        k(   11) = (   0.0000000   0.3125000   0.0000000), wk =   0.0117188
        k(   12) = (   0.0000000   0.3437500   0.0000000), wk =   0.0117188
        k(   13) = (   0.0000000   0.3750000   0.0000000), wk =   0.0117188
        k(   14) = (   0.0000000   0.4062500   0.0000000), wk =   0.0117188
        k(   15) = (   0.0000000   0.4375000   0.0000000), wk =   0.0117188
        k(   16) = (   0.0000000   0.4687500   0.0000000), wk =   0.0117188
        k(   17) = (   0.0000000  -0.5000000   0.0000000), wk =   0.0058594
        k(   18) = (   0.0312500   0.0312500   0.0000000), wk =   0.0117188
        k(   19) = (   0.0312500   0.0625000   0.0000000), wk =   0.0234375
        k(   20) = (   0.0312500   0.0937500   0.0000000), wk =   0.0234375
        k(   21) = (   0.0312500   0.1250000   0.0000000), wk =   0.0234375
        k(   22) = (   0.0312500   0.1562500   0.0000000), wk =   0.0234375
        k(   23) = (   0.0312500   0.1875000   0.0000000), wk =   0.0234375
        k(   24) = (   0.0312500   0.2187500   0.0000000), wk =   0.0234375
        k(   25) = (   0.0312500   0.2500000   0.0000000), wk =   0.0234375
        k(   26) = (   0.0312500   0.2812500   0.0000000), wk =   0.0234375
        k(   27) = (   0.0312500   0.3125000   0.0000000), wk =   0.0234375
        k(   28) = (   0.0312500   0.3437500   0.0000000), wk =   0.0234375
        k(   29) = (   0.0312500   0.3750000   0.0000000), wk =   0.0234375
        k(   30) = (   0.0312500   0.4062500   0.0000000), wk =   0.0234375
        k(   31) = (   0.0312500   0.4375000   0.0000000), wk =   0.0234375
        k(   32) = (   0.0312500   0.4687500   0.0000000), wk =   0.0234375
        k(   33) = (   0.0625000   0.0625000   0.0000000), wk =   0.0117188
        k(   34) = (   0.0625000   0.0937500   0.0000000), wk =   0.0234375
        k(   35) = (   0.0625000   0.1250000   0.0000000), wk =   0.0234375
        k(   36) = (   0.0625000   0.1562500   0.0000000), wk =   0.0234375
        k(   37) = (   0.0625000   0.1875000   0.0000000), wk =   0.0234375
        k(   38) = (   0.0625000   0.2187500   0.0000000), wk =   0.0234375
        k(   39) = (   0.0625000   0.2500000   0.0000000), wk =   0.0234375
        k(   40) = (   0.0625000   0.2812500   0.0000000), wk =   0.0234375
        k(   41) = (   0.0625000   0.3125000   0.0000000), wk =   0.0234375
        k(   42) = (   0.0625000   0.3437500   0.0000000), wk =   0.0234375
        k(   43) = (   0.0625000   0.3750000   0.0000000), wk =   0.0234375
        k(   44) = (   0.0625000   0.4062500   0.0000000), wk =   0.0234375
        k(   45) = (   0.0625000   0.4375000   0.0000000), wk =   0.0234375
        k(   46) = (   0.0625000   0.4687500   0.0000000), wk =   0.0117188
        k(   47) = (   0.0937500   0.0937500   0.0000000), wk =   0.0117188
        k(   48) = (   0.0937500   0.1250000   0.0000000), wk =   0.0234375
        k(   49) = (   0.0937500   0.1562500   0.0000000), wk =   0.0234375
        k(   50) = (   0.0937500   0.1875000   0.0000000), wk =   0.0234375
        k(   51) = (   0.0937500   0.2187500   0.0000000), wk =   0.0234375
        k(   52) = (   0.0937500   0.2500000   0.0000000), wk =   0.0234375
        k(   53) = (   0.0937500   0.2812500   0.0000000), wk =   0.0234375
        k(   54) = (   0.0937500   0.3125000   0.0000000), wk =   0.0234375
        k(   55) = (   0.0937500   0.3437500   0.0000000), wk =   0.0234375
        k(   56) = (   0.0937500   0.3750000   0.0000000), wk =   0.0234375
        k(   57) = (   0.0937500   0.4062500   0.0000000), wk =   0.0234375
        k(   58) = (   0.0937500   0.4375000   0.0000000), wk =   0.0234375
        k(   59) = (   0.1250000   0.1250000   0.0000000), wk =   0.0117188
        k(   60) = (   0.1250000   0.1562500   0.0000000), wk =   0.0234375
        k(   61) = (   0.1250000   0.1875000   0.0000000), wk =   0.0234375
        k(   62) = (   0.1250000   0.2187500   0.0000000), wk =   0.0234375
        k(   63) = (   0.1250000   0.2500000   0.0000000), wk =   0.0234375
        k(   64) = (   0.1250000   0.2812500   0.0000000), wk =   0.0234375
        k(   65) = (   0.1250000   0.3125000   0.0000000), wk =   0.0234375
        k(   66) = (   0.1250000   0.3437500   0.0000000), wk =   0.0234375
        k(   67) = (   0.1250000   0.3750000   0.0000000), wk =   0.0234375
        k(   68) = (   0.1250000   0.4062500   0.0000000), wk =   0.0234375
        k(   69) = (   0.1250000   0.4375000   0.0000000), wk =   0.0117188
        k(   70) = (   0.1562500   0.1562500   0.0000000), wk =   0.0117188
        k(   71) = (   0.1562500   0.1875000   0.0000000), wk =   0.0234375
        k(   72) = (   0.1562500   0.2187500   0.0000000), wk =   0.0234375
        k(   73) = (   0.1562500   0.2500000   0.0000000), wk =   0.0234375
        k(   74) = (   0.1562500   0.2812500   0.0000000), wk =   0.0234375
        k(   75) = (   0.1562500   0.3125000   0.0000000), wk =   0.0234375
        k(   76) = (   0.1562500   0.3437500   0.0000000), wk =   0.0234375
        k(   77) = (   0.1562500   0.3750000   0.0000000), wk =   0.0234375
        k(   78) = (   0.1562500   0.4062500   0.0000000), wk =   0.0234375
        k(   79) = (   0.1875000   0.1875000   0.0000000), wk =   0.0117188
        k(   80) = (   0.1875000   0.2187500   0.0000000), wk =   0.0234375
        k(   81) = (   0.1875000   0.2500000   0.0000000), wk =   0.0234375
        k(   82) = (   0.1875000   0.2812500   0.0000000), wk =   0.0234375
        k(   83) = (   0.1875000   0.3125000   0.0000000), wk =   0.0234375
        k(   84) = (   0.1875000   0.3437500   0.0000000), wk =   0.0234375
        k(   85) = (   0.1875000   0.3750000   0.0000000), wk =   0.0234375
        k(   86) = (   0.1875000   0.4062500   0.0000000), wk =   0.0117188
        k(   87) = (   0.2187500   0.2187500   0.0000000), wk =   0.0117188
        k(   88) = (   0.2187500   0.2500000   0.0000000), wk =   0.0234375
        k(   89) = (   0.2187500   0.2812500   0.0000000), wk =   0.0234375
        k(   90) = (   0.2187500   0.3125000   0.0000000), wk =   0.0234375
        k(   91) = (   0.2187500   0.3437500   0.0000000), wk =   0.0234375
        k(   92) = (   0.2187500   0.3750000   0.0000000), wk =   0.0234375
        k(   93) = (   0.2500000   0.2500000   0.0000000), wk =   0.0117188
        k(   94) = (   0.2500000   0.2812500   0.0000000), wk =   0.0234375
        k(   95) = (   0.2500000   0.3125000   0.0000000), wk =   0.0234375
        k(   96) = (   0.2500000   0.3437500   0.0000000), wk =   0.0234375
        k(   97) = (   0.2500000   0.3750000   0.0000000), wk =   0.0117188
        k(   98) = (   0.2812500   0.2812500   0.0000000), wk =   0.0117188
        k(   99) = (   0.2812500   0.3125000   0.0000000), wk =   0.0234375
        k(  100) = (   0.2812500   0.3437500   0.0000000), wk =   0.0234375
        k(  101) = (   0.3125000   0.3125000   0.0000000), wk =   0.0117188
        k(  102) = (   0.3125000   0.3437500   0.0000000), wk =   0.0117188

     Dense  grid:     6307 G-vectors     FFT dimensions: (  15,  15,  80)

     Dynamical RAM for                 wfc:       0.10 MB

     Dynamical RAM for     wfc (w. buffer):       9.82 MB

     Dynamical RAM for           str. fact:       0.10 MB

     Dynamical RAM for           local pot:       0.00 MB

     Dynamical RAM for          nlocal pot:       0.02 MB

     Dynamical RAM for                qrad:       0.01 MB

     Dynamical RAM for          rho,v,vnew:       0.70 MB

     Dynamical RAM for               rhoin:       0.23 MB

     Dynamical RAM for            rho*nmix:       1.54 MB

     Dynamical RAM for           G-vectors:       0.41 MB

     Dynamical RAM for          h,s,v(r/c):       0.01 MB

     Dynamical RAM for          <psi|beta>:       0.00 MB

     Dynamical RAM for                 psi:       0.19 MB

     Dynamical RAM for                hpsi:       0.19 MB

     Dynamical RAM for      wfcinit/wfcrot:       0.19 MB

     Estimated static dynamical RAM per process >      13.71 MB

     Estimated max dynamical RAM per process >      14.10 MB

     Initial potential from superposition of free atoms

     starting charge    7.99994, renormalised to    8.00000

     negative rho (up, down):  6.623E-03 0.000E+00
     Starting wfcs are    8 randomized atomic wfcs

     total cpu time spent up to now is        0.2 secs

     Self-consistent Calculation

     iteration #  1     ecut=    20.00 Ry     beta= 0.70
     Davidson diagonalization with overlap
     ethr =  1.00E-02,  avg # of iterations =  6.5

     negative rho (up, down):  1.716E-03 0.000E+00

     total cpu time spent up to now is        1.2 secs

     total energy              =     -22.13566940 Ry
     estimated scf accuracy    <       0.13871267 Ry

     iteration #  2     ecut=    20.00 Ry     beta= 0.70
     Davidson diagonalization with overlap
     ethr =  1.73E-03,  avg # of iterations =  3.2

     negative rho (up, down):  2.841E-04 0.000E+00

     total cpu time spent up to now is        1.7 secs

     total energy              =     -22.15233721 Ry
     estimated scf accuracy    <       0.00355444 Ry

     iteration #  3     ecut=    20.00 Ry     beta= 0.70
     Davidson diagonalization with overlap
     c_bands:  1 eigenvalues not converged
     ethr =  4.44E-05,  avg # of iterations =  7.8

     total cpu time spent up to now is        2.5 secs

     total energy              =     -22.15251321 Ry
     estimated scf accuracy    <       0.00020105 Ry

     iteration #  4     ecut=    20.00 Ry     beta= 0.70
     Davidson diagonalization with overlap
     c_bands:  1 eigenvalues not converged
     ethr =  2.51E-06,  avg # of iterations =  4.6

     total cpu time spent up to now is        3.0 secs

     End of self-consistent calculation

          k = 0.0000 0.0000 0.0000 (   801 PWs)   bands (ev):

   -21.7424  -9.6414  -4.6314  -4.6314   1.3755   2.4935   2.7868   4.8426

     occupation numbers 
     1.0000   1.0000   1.0000   1.0000   0.0000   0.0000   0.0000   0.0000

          k = 0.0000 0.0361 0.0000 (   795 PWs)   bands (ev):

   -21.7148  -9.6098  -4.6800  -4.6750   1.4074   2.5258   2.8193   4.8745

     occupation numbers 
     1.0000   1.0000   1.0000   1.0000   0.0000   0.0000   0.0000   0.0000

          k = 0.0000 0.0722 0.0000 (   799 PWs)   bands (ev):

   -21.6494  -9.5408  -5.0131  -4.8247   1.5023   2.6202   2.9161   4.9674

     occupation numbers 
     1.0000   1.0000   1.0000   1.0000   0.0000   0.0000   0.0000   0.0000

          k = 0.0000 0.1083 0.0000 (   795 PWs)   bands (ev):

   -21.5250  -9.3968  -5.4591  -5.0602   1.6613   2.7803   3.0778   5.1261

     occupation numbers 
     1.0000   1.0000   1.0000   1.0000   0.0000   0.0000   0.0000   0.0000

          k = 0.0000 0.1443 0.0000 (   795 PWs)   bands (ev):

   -21.3539  -9.1973  -6.0905  -5.3449   1.8837   3.0040   3.3041   5.3480

     occupation numbers 
     1.0000   1.0000   1.0000   1.0000   0.0000   0.0000   0.0000   0.0000

          k = 0.0000 0.1804 0.0000 (   786 PWs)   bands (ev):

   -21.1393  -8.9206  -6.7333  -5.6643   2.1684   3.2933   3.5948   5.6340

     occupation numbers 
     1.0000   1.0000   1.0000   1.0000   0.0000   0.0000   0.0000   0.0000

          k = 0.0000 0.2165 0.0000 (   786 PWs)   bands (ev):

   -20.8870  -8.6093  -7.5272  -6.0179   2.5158   3.6436   3.9499   5.9790

     occupation numbers 
     1.0000   1.0000   1.0000   1.0000   0.0000   0.0000   0.0000   0.0000

          k = 0.0000 0.2526 0.0000 (   784 PWs)   bands (ev):

   -20.5862  -8.3232  -8.2475  -6.4148   2.9266   4.0548   4.3697   6.5382

     occupation numbers 
     1.0000   1.0000   1.0000   1.0000   0.0000   0.0000   0.0000   0.0000

          k = 0.0000 0.2887 0.0000 (   780 PWs)   bands (ev):

   -20.2377  -9.1588  -7.8327  -6.7693   3.4003   4.5217   4.8540   6.3508

     occupation numbers 
     1.0000   1.0000   1.0000   1.0000   0.0000   0.0000   0.0000   0.0000

          k = 0.0000 0.3248 0.0000 (   770 PWs)   bands (ev):

   -19.8403  -9.9656  -7.3659  -7.0651   3.9367   4.9629   5.4019   5.4972

     occupation numbers 
     1.0000   1.0000   1.0000   1.0000   0.0000   0.0000   0.0000   0.0000

          k = 0.0000 0.3608 0.0000 (   776 PWs)   bands (ev):

   -19.4000 -10.8837  -7.3472  -6.8597   4.2991   4.5348   5.7403   5.8965

     occupation numbers 
     1.0000   1.0000   1.0000   1.0000   0.0000   0.0000   0.0000   0.0000

          k = 0.0000 0.3969 0.0000 (   776 PWs)   bands (ev):

   -18.9407 -11.7534  -7.5895  -6.3073   3.3610   5.1894   5.7405   6.3854

     occupation numbers 
     1.0000   1.0000   1.0000   1.0000   0.0000   0.0000   0.0000   0.0000

          k = 0.0000 0.4330 0.0000 (   784 PWs)   bands (ev):

   -18.4211 -12.6280  -7.8378  -5.7370   2.4177   5.5645   5.9303   7.1069

     occupation numbers 
     1.0000   1.0000   1.0000   1.0000   0.0000   0.0000   0.0000   0.0000

          k = 0.0000 0.4691 0.0000 (   792 PWs)   bands (ev):

   -17.8766 -13.4596  -8.0183  -5.1670   1.5361   5.4397   6.7027   7.8919

     occupation numbers 
     1.0000   1.0000   1.0000   1.0000   0.0000   0.0000   0.0000   0.0000

          k = 0.0000 0.5052 0.0000 (   792 PWs)   bands (ev):

   -17.2683 -14.2600  -8.1382  -4.6304   0.7891   5.3525   7.5441   8.7355

     occupation numbers 
     1.0000   1.0000   1.0000   1.0000   0.0000   0.0000   0.0000   0.0000

          k = 0.0000 0.5413 0.0000 (   790 PWs)   bands (ev):

   -16.6848 -14.9541  -8.2089  -4.2136   0.2604   5.3066   8.4398   9.6330

     occupation numbers 
     1.0000   1.0000   1.0000   1.0000   0.0000   0.0000   0.0000   0.0000

          k = 0.0000-0.5774 0.0000 (   782 PWs)   bands (ev):

   -16.3006 -15.3665  -8.2092  -4.0304   0.0707   5.3062   9.3323   9.4625

     occupation numbers 
     1.0000   1.0000   1.0000   1.0000   0.0000   0.0000   0.0000   0.0000

          k = 0.0312 0.0541 0.0000 (   799 PWs)   bands (ev):

   -21.6710  -9.5616  -4.9115  -4.7947   1.4707   2.5890   2.8839   4.9368

     occupation numbers 
     1.0000   1.0000   1.0000   1.0000   0.0000   0.0000   0.0000   0.0000

          k = 0.0312 0.0902 0.0000 (   797 PWs)   bands (ev):

   -21.5752  -9.4559  -5.2456  -5.0019   1.5977   2.7162   3.0132   5.0625

     occupation numbers 
     1.0000   1.0000   1.0000   1.0000   0.0000   0.0000   0.0000   0.0000

          k = 0.0312 0.1263 0.0000 (   795 PWs)   bands (ev):

   -21.4272  -9.2827  -5.7992  -5.2682   1.7884   2.9082   3.2072   5.2528

     occupation numbers 
     1.0000   1.0000   1.0000   1.0000   0.0000   0.0000   0.0000   0.0000

          k = 0.0312 0.1624 0.0000 (   791 PWs)   bands (ev):

   -21.2304  -9.0466  -6.4237  -5.5943   2.0425   3.1646   3.4659   5.5070

     occupation numbers 
     1.0000   1.0000   1.0000   1.0000   0.0000   0.0000   0.0000   0.0000

          k = 0.0312 0.1985 0.0000 (   790 PWs)   bands (ev):

   -21.0020  -8.7516  -7.1509  -5.9635   2.3580   3.4846   3.7886   5.8226

     occupation numbers 
     1.0000   1.0000   1.0000   1.0000   0.0000   0.0000   0.0000   0.0000

          k = 0.0312 0.2345 0.0000 (   788 PWs)   bands (ev):

   -20.7307  -8.4154  -7.9307  -6.3079   2.7366   3.8654   4.1760   6.1937

     occupation numbers 
     1.0000   1.0000   1.0000   1.0000   0.0000   0.0000   0.0000   0.0000

          k = 0.0312 0.2706 0.0000 (   772 PWs)   bands (ev):

   -20.3925  -8.6959  -8.0239  -6.6272   3.1802   4.3063   4.6283   6.5873

     occupation numbers 
     1.0000   1.0000   1.0000   1.0000   0.0000   0.0000   0.0000   0.0000

          k = 0.0312 0.3067 0.0000 (   772 PWs)   bands (ev):

   -20.0288  -9.5567  -7.5833  -6.9498   3.6844   4.7889   5.1445   5.8802

     occupation numbers 
     1.0000   1.0000   1.0000   1.0000   0.0000   0.0000   0.0000   0.0000

          k = 0.0312 0.3428 0.0000 (   771 PWs)   bands (ev):

   -19.6205 -10.4060  -7.2648  -7.0916   4.2506   4.7757   5.4923   5.7226

     occupation numbers 
     1.0000   1.0000   1.0000   1.0000   0.0000   0.0000   0.0000   0.0000

          k = 0.0312 0.3789 0.0000 (   775 PWs)   bands (ev):

   -19.1680 -11.3131  -7.5296  -6.5655   3.8309   4.8784   5.9387   6.0714

     occupation numbers 
     1.0000   1.0000   1.0000   1.0000   0.0000   0.0000   0.0000   0.0000

          k = 0.0312 0.4150 0.0000 (   777 PWs)   bands (ev):

   -18.6667 -12.1895  -7.7789  -6.0011   2.8909   5.5568   5.7908   6.7591

     occupation numbers 
     1.0000   1.0000   1.0000   1.0000   0.0000   0.0000   0.0000   0.0000

          k = 0.0312 0.4511 0.0000 (   782 PWs)   bands (ev):

   -18.1339 -13.0272  -7.9720  -5.4285   1.9722   5.6228   6.3307   7.5126

     occupation numbers 
     1.0000   1.0000   1.0000   1.0000   0.0000   0.0000   0.0000   0.0000

          k = 0.0312 0.4871 0.0000 (   788 PWs)   bands (ev):

   -17.5586 -13.8441  -8.1356  -4.8685   1.1457   5.5152   7.1391   8.3256

     occupation numbers 
     1.0000   1.0000   1.0000   1.0000   0.0000   0.0000   0.0000   0.0000

          k = 0.0312 0.5232 0.0000 (   786 PWs)   bands (ev):

   -16.9425 -14.6102  -8.2192  -4.3776   0.4934   5.4473   8.0095   9.1947

     occupation numbers 
     1.0000   1.0000   1.0000   1.0000   0.0000   0.0000   0.0000   0.0000

          k = 0.0312 0.5593 0.0000 (   784 PWs)   bands (ev):

   -16.4088 -15.2231  -8.2728  -4.0603   0.1165   5.4237   8.9307   9.9178

     occupation numbers 
     1.0000   1.0000   1.0000   1.0000   0.0000   0.0000   0.0000   0.0000

          k = 0.0625 0.1083 0.0000 (   803 PWs)   bands (ev):

   -21.4585  -9.3240  -5.7115  -5.2690   1.7563   2.8750   3.1747   5.2195

     occupation numbers 
     1.0000   1.0000   1.0000   1.0000   0.0000   0.0000   0.0000   0.0000

          k = 0.0625 0.1443 0.0000 (   787 PWs)   bands (ev):

   -21.2762  -9.1006  -6.2065  -5.5546   1.9792   3.1010   3.4013   5.4439

     occupation numbers 
     1.0000   1.0000   1.0000   1.0000   0.0000   0.0000   0.0000   0.0000

          k = 0.0625 0.1804 0.0000 (   784 PWs)   bands (ev):

   -21.0659  -8.8446  -6.8188  -5.9119   2.2641   3.3884   3.6919   5.7278

     occupation numbers 
     1.0000   1.0000   1.0000   1.0000   0.0000   0.0000   0.0000   0.0000

          k = 0.0625 0.2165 0.0000 (   782 PWs)   bands (ev):

   -20.8135  -8.5212  -7.5564  -6.3164   2.6112   3.7397   4.0471   6.0741

     occupation numbers 
     1.0000   1.0000   1.0000   1.0000   0.0000   0.0000   0.0000   0.0000

          k = 0.0625 0.2526 0.0000 (   784 PWs)   bands (ev):

   -20.5242  -8.3205  -8.1635  -6.6999   3.0209   4.1505   4.4668   6.4634

     occupation numbers 
     1.0000   1.0000   1.0000   1.0000   0.0000   0.0000   0.0000   0.0000

          k = 0.0625 0.2887 0.0000 (   778 PWs)   bands (ev):

   -20.1808  -9.1314  -7.7480  -7.0449   3.4940   4.6174   4.9508   6.2524

     occupation numbers 
     1.0000   1.0000   1.0000   1.0000   0.0000   0.0000   0.0000   0.0000

          k = 0.0625 0.3248 0.0000 (   776 PWs)   bands (ev):

   -19.7945  -9.9867  -7.3608  -7.2789   4.0294   5.0278   5.4506   5.4990

     occupation numbers 
     1.0000   1.0000   1.0000   1.0000   0.0000   0.0000   0.0000   0.0000

          k = 0.0625 0.3608 0.0000 (   775 PWs)   bands (ev):

   -19.3532 -10.8418  -7.6611  -6.7724   4.2778   4.6282   5.8175   6.1084

     occupation numbers 
     1.0000   1.0000   1.0000   1.0000   0.0000   0.0000   0.0000   0.0000

          k = 0.0625 0.3969 0.0000 (   781 PWs)   bands (ev):

   -18.8826 -11.7250  -7.9253  -6.2296   3.3145   5.2860   6.1968   6.4671

     occupation numbers 
     1.0000   1.0000   1.0000   1.0000   0.0000   0.0000   0.0000   0.0000

          k = 0.0625 0.4330 0.0000 (   775 PWs)   bands (ev):

   -18.3504 -12.5608  -8.1315  -5.6492   2.4194   5.9764   6.0939   7.1888

     occupation numbers 
     1.0000   1.0000   1.0000   1.0000   0.0000   0.0000   0.0000   0.0000

          k = 0.0625 0.4691 0.0000 (   775 PWs)   bands (ev):

   -17.7895 -13.3935  -8.2770  -5.0752   1.5583   5.9288   6.7975   7.9700

     occupation numbers 
     1.0000   1.0000   1.0000   1.0000   0.0000   0.0000   0.0000   0.0000

          k = 0.0625 0.5052 0.0000 (   781 PWs)   bands (ev):

   -17.1955 -14.1919  -8.4200  -4.5406   0.8001   5.8385   7.6361   8.8049

     occupation numbers 
     1.0000   1.0000   1.0000   1.0000   0.0000   0.0000   0.0000   0.0000

          k = 0.0625 0.5413 0.0000 (   786 PWs)   bands (ev):

   -16.6136 -14.8957  -8.5367  -4.1173   0.2535   5.7856   8.5308   9.6841

     occupation numbers 
     1.0000   1.0000   1.0000   1.0000   0.0000   0.0000   0.0000   0.0000

          k = 0.0625 0.5774 0.0000 (   782 PWs)   bands (ev):

   -16.2335 -15.3022  -8.5542  -3.9415   0.0495   5.7739   9.4175   9.5509

     occupation numbers 
     1.0000   1.0000   1.0000   1.0000   0.0000   0.0000   0.0000   0.0000

          k = 0.0938 0.1624 0.0000 (   797 PWs)   bands (ev):

   -21.0899  -8.8904  -6.7363  -6.0194   2.2330   3.3548   3.6599   5.6942

     occupation numbers 
     1.0000   1.0000   1.0000   1.0000   0.0000   0.0000   0.0000   0.0000

          k = 0.0938 0.1985 0.0000 (   795 PWs)   bands (ev):

   -20.8735  -8.6032  -7.3209  -6.4153   2.5474   3.6738   3.9823   6.0093

     occupation numbers 
     1.0000   1.0000   1.0000   1.0000   0.0000   0.0000   0.0000   0.0000

          k = 0.0938 0.2345 0.0000 (   788 PWs)   bands (ev):

   -20.6056  -8.2564  -7.9886  -6.8238   2.9254   4.0559   4.3696   6.3831

     occupation numbers 
     1.0000   1.0000   1.0000   1.0000   0.0000   0.0000   0.0000   0.0000

          k = 0.0938 0.2706 0.0000 (   781 PWs)   bands (ev):

   -20.2785  -8.7394  -7.8635  -7.2133   3.3679   4.4976   4.8219   6.5556

     occupation numbers 
     1.0000   1.0000   1.0000   1.0000   0.0000   0.0000   0.0000   0.0000

          k = 0.0938 0.3067 0.0000 (   782 PWs)   bands (ev):

   -19.9144  -9.5743  -7.5666  -7.4360   3.8726   4.9767   5.3385   5.6831

     occupation numbers 
     1.0000   1.0000   1.0000   1.0000   0.0000   0.0000   0.0000   0.0000

          k = 0.0938 0.3428 0.0000 (   782 PWs)   bands (ev):

   -19.5081 -10.4135  -7.8966  -6.9397   4.4388   4.6707   5.6207   5.9192

     occupation numbers 
     1.0000   1.0000   1.0000   1.0000   0.0000   0.0000   0.0000   0.0000

          k = 0.0938 0.3789 0.0000 (   778 PWs)   bands (ev):

   -19.0360 -11.2496  -8.1648  -6.4033   3.7245   5.0690   6.2355   6.5619

     occupation numbers 
     1.0000   1.0000   1.0000   1.0000   0.0000   0.0000   0.0000   0.0000

          k = 0.0938 0.4150 0.0000 (   785 PWs)   bands (ev):

   -18.5450 -12.1109  -8.4264  -5.8486   2.7840   5.7573   6.6675   6.9199

     occupation numbers 
     1.0000   1.0000   1.0000   1.0000   0.0000   0.0000   0.0000   0.0000

          k = 0.0938 0.4511 0.0000 (   783 PWs)   bands (ev):

   -18.0096 -12.9327  -8.6011  -5.2704   1.9145   6.4776   6.5742   7.6668

     occupation numbers 
     1.0000   1.0000   1.0000   1.0000   0.0000   0.0000   0.0000   0.0000

          k = 0.0938 0.4871 0.0000 (   777 PWs)   bands (ev):

   -17.4165 -13.7244  -8.7337  -4.6965   1.1302   6.4380   7.3240   8.4648

     occupation numbers 
     1.0000   1.0000   1.0000   1.0000   0.0000   0.0000   0.0000   0.0000

          k = 0.0938 0.5232 0.0000 (   775 PWs)   bands (ev):

   -16.8057 -14.4801  -8.8285  -4.1812   0.4619   6.3648   8.1914   9.3030

     occupation numbers 
     1.0000   1.0000   1.0000   1.0000   0.0000   0.0000   0.0000   0.0000

          k = 0.0938 0.5593 0.0000 (   775 PWs)   bands (ev):

   -16.2720 -15.0921  -8.8915  -3.8672   0.0764   6.3353   9.1072  10.0863

     occupation numbers 
     1.0000   1.0000   1.0000   1.0000   0.0000   0.0000   0.0000   0.0000

          k = 0.1250 0.2165 0.0000 (   785 PWs)   bands (ev):

   -20.6298  -8.2877  -7.8015  -6.8967   2.8939   4.0244   4.3375   6.3557

     occupation numbers 
     1.0000   1.0000   1.0000   1.0000   0.0000   0.0000   0.0000   0.0000

          k = 0.1250 0.2526 0.0000 (   783 PWs)   bands (ev):

   -20.3251  -8.4824  -7.9173  -7.3831   3.3048   4.4370   4.7574   6.7260

     occupation numbers 
     1.0000   1.0000   1.0000   1.0000   0.0000   0.0000   0.0000   0.0000

          k = 0.1250 0.2887 0.0000 (   791 PWs)   bands (ev):

   -19.9971  -9.2287  -7.8284  -7.5217   3.7769   4.9041   5.2415   5.8719

     occupation numbers 
     1.0000   1.0000   1.0000   1.0000   0.0000   0.0000   0.0000   0.0000

          k = 0.1250 0.3248 0.0000 (   786 PWs)   bands (ev):

   -19.6055  -9.9981  -8.1990  -7.0492   4.3128   4.9508   5.4774   5.7905

     occupation numbers 
     1.0000   1.0000   1.0000   1.0000   0.0000   0.0000   0.0000   0.0000

          k = 0.1250 0.3608 0.0000 (   780 PWs)   bands (ev):

   -19.1638 -10.8076  -8.5034  -6.5314   4.0728   4.9110   6.0599   6.4037

     occupation numbers 
     1.0000   1.0000   1.0000   1.0000   0.0000   0.0000   0.0000   0.0000

          k = 0.1250 0.3969 0.0000 (   782 PWs)   bands (ev):

   -18.6872 -11.6385  -8.7648  -5.9893   3.1583   5.5700   6.7136   7.0799

     occupation numbers 
     1.0000   1.0000   1.0000   1.0000   0.0000   0.0000   0.0000   0.0000

          k = 0.1250 0.4330 0.0000 (   777 PWs)   bands (ev):

   -18.1565 -12.4266  -8.9948  -5.4064   2.2733   6.2908   7.3290   7.4242

     occupation numbers 
     1.0000   1.0000   1.0000   1.0000   0.0000   0.0000   0.0000   0.0000

          k = 0.1250 0.4691 0.0000 (   779 PWs)   bands (ev):

   -17.6068 -13.2431  -9.1700  -4.8309   1.4517   7.0624   7.2185   8.1807

     occupation numbers 
     1.0000   1.0000   1.0000   1.0000   0.0000   0.0000   0.0000   0.0000

          k = 0.1250 0.5052 0.0000 (   776 PWs)   bands (ev):

   -17.0113 -14.0111  -9.2935  -4.2800   0.7374   7.1324   7.9092   8.9663

     occupation numbers 
     1.0000   1.0000   1.0000   1.0000   0.0000   0.0000   0.0000   0.0000

          k = 0.1250 0.5413 0.0000 (   774 PWs)   bands (ev):

   -16.4199 -14.7062  -9.3700  -3.8423   0.2070   7.0840   8.7984   9.7281

     occupation numbers 
     1.0000   1.0000   1.0000   1.0000   0.0000   0.0000   0.0000   0.0000

          k = 0.1250 0.5774 0.0000 (   776 PWs)   bands (ev):

   -16.0432 -15.1152  -9.4057  -3.6757  -0.0127   7.0610   9.6720   9.8110

     occupation numbers 
     1.0000   1.0000   1.0000   1.0000   0.0000   0.0000   0.0000   0.0000

          k = 0.1562 0.2706 0.0000 (   783 PWs)   bands (ev):

   -20.0051  -9.0554  -7.9195  -7.5362   3.7469   4.8787   5.2096   5.9673

     occupation numbers 
     1.0000   1.0000   1.0000   1.0000   0.0000   0.0000   0.0000   0.0000

          k = 0.1562 0.3067 0.0000 (   782 PWs)   bands (ev):

   -19.6492  -9.7106  -8.4045  -7.0917   4.2501   5.1349   5.3901   5.7261

     occupation numbers 
     1.0000   1.0000   1.0000   1.0000   0.0000   0.0000   0.0000   0.0000

          k = 0.1562 0.3428 0.0000 (   780 PWs)   bands (ev):

   -19.2366 -10.4312  -8.8173  -6.6067   4.3109   4.8165   5.9494   6.3072

     occupation numbers 
     1.0000   1.0000   1.0000   1.0000   0.0000   0.0000   0.0000   0.0000

          k = 0.1562 0.3789 0.0000 (   778 PWs)   bands (ev):

   -18.7692 -11.2037  -9.1404  -6.0829   3.4475   5.4458   6.5691   6.9532

     occupation numbers 
     1.0000   1.0000   1.0000   1.0000   0.0000   0.0000   0.0000   0.0000

          k = 0.1562 0.4150 0.0000 (   781 PWs)   bands (ev):

   -18.2840 -11.9827  -9.4072  -5.5298   2.5827   6.1330   7.2405   7.6616

     occupation numbers 
     1.0000   1.0000   1.0000   1.0000   0.0000   0.0000   0.0000   0.0000

          k = 0.1562 0.4511 0.0000 (   780 PWs)   bands (ev):

   -17.7487 -12.7359  -9.6453  -4.9415   1.7508   6.8809   7.9521   8.1197

     occupation numbers 
     1.0000   1.0000   1.0000   1.0000   0.0000   0.0000   0.0000   0.0000

          k = 0.1562 0.4871 0.0000 (   778 PWs)   bands (ev):

   -17.1622 -13.5216  -9.8033  -4.3584   0.9933   7.6881   8.0219   8.6790

     occupation numbers 
     1.0000   1.0000   1.0000   1.0000   0.0000   0.0000   0.0000   0.0000

          k = 0.1562 0.5232 0.0000 (   776 PWs)   bands (ev):

   -16.5598 -14.2547  -9.9061  -3.8544   0.3752   7.9627   8.5512   9.3429

     occupation numbers 
     1.0000   1.0000   1.0000   1.0000   0.0000   0.0000   0.0000   0.0000

          k = 0.1562 0.5593 0.0000 (   780 PWs)   bands (ev):

   -16.0410 -14.8579  -9.9505  -3.5448  -0.0190   7.9180   9.4546   9.7693

     occupation numbers 
     1.0000   1.0000   1.0000   1.0000   0.0000   0.0000   0.0000   0.0000

          k = 0.1875 0.3248 0.0000 (   771 PWs)   bands (ev):

   -19.2482 -10.2181  -8.9509  -6.6289   4.4063   4.7864   5.9105   6.2754

     occupation numbers 
     1.0000   1.0000   1.0000   1.0000   0.0000   0.0000   0.0000   0.0000

          k = 0.1875 0.3608 0.0000 (   779 PWs)   bands (ev):

   -18.8268 -10.8720  -9.4568  -6.1317   3.6123   5.3817   6.4936   6.8883

     occupation numbers 
     1.0000   1.0000   1.0000   1.0000   0.0000   0.0000   0.0000   0.0000

          k = 0.1875 0.3969 0.0000 (   783 PWs)   bands (ev):

   -18.3545 -11.5805  -9.8211  -5.5954   2.7969   6.0388   7.1248   7.5655

     occupation numbers 
     1.0000   1.0000   1.0000   1.0000   0.0000   0.0000   0.0000   0.0000

          k = 0.1875 0.4330 0.0000 (   783 PWs)   bands (ev):

   -17.8291 -12.2878 -10.1256  -5.0265   1.9966   6.7570   7.7888   8.3069

     occupation numbers 
     1.0000   1.0000   1.0000   1.0000   0.0000   0.0000   0.0000   0.0000

          k = 0.1875 0.4691 0.0000 (   782 PWs)   bands (ev):

   -17.2879 -13.0262 -10.3298  -4.4300   1.2274   7.5307   8.4483   9.0103

     occupation numbers 
     1.0000   1.0000   1.0000   1.0000   0.0000   0.0000   0.0000   0.0000

          k = 0.1875 0.5052 0.0000 (   782 PWs)   bands (ev):

   -16.6944 -13.7694 -10.4767  -3.8749   0.5444   8.3614   8.9251   9.0023

     occupation numbers 
     1.0000   1.0000   1.0000   1.0000   0.0000   0.0000   0.0000   0.0000

          k = 0.1875 0.5413 0.0000 (   780 PWs)   bands (ev):

   -16.1180 -14.4253 -10.5578  -3.4354   0.0360   8.8740   9.2389   9.3172

     occupation numbers 
     1.0000   1.0000   1.0000   1.0000   0.0000   0.0000   0.0000   0.0000

          k = 0.1875 0.5774 0.0000 (   780 PWs)   bands (ev):

   -15.7495 -14.8264 -10.5864  -3.2569  -0.1717   8.8659   9.4069  10.0857

     occupation numbers 
     1.0000   1.0000   1.0000   1.0000   0.0000   0.0000   0.0000   0.0000

          k = 0.2188 0.3789 0.0000 (   775 PWs)   bands (ev):

   -18.3594 -11.3815 -10.0136  -5.6096   2.9143   6.0093   7.0862   7.5339

     occupation numbers 
     1.0000   1.0000   1.0000   1.0000   0.0000   0.0000   0.0000   0.0000

          k = 0.2188 0.4150 0.0000 (   787 PWs)   bands (ev):

   -17.8874 -11.9758 -10.4732  -5.0667   2.1335   6.6926   7.7023   8.2424

     occupation numbers 
     1.0000   1.0000   1.0000   1.0000   0.0000   0.0000   0.0000   0.0000

          k = 0.2188 0.4511 0.0000 (   783 PWs)   bands (ev):

   -17.3437 -12.5995 -10.7827  -4.4809   1.3983   7.4380   8.2928   9.0153

     occupation numbers 
     1.0000   1.0000   1.0000   1.0000   0.0000   0.0000   0.0000   0.0000

          k = 0.2188 0.4871 0.0000 (   778 PWs)   bands (ev):

   -16.7774 -13.2736 -10.9803  -3.8930   0.7141   8.2365   8.7354   9.8492

     occupation numbers 
     1.0000   1.0000   1.0000   1.0000   0.0000   0.0000   0.0000   0.0000

          k = 0.2188 0.5232 0.0000 (   776 PWs)   bands (ev):

   -16.1807 -13.9639 -11.1152  -3.3636   0.1247   8.9326   9.0858   9.9061

     occupation numbers 
     1.0000   1.0000   1.0000   1.0000   0.0000   0.0000   0.0000   0.0000

          k = 0.2188 0.5593 0.0000 (   778 PWs)   bands (ev):

   -15.6603 -14.5345 -11.1959  -3.0050  -0.2723   8.9776   9.8628   9.9664

     occupation numbers 
     1.0000   1.0000   1.0000   1.0000   0.0000   0.0000   0.0000   0.0000

          k = 0.2500 0.4330 0.0000 (   781 PWs)   bands (ev):

   -17.3665 -12.4018 -10.9941  -4.4898   1.4799   7.4065   8.2387   8.9830

     occupation numbers 
     1.0000   1.0000   1.0000   1.0000   0.0000   0.0000   0.0000   0.0000

          k = 0.2500 0.4691 0.0000 (   779 PWs)   bands (ev):

   -16.8202 -12.9214 -11.3637  -3.9127   0.8192   8.1737   8.5852   9.7864

     occupation numbers 
     1.0000   1.0000   1.0000   1.0000   0.0000   0.0000   0.0000   0.0000

          k = 0.2500 0.5052 0.0000 (   776 PWs)   bands (ev):

   -16.2474 -13.5135 -11.6054  -3.3330   0.1943   8.6702   8.9900  10.6505

     occupation numbers 
     1.0000   1.0000   1.0000   1.0000   0.0000   0.0000   0.0000   0.0000

          k = 0.2500 0.5413 0.0000 (   780 PWs)   bands (ev):

   -15.6842 -14.1138 -11.7487  -2.8541  -0.3369   8.6381   9.8421  10.8359

     occupation numbers 
     1.0000   1.0000   1.0000   1.0000   0.0000   0.0000   0.0000   0.0000

          k = 0.2500 0.5774 0.0000 (   776 PWs)   bands (ev):

   -15.3198 -14.4818 -11.7999  -2.6053  -0.5578   8.6173  10.6359  10.7941

     occupation numbers 
     1.0000   1.0000   1.0000   1.0000   0.0000   0.0000   0.0000   0.0000

          k = 0.2812 0.4871 0.0000 (   777 PWs)   bands (ev):

   -16.2696 -13.3073 -11.8331  -3.3138   0.2122   8.5775   8.9588  10.6190

     occupation numbers 
     1.0000   1.0000   1.0000   1.0000   0.0000   0.0000   0.0000   0.0000

          k = 0.2812 0.5232 0.0000 (   778 PWs)   bands (ev):

   -15.6937 -13.7775 -12.1532  -2.7531  -0.3649   8.4549   9.7830  11.5052

     occupation numbers 
     1.0000   1.0000   1.0000   1.0000   0.0000   0.0000   0.0000   0.0000

          k = 0.2812 0.5593 0.0000 (   770 PWs)   bands (ev):

   -15.1704 -14.2436 -12.2759  -2.3002  -0.7841   8.3687  10.6166  11.4082

     occupation numbers 
     1.0000   1.0000   1.0000   1.0000   0.0000   0.0000   0.0000   0.0000

          k = 0.3125 0.5413 0.0000 (   765 PWs)   bands (ev):

   -15.1340 -14.0698 -12.4760  -2.1745  -0.8853   8.2826  10.5904  11.7809

     occupation numbers 
     1.0000   1.0000   1.0000   1.0002   0.0000   0.0000   0.0000   0.0000

          k = 0.3125 0.5774 0.0000 (   771 PWs)   bands (ev):

   -14.7735 -14.3876 -12.6152  -1.8335  -1.2429   8.2182  11.2617  11.3986

     occupation numbers 
     1.0000   1.0000   1.0000   0.9998   0.0000   0.0000   0.0000   0.0000

     the Fermi energy is    -1.7083 ev

!    total energy              =     -22.15252403 Ry
     estimated scf accuracy    <       0.00000036 Ry
     smearing contrib. (-TS)   =       0.00000962 Ry
     internal energy E=F+TS    =     -22.15253365 Ry

     The total energy is F=E-TS. E is the sum of the following terms:
     one-electron contribution =    -153.93656208 Ry
     hartree contribution      =      78.21329153 Ry
     xc contribution           =      -6.87199919 Ry
     ewald contribution        =      60.44273608 Ry

     convergence has been achieved in   4 iterations

     Forces acting on atoms (cartesian axes, Ry/au):

     atom    1 type  1   force =     0.00000000    0.00000000    0.00000000
     atom    2 type  1   force =     0.00000000    0.00000000    0.00000000
     The non-local contrib.  to forces
     atom    1 type  1   force =     0.00000000   -0.00000000    0.00000000
     atom    2 type  1   force =     0.00000000    0.00000000    0.00000000
     The ionic contribution  to forces
     atom    1 type  1   force =    -0.00000001    0.00000000   -0.00000000
     atom    2 type  1   force =     0.00000001   -0.00000000   -0.00000000
     The local contribution  to forces
     atom    1 type  1   force =     0.00000000   -0.00000000    0.00000000
     atom    2 type  1   force =    -0.00000000    0.00000000    0.00000000
     The core correction contribution to forces
     atom    1 type  1   force =     0.00000000    0.00000000    0.00000000
     atom    2 type  1   force =     0.00000000    0.00000000    0.00000000
     The Hubbard contrib.    to forces
     atom    1 type  1   force =     0.00000000    0.00000000    0.00000000
     atom    2 type  1   force =     0.00000000    0.00000000    0.00000000
     The SCF correction term to forces
     atom    1 type  1   force =     0.00000000   -0.00000000   -0.00000000
     atom    2 type  1   force =    -0.00000000    0.00000000   -0.00000000

     Total force =     0.000000     Total SCF correction =     0.000000


     Computing stress (Cartesian axis) and pressure

          total   stress  (Ry/bohr**3)                   (kbar)     P=     -163.28
  -0.00087785  -0.00000000   0.00000000         -129.14       -0.00        0.00
  -0.00000000  -0.00087785   0.00000000           -0.00     -129.14        0.00
   0.00000000   0.00000000  -0.00157415            0.00        0.00     -231.57

     kinetic stress (kbar)   2741.33      0.00      0.00
                                0.00   2741.33      0.00
                                0.00      0.00   3007.61

     local   stress (kbar) -48025.48      0.00      0.00
                                0.00 -48025.48     -0.00
                                0.00     -0.00  46863.35

     nonloc. stress (kbar)    885.46     -0.00      0.00
                               -0.00    885.46      0.00
                                0.00      0.00    816.43

     hartree stress (kbar)  22036.56     -0.00     -0.00
                               -0.00  22036.56     -0.00
                               -0.00     -0.00 -21836.08

     exc-cor stress (kbar)   -600.52      0.00      0.00
                                0.00   -600.52      0.00
                                0.00      0.00   -600.52

     corecor stress (kbar)      0.00      0.00      0.00
                                0.00      0.00      0.00
                                0.00      0.00      0.00

     ewald   stress (kbar)  22833.51     -0.00     -0.00
                               -0.00  22833.51     -0.00
                               -0.00     -0.00 -28482.36

     hubbard stress (kbar)      0.00      0.00      0.00
                                0.00      0.00      0.00
                                0.00      0.00      0.00

     DFT-D   stress (kbar)      0.00      0.00      0.00
                                0.00      0.00      0.00
                                0.00      0.00      0.00

     XDM     stress (kbar)      0.00      0.00      0.00
                                0.00      0.00      0.00
                                0.00      0.00      0.00

     dft-nl  stress (kbar)      0.00      0.00      0.00
                                0.00      0.00      0.00
                                0.00      0.00      0.00

     TS-vdW  stress (kbar)      0.00      0.00      0.00
                                0.00      0.00      0.00
                                0.00      0.00      0.00



     Writing output data file ./tmp/graphene.save/

     init_run     :      0.50s CPU      0.21s WALL (       1 calls)
     electrons    :      6.46s CPU      2.77s WALL (       1 calls)
     forces       :      0.02s CPU      0.01s WALL (       1 calls)
     stress       :      0.06s CPU      0.03s WALL (       1 calls)

     Called by init_run:
     wfcinit      :      0.48s CPU      0.19s WALL (       1 calls)
     wfcinit:atom :      0.03s CPU      0.01s WALL (     102 calls)
     wfcinit:wfcr :      0.36s CPU      0.15s WALL (     102 calls)
     potinit      :      0.00s CPU      0.00s WALL (       1 calls)
     hinit0       :      0.00s CPU      0.00s WALL (       1 calls)

     Called by electrons:
     c_bands      :      5.57s CPU      2.41s WALL (       4 calls)
     sum_band     :      0.88s CPU      0.35s WALL (       4 calls)
     v_of_rho     :      0.01s CPU      0.01s WALL (       5 calls)
     v_h          :      0.00s CPU      0.00s WALL (       5 calls)
     v_xc         :      0.00s CPU      0.00s WALL (       5 calls)
     mix_rho      :      0.01s CPU      0.00s WALL (       4 calls)

     Called by c_bands:
     init_us_2    :      0.07s CPU      0.03s WALL (    1122 calls)
     cegterg      :      5.50s CPU      2.38s WALL (     408 calls)

     Called by sum_band:
     sum_band:wei :      0.01s CPU      0.00s WALL (       4 calls)
     sum_band:loo :      0.86s CPU      0.34s WALL (       4 calls)
     sum_band:buf :      0.02s CPU      0.01s WALL (     408 calls)
     sum_band:ini :      0.03s CPU      0.01s WALL (     408 calls)

     Called by *egterg:
     cdiaghg      :      0.45s CPU      0.18s WALL (    2654 calls)
     cegterg:over :      0.38s CPU      0.20s WALL (    2246 calls)
     cegterg:upda :      0.24s CPU      0.11s WALL (    2246 calls)
     cegterg:last :      0.26s CPU      0.14s WALL (    1131 calls)
     h_psi        :      4.26s CPU      1.77s WALL (    2756 calls)
     g_psi        :      0.08s CPU      0.03s WALL (    2246 calls)

     Called by h_psi:
     h_psi:calbec :      0.06s CPU      0.02s WALL (    2756 calls)
     vloc_psi     :      4.11s CPU      1.71s WALL (    2756 calls)
     add_vuspsi   :      0.03s CPU      0.01s WALL (    2756 calls)

     General routines
     calbec       :      0.06s CPU      0.03s WALL (    3266 calls)
     fft          :      0.01s CPU      0.00s WALL (      19 calls)
     ffts         :      0.00s CPU      0.00s WALL (       4 calls)
     fftw         :      3.34s CPU      1.38s WALL (   25946 calls)

     Parallel routines

     PWSCF        :      7.06s CPU      3.06s WALL


   This run was terminated on:  17:16:57  18Jan2024            

=------------------------------------------------------------------------------=
   JOB DONE.
=------------------------------------------------------------------------------=
