
     Program BANDS v.7.2 starts on  5Apr2024 at 20:20:33 

     This program is part of the open-source Quantum ESPRESSO suite
     for quantum simulation of materials; please cite
         "P. Giannozzi et al., J. Phys.:Condens. Matter 21 395502 (2009);
         "P. Giannozzi et al., J. Phys.:Condens. Matter 29 465901 (2017);
         "P. Giannozzi et al., J. Chem. Phys. 152 154105 (2020);
          URL http://www.quantum-espresso.org", 
     in publications or presentations arising from this work. More details at
     http://www.quantum-espresso.org/quote

     Parallel version (MPI & OpenMP), running on       8 processor cores
     Number of MPI processes:                 8
     Threads/MPI process:                     1

     MPI processes distributed on     1 nodes
     R & G space division:  proc/nbgrp/npool/nimage =       8
     0 MiB available memory on the printing compute node when the environment starts


     Reading xml data from directory:

     ./tmp/hBN_1l_PBE.save/

     IMPORTANT: XC functional enforced from input :
     Exchange-correlation= PBE
                           (   1   4   3   4   0   0   0)
     Any further DFT definition will be discarded
     Please, verify this is what you really want


     Parallelization info
     --------------------
     sticks:   dense  smooth     PW     G-vecs:    dense   smooth      PW
     Min          45      45     15                 4333     4333     755
     Max          46      46     16                 4356     4356     767
     Sum         367     367    121                34803    34803    6103

     Using Slab Decomposition

     Reading collected, re-writing distributed wavefunctions
     high-symmetry point:  0.0000 0.0000 0.0000   x coordinate   0.0000
     high-symmetry point: -0.3333 0.5774 0.0000   x coordinate   0.6667
     high-symmetry point:  0.0000 0.5774 0.0000   x coordinate   1.0000
     high-symmetry point:  0.0000 0.0000 0.0000   x coordinate   1.5773

     Plottable bands (eV) written to file Bande_hBN_1l_PBE.dat.gnu
     Bands written to file Bande_hBN_1l_PBE.dat

 **************************************************************************

                    xk=(   0.00000,   0.00000,   0.00000  )

     point group D_3h (-62m)
     there are  6 classes
     the character table:

       E     2C3   3C2   s_h   2S3   3s_v 
A'_1   1.00  1.00  1.00  1.00  1.00  1.00
A'_2   1.00  1.00 -1.00  1.00  1.00 -1.00
E'     2.00 -1.00  0.00  2.00 -1.00  0.00
A''1   1.00  1.00  1.00 -1.00 -1.00 -1.00
A''2   1.00  1.00 -1.00 -1.00 -1.00  1.00
E''    2.00 -1.00  0.00 -2.00  1.00  0.00

     the symmetry operations in each class and the name of the first element:

     E        1
                                                                 
     2C3      3    4
                                                                 
     3C2      2    6    5
                                                                 
     s_h      7
                                                                 
     2S3      9   10
                                                                 
     3s_v     8   11   12
                                                                 

     Band symmetry, D_3h (-62m) point group:

     e(  1 -  1) =    -21.06128  eV     1   --> A'_1           
     e(  2 -  2) =     -8.69583  eV     1   --> A''2           
     e(  3 -  4) =     -4.77034  eV     2   --> E'             
     e(  5 -  5) =      1.17851  eV     1   --> A'_1           
     e(  6 -  6) =      2.18173  eV     1   --> A''2           
     e(  7 -  7) =      2.61744  eV     1   --> A'_1           
     e(  8 -  8) =      4.45331  eV     1   -->   ?

 **************************************************************************

 **************************************************************************

                    xk=(  -0.01587,   0.02749,   0.00000  )

     point group C_s (m)    
     there are  2 classes
     the character table:

       E     s    
A'     1.00  1.00
A''    1.00 -1.00

     the symmetry operations in each class and the name of the first element:

     E        1
                                                                 
     s        2
                                                                 

     Band symmetry, C_s (m)     point group:

     e(  1 -  1) =    -21.04692  eV     1   --> A'             
     e(  2 -  2) =     -8.67688  eV     1   --> A''            
     e(  3 -  3) =     -4.83499  eV     1   --> A'             
     e(  4 -  4) =     -4.80093  eV     1   --> A'             
     e(  5 -  5) =      1.20375  eV     1   --> A'             
     e(  6 -  6) =      2.20442  eV     1   --> A''            
     e(  7 -  7) =      2.64180  eV     1   --> A'             
     e(  8 -  8) =      4.47457  eV     1   --> A''            

 **************************************************************************

 **************************************************************************

                    xk=(  -0.03174,   0.05499,   0.00000  )

     Band symmetry, C_s (m)     point group:

     e(  1 -  1) =    -21.00330  eV     1   --> A'             
     e(  2 -  2) =     -8.61833  eV     1   --> A''            
     e(  3 -  3) =     -5.02062  eV     1   --> A'             
     e(  4 -  4) =     -4.88965  eV     1   --> A'             
     e(  5 -  5) =      1.27903  eV     1   --> A'             
     e(  6 -  6) =      2.27270  eV     1   --> A''            
     e(  7 -  7) =      2.71474  eV     1   --> A'             
     e(  8 -  8) =      4.53900  eV     1   -->   ?

 **************************************************************************

 **************************************************************************

                    xk=(  -0.04761,   0.08248,   0.00000  )

     Band symmetry, C_s (m)     point group:

     e(  1 -  1) =    -20.93081  eV     1   --> A'             
     e(  2 -  2) =     -8.52080  eV     1   --> A''            
     e(  3 -  3) =     -5.31219  eV     1   --> A'             
     e(  4 -  4) =     -5.03467  eV     1   --> A'             
     e(  5 -  5) =      1.40296  eV     1   --> A'             
     e(  6 -  6) =      2.38620  eV     1   --> A''            
     e(  7 -  7) =      2.83591  eV     1   --> A'             
     e(  8 -  8) =      4.64463  eV     1   -->   ?

 **************************************************************************

 **************************************************************************

                    xk=(  -0.06349,   0.10998,   0.00000  )

     Band symmetry, C_s (m)     point group:

     e(  1 -  1) =    -20.82991  eV     1   --> A'             
     e(  2 -  2) =     -8.38484  eV     1   --> A''            
     e(  3 -  3) =     -5.69056  eV     1   --> A'             
     e(  4 -  4) =     -5.23212  eV     1   --> A'             
     e(  5 -  5) =      1.57415  eV     1   --> A'             
     e(  6 -  6) =      2.54428  eV     1   --> A''            
     e(  7 -  7) =      3.00491  eV     1   --> A'             
     e(  8 -  8) =      4.79026  eV     1   -->   ?

 **************************************************************************

 **************************************************************************

                    xk=(  -0.07936,   0.13747,   0.00000  )

     Band symmetry, C_s (m)     point group:

     e(  1 -  1) =    -20.70124  eV     1   --> A'             
     e(  2 -  2) =     -8.21138  eV     1   --> A''            
     e(  3 -  3) =     -6.13310  eV     1   --> A'             
     e(  4 -  4) =     -5.47647  eV     1   --> A'             
     e(  5 -  5) =      1.79147  eV     1   --> A'             
     e(  6 -  6) =      2.74573  eV     1   --> A''            
     e(  7 -  7) =      3.22142  eV     1   --> A'             
     e(  8 -  8) =      4.97079  eV     1   -->   ?

 **************************************************************************

 **************************************************************************

                    xk=(  -0.09523,   0.16496,   0.00000  )

     Band symmetry, C_s (m)     point group:

     e(  1 -  1) =    -20.54564  eV     1   --> A'             
     e(  2 -  2) =     -8.00114  eV     1   --> A''            
     e(  3 -  3) =     -6.61968  eV     1   --> A'             
     e(  4 -  4) =     -5.76170  eV     1   --> A'             
     e(  5 -  5) =      2.05427  eV     1   --> A'             
     e(  6 -  6) =      2.98848  eV     1   --> A''            
     e(  7 -  7) =      3.48522  eV     1   --> A'             
     e(  8 -  8) =      5.17729  eV     1   --> A''            

 **************************************************************************

 **************************************************************************

                    xk=(  -0.11110,   0.19246,   0.00000  )

     Band symmetry, C_s (m)     point group:

     e(  1 -  1) =    -20.36419  eV     1   --> A'             
     e(  2 -  2) =     -7.75541  eV     1   --> A''            
     e(  3 -  3) =     -7.13319  eV     1   --> A'             
     e(  4 -  4) =     -6.08071  eV     1   --> A'             
     e(  5 -  5) =      2.36223  eV     1   --> A'             
     e(  6 -  6) =      3.26834  eV     1   --> A''            
     e(  7 -  7) =      3.79623  eV     1   --> A'             
     e(  8 -  8) =      5.38912  eV     1   --> A''            

 **************************************************************************

 **************************************************************************

                    xk=(  -0.12697,   0.21995,   0.00000  )

     Band symmetry, C_s (m)     point group:

     e(  1 -  1) =    -20.15845  eV     1   --> A'             
     e(  2 -  2) =     -7.65967  eV     1   --> A'             
     e(  3 -  3) =     -7.47592  eV     1   --> A''            
     e(  4 -  4) =     -6.42660  eV     1   --> A'             
     e(  5 -  5) =      2.71514  eV     1   --> A'             
     e(  6 -  6) =      3.57587  eV     1   --> A''            
     e(  7 -  7) =      4.15436  eV     1   --> A'             
     e(  8 -  8) =      5.55525  eV     1   --> A''            

 **************************************************************************

 **************************************************************************

                    xk=(  -0.14284,   0.24744,   0.00000  )

     Band symmetry, C_s (m)     point group:

     e(  1 -  1) =    -19.93022  eV     1   --> A'             
     e(  2 -  2) =     -8.18620  eV     1   --> A'             
     e(  3 -  3) =     -7.16449  eV     1   --> A''            
     e(  4 -  4) =     -6.79191  eV     1   --> A'             
     e(  5 -  5) =      3.11284  eV     1   --> A'             
     e(  6 -  6) =      3.88653  eV     1   --> A''            
     e(  7 -  7) =      4.55957  eV     1   --> A'             
     e(  8 -  8) =      5.59005  eV     1   --> A''            

 **************************************************************************

 **************************************************************************

                    xk=(  -0.15871,   0.27494,   0.00000  )

     Band symmetry, C_s (m)     point group:

     e(  1 -  1) =    -19.68211  eV     1   --> A'             
     e(  2 -  2) =     -8.70364  eV     1   --> A'             
     e(  3 -  3) =     -7.17032  eV     1   --> A'             
     e(  4 -  4) =     -6.82402  eV     1   --> A''            
     e(  5 -  5) =      3.55509  eV     1   --> A'             
     e(  6 -  6) =      4.12558  eV     1   --> A''            
     e(  7 -  7) =      5.01180  eV     1   --> A'             
     e(  8 -  8) =      5.51187  eV     1   --> A''            

 **************************************************************************

 **************************************************************************

                    xk=(  -0.17459,   0.30243,   0.00000  )

     Band symmetry, C_s (m)     point group:

     e(  1 -  1) =    -19.41720  eV     1   --> A'             
     e(  2 -  2) =     -9.20161  eV     1   --> A'             
     e(  3 -  3) =     -7.55524  eV     1   --> A'             
     e(  4 -  4) =     -6.45800  eV     1   --> A''            
     e(  5 -  5) =      4.04149  eV     1   --> A'             
     e(  6 -  6) =      4.12677  eV     1   --> A''            
     e(  7 -  7) =      5.51090  eV     1   --> A'             
     e(  8 -  8) =      5.56779  eV     1   --> A''            

 **************************************************************************

 **************************************************************************

                    xk=(  -0.19046,   0.32993,   0.00000  )

     Band symmetry, C_s (m)     point group:

     e(  1 -  1) =    -19.13966  eV     1   --> A'             
     e(  2 -  2) =     -9.67280  eV     1   --> A'             
     e(  3 -  3) =     -7.94133  eV     1   --> A'             
     e(  4 -  4) =     -6.07126  eV     1   --> A''            
     e(  5 -  5) =      3.84402  eV     1   --> A''            
     e(  6 -  6) =      4.57144  eV     1   --> A'             
     e(  7 -  7) =      5.88804  eV     1   --> A''            
     e(  8 -  8) =      6.05673  eV     1   --> A'             

 **************************************************************************

 **************************************************************************

                    xk=(  -0.20633,   0.35742,   0.00000  )

     Band symmetry, C_s (m)     point group:

     e(  1 -  1) =    -18.85502  eV     1   --> A'             
     e(  2 -  2) =    -10.10752  eV     1   --> A'             
     e(  3 -  3) =     -8.32376  eV     1   --> A'             
     e(  4 -  4) =     -5.66962  eV     1   --> A''            
     e(  5 -  5) =      3.42762  eV     1   --> A''            
     e(  6 -  6) =      5.14383  eV     1   --> A'             
     e(  7 -  7) =      6.36511  eV     1   --> A''            
     e(  8 -  8) =      6.64884  eV     1   --> A'             

 **************************************************************************

 **************************************************************************

                    xk=(  -0.22220,   0.38491,   0.00000  )

     Band symmetry, C_s (m)     point group:

     e(  1 -  1) =    -18.57006  eV     1   --> A'             
     e(  2 -  2) =    -10.49760  eV     1   --> A'             
     e(  3 -  3) =     -8.69811  eV     1   --> A'             
     e(  4 -  4) =     -5.26111  eV     1   --> A''            
     e(  5 -  5) =      2.97633  eV     1   --> A''            
     e(  6 -  6) =      5.75723  eV     1   --> A'             
     e(  7 -  7) =      6.92082  eV     1   --> A''            
     e(  8 -  8) =      7.28682  eV     1   --> A'             

 **************************************************************************

 **************************************************************************

                    xk=(  -0.23807,   0.41241,   0.00000  )

     Band symmetry, C_s (m)     point group:

     e(  1 -  1) =    -18.29377  eV     1   --> A'             
     e(  2 -  2) =    -10.83246  eV     1   --> A'             
     e(  3 -  3) =     -9.06080  eV     1   --> A'             
     e(  4 -  4) =     -4.85690  eV     1   --> A''            
     e(  5 -  5) =      2.53423  eV     1   --> A''            
     e(  6 -  6) =      6.40882  eV     1   --> A'             
     e(  7 -  7) =      7.51716  eV     1   --> A''            
     e(  8 -  8) =      7.96953  eV     1   --> A'             

 **************************************************************************

 **************************************************************************

                    xk=(  -0.25394,   0.43990,   0.00000  )

     Band symmetry, C_s (m)     point group:

     e(  1 -  1) =    -18.03651  eV     1   --> A'             
     e(  2 -  2) =    -11.10176  eV     1   --> A'             
     e(  3 -  3) =     -9.40786  eV     1   --> A'             
     e(  4 -  4) =     -4.47038  eV     1   --> A''            
     e(  5 -  5) =      2.12745  eV     1   --> A''            
     e(  6 -  6) =      7.09402  eV     1   --> A'             
     e(  7 -  7) =      8.11371  eV     1   --> A''            
     e(  8 -  8) =      8.69446  eV     1   --> A'             

 **************************************************************************

 **************************************************************************

                    xk=(  -0.26981,   0.46739,   0.00000  )

     Band symmetry, C_s (m)     point group:

     e(  1 -  1) =    -17.81021  eV     1   --> A'             
     e(  2 -  2) =    -11.29438  eV     1   --> A'             
     e(  3 -  3) =     -9.73557  eV     1   --> A'             
     e(  4 -  4) =     -4.11935  eV     1   --> A''            
     e(  5 -  5) =      1.77523  eV     1   --> A''            
     e(  6 -  6) =      7.80391  eV     1   --> A'             
     e(  7 -  7) =      8.62389  eV     1   --> A''            
     e(  8 -  8) =      9.45454  eV     1   --> A'             

 **************************************************************************

 **************************************************************************

                    xk=(  -0.28569,   0.49489,   0.00000  )

     Band symmetry, C_s (m)     point group:

     e(  1 -  1) =    -17.62649  eV     1   --> A'             
     e(  2 -  2) =    -11.40225  eV     1   --> A'             
     e(  3 -  3) =    -10.03911  eV     1   --> A'             
     e(  4 -  4) =     -3.82403  eV     1   --> A''            
     e(  5 -  5) =      1.49502  eV     1   --> A''            
     e(  6 -  6) =      8.51892  eV     1   --> A'             
     e(  7 -  7) =      8.89870  eV     1   --> A''            
     e(  8 -  8) =     10.21011  eV     1   --> A'             

 **************************************************************************

 **************************************************************************

                    xk=(  -0.30156,   0.52238,   0.00000  )

     Band symmetry, C_s (m)     point group:

     e(  1 -  1) =    -17.49427  eV     1   --> A'             
     e(  2 -  2) =    -11.42479  eV     1   --> A'             
     e(  3 -  3) =    -10.30930  eV     1   --> A'             
     e(  4 -  4) =     -3.60421  eV     1   --> A''            
     e(  5 -  5) =      1.29942  eV     1   --> A''            
     e(  6 -  6) =      8.92915  eV     1   --> A''            
     e(  7 -  7) =      9.18864  eV     1   --> A'             
     e(  8 -  8) =     10.66869  eV     1   --> A'             

 **************************************************************************

 **************************************************************************

                    xk=(  -0.31743,   0.54988,   0.00000  )

     Band symmetry, C_s (m)     point group:

     e(  1 -  1) =    -17.41774  eV     1   --> A'             
     e(  2 -  2) =    -11.38233  eV     1   --> A'             
     e(  3 -  3) =    -10.52415  eV     1   --> A'             
     e(  4 -  4) =     -3.47394  eV     1   --> A''            
     e(  5 -  5) =      1.19119  eV     1   --> A''            
     e(  6 -  6) =      8.87606  eV     1   --> A''            
     e(  7 -  7) =      9.67894  eV     1   --> A'             
     e(  8 -  8) =     10.88564  eV     1   --> A'             

 **************************************************************************

 **************************************************************************

                    xk=(  -0.33330,   0.57737,   0.00000  )

     Band symmetry, C_s (m)     point group:

     e(  1 -  1) =    -17.39363  eV     1   --> A'             
     e(  2 -  2) =    -11.34224  eV     1   --> A'             
     e(  3 -  3) =    -10.61894  eV     1   --> A'             
     e(  4 -  4) =     -3.43171  eV     1   --> A''            
     e(  5 -  5) =      1.16035  eV     1   --> A''            
     e(  6 -  6) =      8.84656  eV     1   --> A''            
     e(  7 -  7) =      9.83514  eV     1   --> A'             
     e(  8 -  8) =     11.08433  eV     1   --> A'             

 **************************************************************************

 **************************************************************************

                    xk=(  -0.30300,   0.57737,   0.00000  )

     Band symmetry, C_s (m)     point group:

     e(  1 -  1) =    -17.41264  eV     1   --> A'             
     e(  2 -  2) =    -11.39740  eV     1   --> A'             
     e(  3 -  3) =    -10.51842  eV     1   --> A'             
     e(  4 -  4) =     -3.46428  eV     1   --> A''            
     e(  5 -  5) =      1.18021  eV     1   --> A''            
     e(  6 -  6) =      8.88045  eV     1   --> A''            
     e(  7 -  7) =      9.74166  eV     1   --> A'             
     e(  8 -  8) =     10.86904  eV     1   --> A'             

 **************************************************************************

 **************************************************************************

                    xk=(  -0.27270,   0.57737,   0.00000  )

     Band symmetry, C_s (m)     point group:

     e(  1 -  1) =    -17.46172  eV     1   --> A'             
     e(  2 -  2) =    -11.52719  eV     1   --> A'             
     e(  3 -  3) =    -10.26040  eV     1   --> A'             
     e(  4 -  4) =     -3.54696  eV     1   --> A''            
     e(  5 -  5) =      1.22353  eV     1   --> A''            
     e(  6 -  6) =      8.98420  eV     1   --> A''            
     e(  7 -  7) =      9.52148  eV     1   --> A'             
     e(  8 -  8) =     10.51950  eV     1   --> A'             

 **************************************************************************

 **************************************************************************

                    xk=(  -0.24240,   0.57736,   0.00000  )

     Band symmetry, C_s (m)     point group:

     e(  1 -  1) =    -17.53077  eV     1   --> A'             
     e(  2 -  2) =    -11.67691  eV     1   --> A'             
     e(  3 -  3) =     -9.91711  eV     1   --> A'             
     e(  4 -  4) =     -3.66056  eV     1   --> A''            
     e(  5 -  5) =      1.26922  eV     1   --> A''            
     e(  6 -  6) =      9.14657  eV     1   --> A''            
     e(  7 -  7) =      9.20801  eV     1   --> A'             
     e(  8 -  8) =     10.17771  eV     1   --> A'             

 **************************************************************************

 **************************************************************************

                    xk=(  -0.21210,   0.57736,   0.00000  )

     Band symmetry, C_s (m)     point group:

     e(  1 -  1) =    -17.61037  eV     1   --> A'             
     e(  2 -  2) =    -11.82222  eV     1   --> A'             
     e(  3 -  3) =     -9.53046  eV     1   --> A'             
     e(  4 -  4) =     -3.78867  eV     1   --> A''            
     e(  5 -  5) =      1.30394  eV     1   --> A''            
     e(  6 -  6) =      8.80746  eV     1   --> A'             
     e(  7 -  7) =      9.33755  eV     1   --> A''            
     e(  8 -  8) =      9.87375  eV     1   --> A'             

 **************************************************************************

 **************************************************************************

                    xk=(  -0.18180,   0.57736,   0.00000  )

     Band symmetry, C_s (m)     point group:

     e(  1 -  1) =    -17.69226  eV     1   --> A'             
     e(  2 -  2) =    -11.95328  eV     1   --> A'             
     e(  3 -  3) =     -9.12668  eV     1   --> A'             
     e(  4 -  4) =     -3.91756  eV     1   --> A''            
     e(  5 -  5) =      1.32327  eV     1   --> A''            
     e(  6 -  6) =      8.33372  eV     1   --> A'             
     e(  7 -  7) =      9.51365  eV     1   --> A''            
     e(  8 -  8) =      9.61685  eV     1   --> A'             

 **************************************************************************

 **************************************************************************

                    xk=(  -0.15150,   0.57736,   0.00000  )

     Band symmetry, C_s (m)     point group:

     e(  1 -  1) =    -17.77060  eV     1   --> A'             
     e(  2 -  2) =    -12.06725  eV     1   --> A'             
     e(  3 -  3) =     -8.72907  eV     1   --> A'             
     e(  4 -  4) =     -4.03881  eV     1   --> A''            
     e(  5 -  5) =      1.32788  eV     1   --> A''            
     e(  6 -  6) =      7.82248  eV     1   --> A'             
     e(  7 -  7) =      9.40528  eV     1   --> A'             
     e(  8 -  8) =      9.63429  eV     1   --> A''            

 **************************************************************************

 **************************************************************************

                    xk=(  -0.12120,   0.57736,   0.00000  )

     Band symmetry, C_s (m)     point group:

     e(  1 -  1) =    -17.84028  eV     1   --> A'             
     e(  2 -  2) =    -12.16164  eV     1   --> A'             
     e(  3 -  3) =     -8.35907  eV     1   --> A'             
     e(  4 -  4) =     -4.14502  eV     1   --> A''            
     e(  5 -  5) =      1.32208  eV     1   --> A''            
     e(  6 -  6) =      7.32276  eV     1   --> A'             
     e(  7 -  7) =      9.23553  eV     1   --> A'             
     e(  8 -  8) =      9.68660  eV     1   -->   ?

 **************************************************************************

 **************************************************************************

                    xk=(  -0.09090,   0.57736,   0.00000  )

     Band symmetry, C_s (m)     point group:

     e(  1 -  1) =    -17.89770  eV     1   --> A'             
     e(  2 -  2) =    -12.23577  eV     1   --> A'             
     e(  3 -  3) =     -8.03896  eV     1   --> A'             
     e(  4 -  4) =     -4.23091  eV     1   --> A''            
     e(  5 -  5) =      1.31136  eV     1   --> A''            
     e(  6 -  6) =      6.88154  eV     1   --> A'             
     e(  7 -  7) =      9.10481  eV     1   --> A'             
     e(  8 -  8) =      9.61019  eV     1   -->   ?

 **************************************************************************

 **************************************************************************

                    xk=(  -0.06060,   0.57735,   0.00000  )

     Band symmetry, C_s (m)     point group:

     e(  1 -  1) =    -17.94057  eV     1   --> A'             
     e(  2 -  2) =    -12.28897  eV     1   --> A'             
     e(  3 -  3) =     -7.79044  eV     1   --> A'             
     e(  4 -  4) =     -4.29501  eV     1   --> A''            
     e(  5 -  5) =      1.29981  eV     1   --> A''            
     e(  6 -  6) =      6.53659  eV     1   --> A'             
     e(  7 -  7) =      9.01182  eV     1   --> A'             
     e(  8 -  8) =      9.47869  eV     1   -->   ?

 **************************************************************************

 **************************************************************************

                    xk=(  -0.03030,   0.57735,   0.00000  )

     Band symmetry, C_s (m)     point group:

     e(  1 -  1) =    -17.96680  eV     1   --> A'             
     e(  2 -  2) =    -12.32081  eV     1   --> A'             
     e(  3 -  3) =     -7.63209  eV     1   --> A'             
     e(  4 -  4) =     -4.33404  eV     1   --> A''            
     e(  5 -  5) =      1.29148  eV     1   --> A''            
     e(  6 -  6) =      6.31718  eV     1   --> A'             
     e(  7 -  7) =      8.95633  eV     1   --> A'             
     e(  8 -  8) =      9.40148  eV     1   -->   ?

 **************************************************************************

 **************************************************************************

                    xk=(   0.00000,   0.57735,   0.00000  )

     point group C_2v (mm2) 
     there are  4 classes
     the character table:

       E     C2    s_v   s_v' 
A_1    1.00  1.00  1.00  1.00
A_2    1.00  1.00 -1.00 -1.00
B_1    1.00 -1.00  1.00 -1.00
B_2    1.00 -1.00 -1.00  1.00

     the symmetry operations in each class and the name of the first element:

     E        1
                                                                 
     C2       2
                                                                 
     s_v      3
                                                                 
     s_v'     4
                                                                 

     Band symmetry, C_2v (mm2)  point group:

     e(  1 -  1) =    -17.97556  eV     1   --> A_1  D_1  S_1  
     e(  2 -  2) =    -12.33147  eV     1   --> A_1  D_1  S_1  
     e(  3 -  3) =     -7.57760  eV     1   --> B_1  D_3  S_3  
     e(  4 -  4) =     -4.34718  eV     1   --> B_2  D_4  S_4  
     e(  5 -  5) =      1.28841  eV     1   --> B_2  D_4  S_4  
     e(  6 -  6) =      6.24185  eV     1   --> A_1  D_1  S_1  
     e(  7 -  7) =      8.93779  eV     1   --> A_1  D_1  S_1  
     e(  8 -  8) =      9.37596  eV     1   -->   ?

 **************************************************************************

 **************************************************************************

                    xk=(   0.00000,   0.54528,   0.00000  )

     Band symmetry, C_2v (mm2)  point group:

     e(  1 -  1) =    -18.02077  eV     1   --> A_1  D_1  S_1  
     e(  2 -  2) =    -12.26188  eV     1   --> A_1  D_1  S_1  
     e(  3 -  3) =     -7.56184  eV     1   --> B_1  D_3  S_3  
     e(  4 -  4) =     -4.41870  eV     1   --> B_2  D_4  S_4  
     e(  5 -  5) =      1.38088  eV     1   --> B_2  D_4  S_4  
     e(  6 -  6) =      6.21452  eV     1   --> A_1  D_1  S_1  
     e(  7 -  7) =      8.40352  eV     1   --> A_1  D_1  S_1  
     e(  8 -  8) =      9.11615  eV     1   --> B_2  D_4  S_4  

 **************************************************************************

 **************************************************************************

                    xk=(   0.00000,   0.51320,   0.00000  )

     Band symmetry, C_2v (mm2)  point group:

     e(  1 -  1) =    -18.14905  eV     1   --> A_1  D_1  S_1  
     e(  2 -  2) =    -12.05883  eV     1   --> A_1  D_1  S_1  
     e(  3 -  3) =     -7.51435  eV     1   --> B_1  D_3  S_3  
     e(  4 -  4) =     -4.61905  eV     1   --> B_2  D_4  S_4  
     e(  5 -  5) =      1.64242  eV     1   --> B_2  D_4  S_4  
     e(  6 -  6) =      6.11585  eV     1   --> A_1  D_1  S_1  
     e(  7 -  7) =      7.78406  eV     1   --> A_1  D_1  S_1  
     e(  8 -  8) =      8.39886  eV     1   --> B_2  D_4  S_4  

 **************************************************************************

 **************************************************************************

                    xk=(   0.00000,   0.48113,   0.00000  )

     Band symmetry, C_2v (mm2)  point group:

     e(  1 -  1) =    -18.34300  eV     1   --> A_1  D_1  S_1  
     e(  2 -  2) =    -11.74109  eV     1   --> A_1  D_1  S_1  
     e(  3 -  3) =     -7.43548  eV     1   --> B_1  D_3  S_3  
     e(  4 -  4) =     -4.91425  eV     1   --> B_2  D_4  S_4  
     e(  5 -  5) =      2.03507  eV     1   --> B_2  D_4  S_4  
     e(  6 -  6) =      5.89510  eV     1   --> A_1  D_1  S_1  
     e(  7 -  7) =      7.29486  eV     1   --> A_1  D_1  S_1  
     e(  8 -  8) =      7.70250  eV     1   --> B_2  D_4  S_4  

 **************************************************************************

 **************************************************************************

                    xk=(   0.00000,   0.44905,   0.00000  )

     Band symmetry, C_2v (mm2)  point group:

     e(  1 -  1) =    -18.58165  eV     1   --> A_1  D_1  S_1  
     e(  2 -  2) =    -11.33108  eV     1   --> A_1  D_1  S_1  
     e(  3 -  3) =     -7.32618  eV     1   --> B_1  D_3  S_3  
     e(  4 -  4) =     -5.26834  eV     1   --> B_2  D_4  S_4  
     e(  5 -  5) =      2.51435  eV     1   --> B_2  D_4  S_4  
     e(  6 -  6) =      5.51902  eV     1   --> A_1  D_1  S_1  
     e(  7 -  7) =      6.94091  eV     1   --> A_1  D_1  S_1  
     e(  8 -  8) =      7.04925  eV     1   -->   ?

 **************************************************************************

 **************************************************************************

                    xk=(   0.00000,   0.41698,   0.00000  )

     Band symmetry, C_2v (mm2)  point group:

     e(  1 -  1) =    -18.84581  eV     1   --> A_1  D_1  S_1  
     e(  2 -  2) =    -10.84976  eV     1   --> A_1  D_1  S_1  
     e(  3 -  3) =     -7.18762  eV     1   --> B_1  D_3  S_3  
     e(  4 -  4) =     -5.65050  eV     1   --> B_2  D_4  S_4  
     e(  5 -  5) =      3.03655  eV     1   --> B_2  D_4  S_4  
     e(  6 -  6) =      5.04041  eV     1   --> A_1  D_1  S_1  
     e(  7 -  7) =      6.45232  eV     1   -->   ?
     e(  8 -  8) =      6.55440  eV     1   --> A_1  D_1  S_1  

 **************************************************************************

 **************************************************************************

                    xk=(   0.00000,   0.38490,   0.00000  )

     Band symmetry, C_2v (mm2)  point group:

     e(  1 -  1) =    -19.12066  eV     1   --> A_1  D_1  S_1  
     e(  2 -  2) =    -10.31572  eV     1   --> A_1  D_1  S_1  
     e(  3 -  3) =     -7.02268  eV     1   --> B_1  D_3  S_3  
     e(  4 -  4) =     -6.04095  eV     1   --> B_2  D_4  S_4  
     e(  5 -  5) =      3.54777  eV     1   --> B_2  D_4  S_4  
     e(  6 -  6) =      4.53184  eV     1   --> A_1  D_1  S_1  
     e(  7 -  7) =      5.93351  eV     1   --> B_2  D_4  S_4  
     e(  8 -  8) =      6.05174  eV     1   --> A_1  D_1  S_1  

 **************************************************************************

 **************************************************************************

                    xk=(   0.00000,   0.35283,   0.00000  )

     Band symmetry, C_2v (mm2)  point group:

     e(  1 -  1) =    -19.39459  eV     1   --> A_1  D_1  S_1  
     e(  2 -  2) =     -9.74307  eV     1   --> A_1  D_1  S_1  
     e(  3 -  3) =     -6.83303  eV     1   --> B_1  D_3  S_3  
     e(  4 -  4) =     -6.42450  eV     1   --> B_2  D_4  S_4  
     e(  5 -  5) =      3.95569  eV     1   --> B_2  D_4  S_4  
     e(  6 -  6) =      4.03331  eV     1   --> A_1  D_1  S_1  
     e(  7 -  7) =      5.53196  eV     1   --> A_1  D_1  S_1  
     e(  8 -  8) =      5.55288  eV     1   --> B_2  D_4  S_4  

 **************************************************************************

 **************************************************************************

                    xk=(   0.00000,   0.32075,   0.00000  )

     Band symmetry, C_2v (mm2)  point group:

     e(  1 -  1) =    -19.65971  eV     1   --> A_1  D_1  S_1  
     e(  2 -  2) =     -9.14531  eV     1   --> A_1  D_1  S_1  
     e(  3 -  3) =     -6.79173  eV     1   --> B_2  D_4  S_4  
     e(  4 -  4) =     -6.62213  eV     1   --> B_1  D_3  S_3  
     e(  5 -  5) =      3.56228  eV     1   --> A_1  D_1  S_1  
     e(  6 -  6) =      4.08429  eV     1   --> B_2  D_4  S_4  
     e(  7 -  7) =      5.03972  eV     1   --> A_1  D_1  S_1  
     e(  8 -  8) =      5.43861  eV     1   --> B_2  D_4  S_4  

 **************************************************************************

 **************************************************************************

                    xk=(   0.00000,   0.28868,   0.00000  )

     Band symmetry, C_2v (mm2)  point group:

     e(  1 -  1) =    -19.91009  eV     1   --> A_1  D_1  S_1  
     e(  2 -  2) =     -8.53484  eV     1   --> A_1  D_1  S_1  
     e(  3 -  3) =     -7.13596  eV     1   --> B_2  D_4  S_4  
     e(  4 -  4) =     -6.39402  eV     1   --> B_1  D_3  S_3  
     e(  5 -  5) =      3.12699  eV     1   --> A_1  D_1  S_1  
     e(  6 -  6) =      3.89912  eV     1   --> B_2  D_4  S_4  
     e(  7 -  7) =      4.58743  eV     1   --> A_1  D_1  S_1  
     e(  8 -  8) =      5.53659  eV     1   --> B_2  D_4  S_4  

 **************************************************************************

 **************************************************************************

                    xk=(   0.00000,   0.25660,   0.00000  )

     Band symmetry, C_2v (mm2)  point group:

     e(  1 -  1) =    -20.14128  eV     1   --> A_1  D_1  S_1  
     e(  2 -  2) =     -7.92286  eV     1   --> A_1  D_1  S_1  
     e(  3 -  3) =     -7.45194  eV     1   --> B_2  D_4  S_4  
     e(  4 -  4) =     -6.15326  eV     1   --> B_1  D_3  S_3  
     e(  5 -  5) =      2.73156  eV     1   --> A_1  D_1  S_1  
     e(  6 -  6) =      3.59810  eV     1   --> B_2  D_4  S_4  
     e(  7 -  7) =      4.17924  eV     1   --> A_1  D_1  S_1  
     e(  8 -  8) =      5.54632  eV     1   --> B_2  D_4  S_4  

 **************************************************************************

 **************************************************************************

                    xk=(   0.00000,   0.22453,   0.00000  )

     Band symmetry, C_2v (mm2)  point group:

     e(  1 -  1) =    -20.35044  eV     1   --> A_1  D_1  S_1  
     e(  2 -  2) =     -7.73635  eV     1   --> B_2  D_4  S_4  
     e(  3 -  3) =     -7.32170  eV     1   --> A_1  D_1  S_1  
     e(  4 -  4) =     -5.90641  eV     1   --> B_1  D_3  S_3  
     e(  5 -  5) =      2.37812  eV     1   --> A_1  D_1  S_1  
     e(  6 -  6) =      3.28877  eV     1   --> B_2  D_4  S_4  
     e(  7 -  7) =      3.81695  eV     1   --> A_1  D_1  S_1  
     e(  8 -  8) =      5.39873  eV     1   --> B_2  D_4  S_4  

 **************************************************************************

 **************************************************************************

                    xk=(   0.00000,   0.19245,   0.00000  )

     Band symmetry, C_2v (mm2)  point group:

     e(  1 -  1) =    -20.53521  eV     1   --> A_1  D_1  S_1  
     e(  2 -  2) =     -7.98682  eV     1   --> B_2  D_4  S_4  
     e(  3 -  3) =     -6.74588  eV     1   --> A_1  D_1  S_1  
     e(  4 -  4) =     -5.66152  eV     1   --> B_1  D_3  S_3  
     e(  5 -  5) =      2.06802  eV     1   --> A_1  D_1  S_1  
     e(  6 -  6) =      3.00456  eV     1   --> B_2  D_4  S_4  
     e(  7 -  7) =      3.50142  eV     1   --> A_1  D_1  S_1  
     e(  8 -  8) =      5.18978  eV     1   -->   ?

 **************************************************************************

 **************************************************************************

                    xk=(   0.00000,   0.16038,   0.00000  )

     Band symmetry, C_2v (mm2)  point group:

     e(  1 -  1) =    -20.69380  eV     1   --> A_1  D_1  S_1  
     e(  2 -  2) =     -8.20118  eV     1   --> B_2  D_4  S_4  
     e(  3 -  3) =     -6.21027  eV     1   --> A_1  D_1  S_1  
     e(  4 -  4) =     -5.42681  eV     1   --> B_1  D_3  S_3  
     e(  5 -  5) =      1.80225  eV     1   --> A_1  D_1  S_1  
     e(  6 -  6) =      2.75726  eV     1   --> B_2  D_4  S_4  
     e(  7 -  7) =      3.23320  eV     1   --> A_1  D_1  S_1  
     e(  8 -  8) =      4.98077  eV     1   -->   ?

 **************************************************************************

 **************************************************************************

                    xk=(   0.00000,   0.12830,   0.00000  )

     Band symmetry, C_2v (mm2)  point group:

     e(  1 -  1) =    -20.82512  eV     1   --> A_1  D_1  S_1  
     e(  2 -  2) =     -8.37822  eV     1   --> B_2  D_4  S_4  
     e(  3 -  3) =     -5.73279  eV     1   --> A_1  D_1  S_1  
     e(  4 -  4) =     -5.21325  eV     1   --> B_1  D_3  S_3  
     e(  5 -  5) =      1.58168  eV     1   --> A_1  D_1  S_1  
     e(  6 -  6) =      2.55178  eV     1   --> B_2  D_4  S_4  
     e(  7 -  7) =      3.01271  eV     1   --> A_1  D_1  S_1  
     e(  8 -  8) =      4.79680  eV     1   --> B_2  D_4  S_4  

 **************************************************************************

 **************************************************************************

                    xk=(   0.00000,   0.09623,   0.00000  )

     Band symmetry, C_2v (mm2)  point group:

     e(  1 -  1) =    -20.92807  eV     1   --> A_1  D_1  S_1  
     e(  2 -  2) =     -8.51706  eV     1   --> B_2  D_4  S_4  
     e(  3 -  3) =     -5.33203  eV     1   --> A_1  D_1  S_1  
     e(  4 -  4) =     -5.03027  eV     1   --> B_1  D_3  S_3  
     e(  5 -  5) =      1.40747  eV     1   --> A_1  D_1  S_1  
     e(  6 -  6) =      2.39047  eV     1   --> B_2  D_4  S_4  
     e(  7 -  7) =      2.84041  eV     1   --> A_1  D_1  S_1  
     e(  8 -  8) =      4.64854  eV     1   --> B_2  D_4  S_4  

 **************************************************************************

 **************************************************************************

                    xk=(   0.00000,   0.06415,   0.00000  )

     Band symmetry, C_2v (mm2)  point group:

     e(  1 -  1) =    -21.00205  eV     1   --> A_1  D_1  S_1  
     e(  2 -  2) =     -8.61645  eV     1   --> B_2  D_4  S_4  
     e(  3 -  3) =     -5.02782  eV     1   --> A_1  D_1  S_1  
     e(  4 -  4) =     -4.88979  eV     1   --> B_1  D_3  S_3  
     e(  5 -  5) =      1.28110  eV     1   --> A_1  D_1  S_1  
     e(  6 -  6) =      2.27464  eV     1   --> B_2  D_4  S_4  
     e(  7 -  7) =      2.71676  eV     1   --> A_1  D_1  S_1  
     e(  8 -  8) =      4.54054  eV     1   --> B_2  D_4  S_4  

 **************************************************************************

 **************************************************************************

                    xk=(   0.00000,   0.03208,   0.00000  )

     Band symmetry, C_2v (mm2)  point group:

     e(  1 -  1) =    -21.04660  eV     1   --> A_1  D_1  S_1  
     e(  2 -  2) =     -8.67635  eV     1   --> B_2  D_4  S_4  
     e(  3 -  3) =     -4.83655  eV     1   --> A_1  D_1  S_1  
     e(  4 -  4) =     -4.80140  eV     1   --> B_1  D_3  S_3  
     e(  5 -  5) =      1.20428  eV     1   --> A_1  D_1  S_1  
     e(  6 -  6) =      2.20491  eV     1   --> B_2  D_4  S_4  
     e(  7 -  7) =      2.64231  eV     1   --> A_1  D_1  S_1  
     e(  8 -  8) =      4.47503  eV     1   --> B_2  D_4  S_4  

 **************************************************************************

 **************************************************************************

                    xk=(   0.00000,   0.00000,   0.00000  )

     point group D_3h (-62m)
     there are  6 classes
     the character table:

       E     2C3   3C2   s_h   2S3   3s_v 
A'_1   1.00  1.00  1.00  1.00  1.00  1.00
A'_2   1.00  1.00 -1.00  1.00  1.00 -1.00
E'     2.00 -1.00  0.00  2.00 -1.00  0.00
A''1   1.00  1.00  1.00 -1.00 -1.00 -1.00
A''2   1.00  1.00 -1.00 -1.00 -1.00  1.00
E''    2.00 -1.00  0.00 -2.00  1.00  0.00

     the symmetry operations in each class and the name of the first element:

     E        1
                                                                 
     2C3      3    4
                                                                 
     3C2      2    6    5
                                                                 
     s_h      7
                                                                 
     2S3      9   10
                                                                 
     3s_v     8   11   12
                                                                 

     Band symmetry, D_3h (-62m) point group:

     e(  1 -  1) =    -21.06128  eV     1   --> A'_1           
     e(  2 -  2) =     -8.69583  eV     1   --> A''2           
     e(  3 -  4) =     -4.77034  eV     2   --> E'             
     e(  5 -  5) =      1.17851  eV     1   --> A'_1           
     e(  6 -  6) =      2.18173  eV     1   --> A''2           
     e(  7 -  7) =      2.61744  eV     1   --> A'_1           
     e(  8 -  8) =      4.45323  eV     1   --> A''2           

 **************************************************************************

     BANDS        :      1.19s CPU      1.27s WALL


   This run was terminated on:  20:20:34   5Apr2024            

=------------------------------------------------------------------------------=
   JOB DONE.
=------------------------------------------------------------------------------=
