
     Program BANDS v.7.2 starts on 16Apr2024 at 13:59:38 

     This program is part of the open-source Quantum ESPRESSO suite
     for quantum simulation of materials; please cite
         "P. Giannozzi et al., J. Phys.:Condens. Matter 21 395502 (2009);
         "P. Giannozzi et al., J. Phys.:Condens. Matter 29 465901 (2017);
         "P. Giannozzi et al., J. Chem. Phys. 152 154105 (2020);
          URL http://www.quantum-espresso.org", 
     in publications or presentations arising from this work. More details at
     http://www.quantum-espresso.org/quote

     Parallel version (MPI & OpenMP), running on       8 processor cores
     Number of MPI processes:                 8
     Threads/MPI process:                     1

     MPI processes distributed on     1 nodes
     R & G space division:  proc/nbgrp/npool/nimage =       8
     0 MiB available memory on the printing compute node when the environment starts


     Reading xml data from directory:

     ./tmp/hBN_1l_PBE.save/

     IMPORTANT: XC functional enforced from input :
     Exchange-correlation= PBE
                           (   1   4   3   4   0   0   0)
     Any further DFT definition will be discarded
     Please, verify this is what you really want


     Parallelization info
     --------------------
     sticks:   dense  smooth     PW     G-vecs:    dense   smooth      PW
     Min          45      45     15                 4333     4333     755
     Max          46      46     16                 4356     4356     767
     Sum         367     367    121                34803    34803    6103

     Using Slab Decomposition

     Reading collected, re-writing distributed wavefunctions
     high-symmetry point:  0.0000 0.0000 0.0000   x coordinate   0.0000
     high-symmetry point: -0.3333 0.5774 0.0000   x coordinate   0.6667
     high-symmetry point:  0.0000 0.5774 0.0000   x coordinate   1.0000
     high-symmetry point:  0.0000 0.0000 0.0000   x coordinate   1.5773

     Plottable bands (eV) written to file Bande_hBN_1l_PBE.dat.gnu
     Bands written to file Bande_hBN_1l_PBE.dat

 **************************************************************************

                    xk=(   0.00000,   0.00000,   0.00000  )

     point group D_3h (-62m)
     there are  6 classes
     the character table:

       E     2C3   3C2   s_h   2S3   3s_v 
A'_1   1.00  1.00  1.00  1.00  1.00  1.00
A'_2   1.00  1.00 -1.00  1.00  1.00 -1.00
E'     2.00 -1.00  0.00  2.00 -1.00  0.00
A''1   1.00  1.00  1.00 -1.00 -1.00 -1.00
A''2   1.00  1.00 -1.00 -1.00 -1.00  1.00
E''    2.00 -1.00  0.00 -2.00  1.00  0.00

     the symmetry operations in each class and the name of the first element:

     E        1
                                                                 
     2C3      3    4
                                                                 
     3C2      2    6    5
                                                                 
     s_h      7
                                                                 
     2S3      9   10
                                                                 
     3s_v     8   11   12
                                                                 

     Band symmetry, D_3h (-62m) point group:

     e(  1 -  1) =    -21.11366  eV     1   --> A'_1           
     e(  2 -  2) =     -8.70569  eV     1   --> A''2           
     e(  3 -  4) =     -4.86234  eV     2   --> E'             
     e(  5 -  5) =      1.19196  eV     1   --> A'_1           
     e(  6 -  6) =      2.18564  eV     1   --> A''2           
     e(  7 -  7) =      2.61026  eV     1   --> A'_1           
     e(  8 -  8) =      4.44469  eV     1   --> A''2           
     e(  9 -  9) =      5.11006  eV     1   --> A'_1           
     e( 10 - 10) =      7.82229  eV     1   --> A''2           
     e( 11 - 12) =      8.11844  eV     2   --> E'             
     e( 13 - 13) =      8.52323  eV     1   --> A'_1           
     e( 14 - 14) =     10.22660  eV     1   --> A''2           
     e( 15 - 15) =     11.19066  eV     1   --> A'_1           
     e( 16 - 16) =     14.31783  eV     1   --> A''2           

 **************************************************************************

 **************************************************************************

                    xk=(  -0.01587,   0.02749,   0.00000  )

     point group C_s (m)    
     there are  2 classes
     the character table:

       E     s    
A'     1.00  1.00
A''    1.00 -1.00

     the symmetry operations in each class and the name of the first element:

     E        1
                                                                 
     s        2
                                                                 

     Band symmetry, C_s (m)     point group:

     e(  1 -  1) =    -21.09936  eV     1   --> A'             
     e(  2 -  2) =     -8.68684  eV     1   --> A''            
     e(  3 -  3) =     -4.92640  eV     1   --> A'             
     e(  4 -  4) =     -4.89260  eV     1   --> A'             
     e(  5 -  5) =      1.21717  eV     1   --> A'             
     e(  6 -  6) =      2.20830  eV     1   --> A''            
     e(  7 -  7) =      2.63461  eV     1   --> A'             
     e(  8 -  8) =      4.46592  eV     1   --> A''            
     e(  9 -  9) =      5.13524  eV     1   --> A'             
     e( 10 - 10) =      7.82587  eV     1   --> A''            
     e( 11 - 11) =      8.10089  eV     1   --> A'             
     e( 12 - 12) =      8.18212  eV     1   --> A'             
     e( 13 - 13) =      8.56547  eV     1   --> A'             
     e( 14 - 14) =     10.20367  eV     1   --> A''            
     e( 15 - 15) =     11.22739  eV     1   --> A'             
     e( 16 - 16) =     14.32885  eV     1   --> A''            

 **************************************************************************

 **************************************************************************

                    xk=(  -0.03174,   0.05499,   0.00000  )

     Band symmetry, C_s (m)     point group:

     e(  1 -  1) =    -21.05594  eV     1   --> A'             
     e(  2 -  2) =     -8.62854  eV     1   --> A''            
     e(  3 -  3) =     -5.11037  eV     1   --> A'             
     e(  4 -  4) =     -4.98032  eV     1   --> A'             
     e(  5 -  5) =      1.29236  eV     1   --> A'             
     e(  6 -  6) =      2.27650  eV     1   --> A''            
     e(  7 -  7) =      2.70755  eV     1   --> A'             
     e(  8 -  8) =      4.52983  eV     1   --> A''            
     e(  9 -  9) =      5.21027  eV     1   --> A'             
     e( 10 - 10) =      7.83457  eV     1   --> A''            
     e( 11 - 11) =      8.06601  eV     1   --> A'             
     e( 12 - 12) =      8.35742  eV     1   --> A'             
     e( 13 - 13) =      8.69223  eV     1   --> A'             
     e( 14 - 14) =     10.14164  eV     1   --> A''            
     e( 15 - 15) =     11.33682  eV     1   --> A'             
     e( 16 - 16) =     14.36384  eV     1   --> A''            

 **************************************************************************

 **************************************************************************

                    xk=(  -0.04761,   0.08248,   0.00000  )

     Band symmetry, C_s (m)     point group:

     e(  1 -  1) =    -20.98377  eV     1   --> A'             
     e(  2 -  2) =     -8.53145  eV     1   --> A''            
     e(  3 -  3) =     -5.39946  eV     1   --> A'             
     e(  4 -  4) =     -5.12373  eV     1   --> A'             
     e(  5 -  5) =      1.41620  eV     1   --> A'             
     e(  6 -  6) =      2.38985  eV     1   --> A''            
     e(  7 -  7) =      2.82872  eV     1   --> A'             
     e(  8 -  8) =      4.63525  eV     1   --> A''            
     e(  9 -  9) =      5.33345  eV     1   --> A'             
     e( 10 - 10) =      7.83546  eV     1   --> A''            
     e( 11 - 11) =      8.03733  eV     1   --> A'             
     e( 12 - 12) =      8.57875  eV     1   --> A'             
     e( 13 - 13) =      8.93447  eV     1   --> A'             
     e( 14 - 14) =     10.05492  eV     1   --> A''            
     e( 15 - 15) =     11.51608  eV     1   --> A'             
     e( 16 - 16) =     14.42612  eV     1   --> A''            

 **************************************************************************

 **************************************************************************

                    xk=(  -0.06349,   0.10998,   0.00000  )

     Band symmetry, C_s (m)     point group:

     e(  1 -  1) =    -20.88333  eV     1   --> A'             
     e(  2 -  2) =     -8.39610  eV     1   --> A''            
     e(  3 -  3) =     -5.77490  eV     1   --> A'             
     e(  4 -  4) =     -5.31904  eV     1   --> A'             
     e(  5 -  5) =      1.58730  eV     1   --> A'             
     e(  6 -  6) =      2.54769  eV     1   --> A''            
     e(  7 -  7) =      2.99771  eV     1   --> A'             
     e(  8 -  8) =      4.77998  eV     1   --> A''            
     e(  9 -  9) =      5.50305  eV     1   --> A'             
     e( 10 - 10) =      7.80615  eV     1   --> A''            
     e( 11 - 11) =      8.03023  eV     1   --> A'             
     e( 12 - 12) =      8.78356  eV     1   --> A'             
     e( 13 - 13) =      9.32163  eV     1   --> A'             
     e( 14 - 14) =      9.97103  eV     1   --> A''            
     e( 15 - 15) =     11.76471  eV     1   --> A'             
     e( 16 - 16) =     14.51937  eV     1   --> A''            

 **************************************************************************

 **************************************************************************

                    xk=(  -0.07936,   0.13747,   0.00000  )

     Band symmetry, C_s (m)     point group:

     e(  1 -  1) =    -20.75526  eV     1   --> A'             
     e(  2 -  2) =     -8.22345  eV     1   --> A''            
     e(  3 -  3) =     -6.21429  eV     1   --> A'             
     e(  4 -  4) =     -5.56080  eV     1   --> A'             
     e(  5 -  5) =      1.80456  eV     1   --> A'             
     e(  6 -  6) =      2.74877  eV     1   --> A''            
     e(  7 -  7) =      3.21420  eV     1   --> A'             
     e(  8 -  8) =      4.95947  eV     1   --> A''            
     e(  9 -  9) =      5.71772  eV     1   --> A'             
     e( 10 - 10) =      7.71785  eV     1   --> A''            
     e( 11 - 11) =      8.05503  eV     1   --> A'             
     e( 12 - 12) =      8.98444  eV     1   --> A'             
     e( 13 - 13) =      9.80520  eV     1   --> A'             
     e( 14 - 14) =      9.92816  eV     1   --> A''            
     e( 15 - 15) =     12.08669  eV     1   --> A'             
     e( 16 - 16) =     14.64531  eV     1   --> A''            

 **************************************************************************

 **************************************************************************

                    xk=(  -0.09523,   0.16496,   0.00000  )

     Band symmetry, C_s (m)     point group:

     e(  1 -  1) =    -20.60042  eV     1   --> A'             
     e(  2 -  2) =     -8.01425  eV     1   --> A''            
     e(  3 -  3) =     -6.69767  eV     1   --> A'             
     e(  4 -  4) =     -5.84312  eV     1   --> A'             
     e(  5 -  5) =      2.06733  eV     1   --> A'             
     e(  6 -  6) =      2.99093  eV     1   --> A''            
     e(  7 -  7) =      3.47798  eV     1   --> A'             
     e(  8 -  8) =      5.16441  eV     1   --> A''            
     e(  9 -  9) =      5.97664  eV     1   --> A'             
     e( 10 - 10) =      7.55385  eV     1   --> A''            
     e( 11 - 11) =      8.11817  eV     1   --> A'             
     e( 12 - 12) =      9.19905  eV     1   --> A'             
     e( 13 - 13) =      9.96232  eV     1   --> A''            
     e( 14 - 14) =     10.32941  eV     1   --> A'             
     e( 15 - 15) =     12.49137  eV     1   --> A'             
     e( 16 - 16) =     14.80152  eV     1   --> A''            

 **************************************************************************

 **************************************************************************

                    xk=(  -0.11110,   0.19246,   0.00000  )

     Band symmetry, C_s (m)     point group:

     e(  1 -  1) =    -20.41988  eV     1   --> A'             
     e(  2 -  2) =     -7.76979  eV     1   --> A''            
     e(  3 -  3) =     -7.20802  eV     1   --> A'             
     e(  4 -  4) =     -6.15898  eV     1   --> A'             
     e(  5 -  5) =      2.37525  eV     1   --> A'             
     e(  6 -  6) =      3.26981  eV     1   --> A''            
     e(  7 -  7) =      3.78895  eV     1   --> A'             
     e(  8 -  8) =      5.37338  eV     1   --> A''            
     e(  9 -  9) =      6.27925  eV     1   --> A'             
     e( 10 - 10) =      7.33460  eV     1   --> A''            
     e( 11 - 11) =      8.22402  eV     1   --> A'             
     e( 12 - 12) =      9.43237  eV     1   --> A'             
     e( 13 - 13) =     10.08866  eV     1   --> A''            
     e( 14 - 14) =     10.85340  eV     1   --> A'             
     e( 15 - 15) =     12.98751  eV     1   --> A'             
     e( 16 - 16) =     14.97764  eV     1   --> A''            

 **************************************************************************

 **************************************************************************

                    xk=(  -0.12697,   0.21995,   0.00000  )

     Band symmetry, C_s (m)     point group:

     e(  1 -  1) =    -20.21522  eV     1   --> A'             
     e(  2 -  2) =     -7.73140  eV     1   --> A'             
     e(  3 -  3) =     -7.49185  eV     1   --> A''            
     e(  4 -  4) =     -6.50162  eV     1   --> A'             
     e(  5 -  5) =      2.72813  eV     1   --> A'             
     e(  6 -  6) =      3.57557  eV     1   --> A''            
     e(  7 -  7) =      4.14702  eV     1   --> A'             
     e(  8 -  8) =      5.53588  eV     1   --> A''            
     e(  9 -  9) =      6.62504  eV     1   --> A'             
     e( 10 - 10) =      7.13665  eV     1   --> A''            
     e( 11 - 11) =      8.37331  eV     1   --> A'             
     e( 12 - 12) =      9.68374  eV     1   --> A'             
     e( 13 - 13) =     10.30037  eV     1   --> A''            
     e( 14 - 14) =     11.35466  eV     1   --> A'             
     e( 15 - 15) =     13.57177  eV     1   --> A'             
     e( 16 - 16) =     15.14686  eV     1   --> A''            

 **************************************************************************

 **************************************************************************

                    xk=(  -0.14284,   0.24744,   0.00000  )

     Band symmetry, C_s (m)     point group:

     e(  1 -  1) =    -19.98827  eV     1   --> A'             
     e(  2 -  2) =     -8.25490  eV     1   --> A'             
     e(  3 -  3) =     -7.18228  eV     1   --> A''            
     e(  4 -  4) =     -6.86366  eV     1   --> A'             
     e(  5 -  5) =      3.12577  eV     1   --> A'             
     e(  6 -  6) =      3.88265  eV     1   --> A''            
     e(  7 -  7) =      4.55214  eV     1   --> A'             
     e(  8 -  8) =      5.57070  eV     1   --> A''            
     e(  9 -  9) =      7.01333  eV     1   --> A'             
     e( 10 - 10) =      7.09219  eV     1   --> A''            
     e( 11 - 11) =      8.56596  eV     1   --> A'             
     e( 12 - 12) =      9.95108  eV     1   --> A'             
     e( 13 - 13) =     10.58123  eV     1   --> A''            
     e( 14 - 14) =     11.83242  eV     1   --> A'             
     e( 15 - 15) =     14.22168  eV     1   --> A'             
     e( 16 - 16) =     15.24522  eV     1   --> A''            

 **************************************************************************

 **************************************************************************

                    xk=(  -0.15871,   0.27494,   0.00000  )

     Band symmetry, C_s (m)     point group:

     e(  1 -  1) =    -19.74165  eV     1   --> A'             
     e(  2 -  2) =     -8.76935  eV     1   --> A'             
     e(  3 -  3) =     -7.23886  eV     1   --> A'             
     e(  4 -  4) =     -6.84403  eV     1   --> A''            
     e(  5 -  5) =      3.56794  eV     1   --> A'             
     e(  6 -  6) =      4.11446  eV     1   --> A''            
     e(  7 -  7) =      5.00426  eV     1   --> A'             
     e(  8 -  8) =      5.50250  eV     1   --> A''            
     e(  9 -  9) =      7.27459  eV     1   --> A''            
     e( 10 - 10) =      7.44313  eV     1   --> A'             
     e( 11 - 11) =      8.79825  eV     1   --> A'             
     e( 12 - 12) =     10.23121  eV     1   --> A'             
     e( 13 - 13) =     10.91241  eV     1   --> A''            
     e( 14 - 14) =     12.29903  eV     1   --> A'             
     e( 15 - 15) =     14.89676  eV     1   --> A'             
     e( 16 - 16) =     15.15422  eV     1   --> A''            

 **************************************************************************

 **************************************************************************

                    xk=(  -0.17459,   0.30243,   0.00000  )

     Band symmetry, C_s (m)     point group:

     e(  1 -  1) =    -19.47845  eV     1   --> A'             
     e(  2 -  2) =     -9.26435  eV     1   --> A'             
     e(  3 -  3) =     -7.62069  eV     1   --> A'             
     e(  4 -  4) =     -6.48066  eV     1   --> A''            
     e(  5 -  5) =      4.05419  eV     1   --> A'             
     e(  6 -  6) =      4.10849  eV     1   --> A''            
     e(  7 -  7) =      5.50322  eV     1   --> A'             
     e(  8 -  8) =      5.57173  eV     1   --> A''            
     e(  9 -  9) =      7.62311  eV     1   --> A''            
     e( 10 - 10) =      7.91264  eV     1   --> A'             
     e( 11 - 11) =      9.06606  eV     1   --> A'             
     e( 12 - 12) =     10.52228  eV     1   --> A'             
     e( 13 - 13) =     11.27015  eV     1   --> A''            
     e( 14 - 14) =     12.77077  eV     1   --> A'             
     e( 15 - 15) =     14.81922  eV     1   --> A''            
     e( 16 - 16) =     15.54062  eV     1   --> A'             

 **************************************************************************

 **************************************************************************

                    xk=(  -0.19046,   0.32993,   0.00000  )

     Band symmetry, C_s (m)     point group:

     e(  1 -  1) =    -19.20287  eV     1   --> A'             
     e(  2 -  2) =     -9.73255  eV     1   --> A'             
     e(  3 -  3) =     -8.00384  eV     1   --> A'             
     e(  4 -  4) =     -6.09706  eV     1   --> A''            
     e(  5 -  5) =      3.82722  eV     1   --> A''            
     e(  6 -  6) =      4.58395  eV     1   --> A'             
     e(  7 -  7) =      5.89716  eV     1   --> A''            
     e(  8 -  8) =      6.04886  eV     1   --> A'             
     e(  9 -  9) =      8.06757  eV     1   --> A''            
     e( 10 - 10) =      8.41888  eV     1   --> A'             
     e( 11 - 11) =      9.36156  eV     1   --> A'             
     e( 12 - 12) =     10.82478  eV     1   --> A'             
     e( 13 - 13) =     11.61306  eV     1   --> A''            
     e( 14 - 14) =     13.26020  eV     1   --> A'             
     e( 15 - 15) =     14.38760  eV     1   --> A''            
     e( 16 - 16) =     16.05670  eV     1   --> A'             

 **************************************************************************

 **************************************************************************

                    xk=(  -0.20633,   0.35742,   0.00000  )

     Band symmetry, C_s (m)     point group:

     e(  1 -  1) =    -18.92045  eV     1   --> A'             
     e(  2 -  2) =    -10.16425  eV     1   --> A'             
     e(  3 -  3) =     -8.38352  eV     1   --> A'             
     e(  4 -  4) =     -5.69914  eV     1   --> A''            
     e(  5 -  5) =      3.41639  eV     1   --> A''            
     e(  6 -  6) =      5.15604  eV     1   --> A'             
     e(  7 -  7) =      6.37543  eV     1   --> A''            
     e(  8 -  8) =      6.64079  eV     1   --> A'             
     e(  9 -  9) =      8.56936  eV     1   --> A''            
     e( 10 - 10) =      8.95529  eV     1   --> A'             
     e( 11 - 11) =      9.67565  eV     1   --> A'             
     e( 12 - 12) =     11.14299  eV     1   --> A'             
     e( 13 - 13) =     11.85697  eV     1   --> A''            
     e( 14 - 14) =     13.77483  eV     1   --> A'             
     e( 15 - 15) =     14.07049  eV     1   --> A''            
     e( 16 - 16) =     16.25535  eV     1   --> A'             

 **************************************************************************

 **************************************************************************

                    xk=(  -0.22220,   0.38491,   0.00000  )

     Band symmetry, C_s (m)     point group:

     e(  1 -  1) =    -18.63795  eV     1   --> A'             
     e(  2 -  2) =    -10.55126  eV     1   --> A'             
     e(  3 -  3) =     -8.75531  eV     1   --> A'             
     e(  4 -  4) =     -5.29499  eV     1   --> A''            
     e(  5 -  5) =      2.97146  eV     1   --> A''            
     e(  6 -  6) =      5.76895  eV     1   --> A'             
     e(  7 -  7) =      6.93192  eV     1   --> A''            
     e(  8 -  8) =      7.27845  eV     1   --> A'             
     e(  9 -  9) =      9.09932  eV     1   --> A''            
     e( 10 - 10) =      9.50501  eV     1   --> A'             
     e( 11 - 11) =     10.00370  eV     1   --> A'             
     e( 12 - 12) =     11.48616  eV     1   --> A'             
     e( 13 - 13) =     11.89458  eV     1   --> A''            
     e( 14 - 14) =     14.04895  eV     1   --> A''            
     e( 15 - 15) =     14.31489  eV     1   --> A'             
     e( 16 - 16) =     15.98839  eV     1   --> A'             

 **************************************************************************

 **************************************************************************

                    xk=(  -0.23807,   0.41241,   0.00000  )

     Band symmetry, C_s (m)     point group:

     e(  1 -  1) =    -18.36433  eV     1   --> A'             
     e(  2 -  2) =    -10.88304  eV     1   --> A'             
     e(  3 -  3) =     -9.11567  eV     1   --> A'             
     e(  4 -  4) =     -4.89587  eV     1   --> A''            
     e(  5 -  5) =      2.53591  eV     1   --> A''            
     e(  6 -  6) =      6.41976  eV     1   --> A'             
     e(  7 -  7) =      7.52980  eV     1   --> A''            
     e(  8 -  8) =      7.96066  eV     1   --> A'             
     e(  9 -  9) =      9.61329  eV     1   --> A''            
     e( 10 - 10) =     10.00453  eV     1   --> A'             
     e( 11 - 11) =     10.38179  eV     1   --> A'             
     e( 12 - 12) =     11.78022  eV     1   --> A''            
     e( 13 - 13) =     11.86433  eV     1   --> A'             
     e( 14 - 14) =     14.32866  eV     1   --> A''            
     e( 15 - 15) =     14.86796  eV     1   --> A'             
     e( 16 - 16) =     15.45635  eV     1   --> A'             

 **************************************************************************

 **************************************************************************

                    xk=(  -0.25394,   0.43990,   0.00000  )

     Band symmetry, C_s (m)     point group:

     e(  1 -  1) =    -18.10987  eV     1   --> A'             
     e(  2 -  2) =    -11.14935  eV     1   --> A'             
     e(  3 -  3) =     -9.46062  eV     1   --> A'             
     e(  4 -  4) =     -4.51510  eV     1   --> A''            
     e(  5 -  5) =      2.13580  eV     1   --> A''            
     e(  6 -  6) =      7.10369  eV     1   --> A'             
     e(  7 -  7) =      8.13019  eV     1   --> A''            
     e(  8 -  8) =      8.68489  eV     1   --> A'             
     e(  9 -  9) =     10.02637  eV     1   --> A''            
     e( 10 - 10) =     10.34301  eV     1   --> A'             
     e( 11 - 11) =     10.89071  eV     1   --> A'             
     e( 12 - 12) =     11.75974  eV     1   --> A''            
     e( 13 - 13) =     12.28254  eV     1   --> A'             
     e( 14 - 14) =     14.73144  eV     1   --> A''            
     e( 15 - 15) =     14.87104  eV     1   --> A'             
     e( 16 - 16) =     15.34613  eV     1   --> A'             

 **************************************************************************

 **************************************************************************

                    xk=(  -0.26981,   0.46739,   0.00000  )

     Band symmetry, C_s (m)     point group:

     e(  1 -  1) =    -17.88629  eV     1   --> A'             
     e(  2 -  2) =    -11.33921  eV     1   --> A'             
     e(  3 -  3) =     -9.78645  eV     1   --> A'             
     e(  4 -  4) =     -4.17030  eV     1   --> A''            
     e(  5 -  5) =      1.79024  eV     1   --> A''            
     e(  6 -  6) =      7.81133  eV     1   --> A'             
     e(  7 -  7) =      8.65018  eV     1   --> A''            
     e(  8 -  8) =      9.44358  eV     1   --> A'             
     e(  9 -  9) =     10.29690  eV     1   --> A''            
     e( 10 - 10) =     10.56252  eV     1   --> A'             
     e( 11 - 11) =     11.45320  eV     1   --> A'             
     e( 12 - 12) =     12.04276  eV     1   --> A''            
     e( 13 - 13) =     12.72445  eV     1   --> A'             
     e( 14 - 14) =     14.34896  eV     1   --> A'             
     e( 15 - 15) =     14.82168  eV     1   --> A''            
     e( 16 - 16) =     14.99371  eV     1   --> A'             

 **************************************************************************

 **************************************************************************

                    xk=(  -0.28569,   0.49489,   0.00000  )

     Band symmetry, C_s (m)     point group:

     e(  1 -  1) =    -17.70500  eV     1   --> A'             
     e(  2 -  2) =    -11.44477  eV     1   --> A'             
     e(  3 -  3) =    -10.08837  eV     1   --> A'             
     e(  4 -  4) =     -3.88117  eV     1   --> A''            
     e(  5 -  5) =      1.51625  eV     1   --> A''            
     e(  6 -  6) =      8.52202  eV     1   --> A'             
     e(  7 -  7) =      8.94110  eV     1   --> A''            
     e(  8 -  8) =     10.19566  eV     1   --> A'             
     e(  9 -  9) =     10.64492  eV     1   --> A''            
     e( 10 - 10) =     10.75851  eV     1   --> A'             
     e( 11 - 11) =     11.92896  eV     1   --> A'             
     e( 12 - 12) =     12.58234  eV     1   --> A''            
     e( 13 - 13) =     13.11494  eV     1   --> A'             
     e( 14 - 14) =     14.03445  eV     1   --> A'             
     e( 15 - 15) =     14.32541  eV     1   --> A''            
     e( 16 - 16) =     14.43764  eV     1   --> A'             

 **************************************************************************

 **************************************************************************

                    xk=(  -0.30156,   0.52238,   0.00000  )

     Band symmetry, C_s (m)     point group:

     e(  1 -  1) =    -17.57465  eV     1   --> A'             
     e(  2 -  2) =    -11.46566  eV     1   --> A'             
     e(  3 -  3) =    -10.35726  eV     1   --> A'             
     e(  4 -  4) =     -3.66665  eV     1   --> A''            
     e(  5 -  5) =      1.32573  eV     1   --> A''            
     e(  6 -  6) =      8.98300  eV     1   --> A''            
     e(  7 -  7) =      9.18286  eV     1   --> A'             
     e(  8 -  8) =     10.65988  eV     1   --> A'             
     e(  9 -  9) =     11.23274  eV     1   --> A''            
     e( 10 - 10) =     11.24600  eV     1   --> A'             
     e( 11 - 11) =     12.10024  eV     1   --> A'             
     e( 12 - 12) =     13.16745  eV     1   --> A''            
     e( 13 - 13) =     13.38039  eV     1   --> A'             
     e( 14 - 14) =     13.81548  eV     1   --> A''            
     e( 15 - 15) =     13.87218  eV     1   --> A'             
     e( 16 - 16) =     14.11989  eV     1   --> A'             

 **************************************************************************

 **************************************************************************

                    xk=(  -0.31743,   0.54988,   0.00000  )

     Band symmetry, C_s (m)     point group:

     e(  1 -  1) =    -17.49923  eV     1   --> A'             
     e(  2 -  2) =    -11.42228  eV     1   --> A'             
     e(  3 -  3) =    -10.57129  eV     1   --> A'             
     e(  4 -  4) =     -3.53984  eV     1   --> A''            
     e(  5 -  5) =      1.22068  eV     1   --> A''            
     e(  6 -  6) =      8.93468  eV     1   --> A''            
     e(  7 -  7) =      9.65885  eV     1   --> A'             
     e(  8 -  8) =     10.89733  eV     1   --> A'             
     e(  9 -  9) =     11.77100  eV     1   --> A'             
     e( 10 - 10) =     11.95091  eV     1   --> A''            
     e( 11 - 11) =     12.19410  eV     1   --> A'             
     e( 12 - 12) =     13.13891  eV     1   --> A''            
     e( 13 - 13) =     13.35522  eV     1   --> A'             
     e( 14 - 14) =     13.51693  eV     1   --> A'             
     e( 15 - 15) =     13.66937  eV     1   --> A''            
     e( 16 - 16) =     14.07370  eV     1   --> A'             

 **************************************************************************

 **************************************************************************

                    xk=(  -0.33330,   0.57737,   0.00000  )

     Band symmetry, C_s (m)     point group:

     e(  1 -  1) =    -17.47548  eV     1   --> A'             
     e(  2 -  2) =    -11.38187  eV     1   --> A'             
     e(  3 -  3) =    -10.66582  eV     1   --> A'             
     e(  4 -  4) =     -3.49873  eV     1   --> A''            
     e(  5 -  5) =      1.19081  eV     1   --> A''            
     e(  6 -  6) =      8.90641  eV     1   --> A''            
     e(  7 -  7) =      9.80870  eV     1   --> A'             
     e(  8 -  8) =     11.10449  eV     1   --> A'             
     e(  9 -  9) =     11.62853  eV     1   --> A'             
     e( 10 - 10) =     12.45193  eV     1   --> A''            
     e( 11 - 11) =     12.85893  eV     1   --> A''            
     e( 12 - 12) =     12.86419  eV     1   --> A'             
     e( 13 - 13) =     13.01046  eV     1   --> A'             
     e( 14 - 14) =     13.18599  eV     1   --> A'             
     e( 15 - 15) =     13.50606  eV     1   --> A''            
     e( 16 - 16) =     14.21538  eV     1   --> A'             

 **************************************************************************

 **************************************************************************

                    xk=(  -0.30300,   0.57737,   0.00000  )

     Band symmetry, C_s (m)     point group:

     e(  1 -  1) =    -17.49423  eV     1   --> A'             
     e(  2 -  2) =    -11.43715  eV     1   --> A'             
     e(  3 -  3) =    -10.56565  eV     1   --> A'             
     e(  4 -  4) =     -3.53046  eV     1   --> A''            
     e(  5 -  5) =      1.21003  eV     1   --> A''            
     e(  6 -  6) =      8.93931  eV     1   --> A''            
     e(  7 -  7) =      9.71746  eV     1   --> A'             
     e(  8 -  8) =     10.88853  eV     1   --> A'             
     e(  9 -  9) =     11.71417  eV     1   --> A'             
     e( 10 - 10) =     12.16873  eV     1   --> A''            
     e( 11 - 11) =     12.54045  eV     1   --> A'             
     e( 12 - 12) =     12.72030  eV     1   --> A'             
     e( 13 - 13) =     12.76208  eV     1   --> A''            
     e( 14 - 14) =     13.75642  eV     1   --> A'             
     e( 15 - 15) =     13.85896  eV     1   --> A''            
     e( 16 - 16) =     14.13798  eV     1   --> A'             

 **************************************************************************

 **************************************************************************

                    xk=(  -0.27270,   0.57737,   0.00000  )

     Band symmetry, C_s (m)     point group:

     e(  1 -  1) =    -17.54264  eV     1   --> A'             
     e(  2 -  2) =    -11.56682  eV     1   --> A'             
     e(  3 -  3) =    -10.30901  eV     1   --> A'             
     e(  4 -  4) =     -3.61110  eV     1   --> A''            
     e(  5 -  5) =      1.25195  eV     1   --> A''            
     e(  6 -  6) =      9.04009  eV     1   --> A''            
     e(  7 -  7) =      9.50024  eV     1   --> A'             
     e(  8 -  8) =     10.53860  eV     1   --> A'             
     e(  9 -  9) =     11.56481  eV     1   --> A'             
     e( 10 - 10) =     11.79942  eV     1   --> A''            
     e( 11 - 11) =     12.17291  eV     1   --> A'             
     e( 12 - 12) =     12.40054  eV     1   --> A'             
     e( 13 - 13) =     12.47986  eV     1   --> A''            
     e( 14 - 14) =     13.87632  eV     1   --> A'             
     e( 15 - 15) =     14.00793  eV     1   --> A''            
     e( 16 - 16) =     14.30816  eV     1   --> A'             

 **************************************************************************

 **************************************************************************

                    xk=(  -0.24240,   0.57736,   0.00000  )

     Band symmetry, C_s (m)     point group:

     e(  1 -  1) =    -17.61080  eV     1   --> A'             
     e(  2 -  2) =    -11.71613  eV     1   --> A'             
     e(  3 -  3) =     -9.96800  eV     1   --> A'             
     e(  4 -  4) =     -3.72210  eV     1   --> A''            
     e(  5 -  5) =      1.29621  eV     1   --> A''            
     e(  6 -  6) =      9.18890  eV     1   --> A'             
     e(  7 -  7) =      9.19736  eV     1   --> A''            
     e(  8 -  8) =     10.19643  eV     1   --> A'             
     e(  9 -  9) =     11.19569  eV     1   --> A'             
     e( 10 - 10) =     11.46062  eV     1   --> A''            
     e( 11 - 11) =     11.82301  eV     1   --> A'             
     e( 12 - 12) =     12.05992  eV     1   --> A'             
     e( 13 - 13) =     12.21520  eV     1   --> A''            
     e( 14 - 14) =     13.65263  eV     1   --> A'             
     e( 15 - 15) =     13.72288  eV     1   --> A''            
     e( 16 - 16) =     14.47157  eV     1   --> A''            

 **************************************************************************

 **************************************************************************

                    xk=(  -0.21210,   0.57736,   0.00000  )

     Band symmetry, C_s (m)     point group:

     e(  1 -  1) =    -17.68945  eV     1   --> A'             
     e(  2 -  2) =    -11.86095  eV     1   --> A'             
     e(  3 -  3) =     -9.58417  eV     1   --> A'             
     e(  4 -  4) =     -3.84759  eV     1   --> A''            
     e(  5 -  5) =      1.32986  eV     1   --> A''            
     e(  6 -  6) =      8.79030  eV     1   --> A'             
     e(  7 -  7) =      9.38108  eV     1   --> A''            
     e(  8 -  8) =      9.89162  eV     1   --> A'             
     e(  9 -  9) =     10.77484  eV     1   --> A'             
     e( 10 - 10) =     11.16324  eV     1   --> A''            
     e( 11 - 11) =     11.51143  eV     1   --> A'             
     e( 12 - 12) =     11.72604  eV     1   --> A'             
     e( 13 - 13) =     12.01241  eV     1   --> A''            
     e( 14 - 14) =     13.43689  eV     1   --> A''            
     e( 15 - 15) =     13.45462  eV     1   --> A'             
     e( 16 - 16) =     14.23930  eV     1   --> A'             

 **************************************************************************

 **************************************************************************

                    xk=(  -0.18180,   0.57736,   0.00000  )

     Band symmetry, C_s (m)     point group:

     e(  1 -  1) =    -17.77041  eV     1   --> A'             
     e(  2 -  2) =    -11.99151  eV     1   --> A'             
     e(  3 -  3) =     -9.18353  eV     1   --> A'             
     e(  4 -  4) =     -3.97406  eV     1   --> A''            
     e(  5 -  5) =      1.34858  eV     1   --> A''            
     e(  6 -  6) =      8.31906  eV     1   --> A'             
     e(  7 -  7) =      9.54823  eV     1   --> A''            
     e(  8 -  8) =      9.63371  eV     1   --> A'             
     e(  9 -  9) =     10.38709  eV     1   --> A'             
     e( 10 - 10) =     10.91018  eV     1   --> A''            
     e( 11 - 11) =     11.24183  eV     1   --> A'             
     e( 12 - 12) =     11.43107  eV     1   --> A'             
     e( 13 - 13) =     11.88814  eV     1   --> A''            
     e( 14 - 14) =     13.18777  eV     1   --> A''            
     e( 15 - 15) =     13.27985  eV     1   --> A'             
     e( 16 - 16) =     13.99321  eV     1   --> A'             

 **************************************************************************

 **************************************************************************

                    xk=(  -0.15150,   0.57736,   0.00000  )

     Band symmetry, C_s (m)     point group:

     e(  1 -  1) =    -17.84792  eV     1   --> A'             
     e(  2 -  2) =    -12.10504  eV     1   --> A'             
     e(  3 -  3) =     -8.78919  eV     1   --> A'             
     e(  4 -  4) =     -4.09325  eV     1   --> A''            
     e(  5 -  5) =      1.35294  eV     1   --> A''            
     e(  6 -  6) =      7.81097  eV     1   --> A'             
     e(  7 -  7) =      9.42130  eV     1   --> A'             
     e(  8 -  8) =      9.65969  eV     1   --> A''            
     e(  9 -  9) =     10.06497  eV     1   --> A'             
     e( 10 - 10) =     10.70149  eV     1   --> A''            
     e( 11 - 11) =     11.01385  eV     1   --> A'             
     e( 12 - 12) =     11.18237  eV     1   --> A'             
     e( 13 - 13) =     11.83931  eV     1   --> A''            
     e( 14 - 14) =     12.98147  eV     1   --> A''            
     e( 15 - 15) =     13.12668  eV     1   --> A'             
     e( 16 - 16) =     13.77540  eV     1   --> A'             

 **************************************************************************

 **************************************************************************

                    xk=(  -0.12120,   0.57736,   0.00000  )

     Band symmetry, C_s (m)     point group:

     e(  1 -  1) =    -17.91688  eV     1   --> A'             
     e(  2 -  2) =    -12.19905  eV     1   --> A'             
     e(  3 -  3) =     -8.42242  eV     1   --> A'             
     e(  4 -  4) =     -4.19778  eV     1   --> A''            
     e(  5 -  5) =      1.34714  eV     1   --> A''            
     e(  6 -  6) =      7.31470  eV     1   --> A'             
     e(  7 -  7) =      9.25096  eV     1   --> A'             
     e(  8 -  8) =      9.70444  eV     1   --> A''            
     e(  9 -  9) =      9.81239  eV     1   --> A'             
     e( 10 - 10) =     10.53522  eV     1   --> A''            
     e( 11 - 11) =     10.82732  eV     1   --> A'             
     e( 12 - 12) =     10.98019  eV     1   --> A'             
     e( 13 - 13) =     11.83677  eV     1   --> A''            
     e( 14 - 14) =     12.81870  eV     1   --> A''            
     e( 15 - 15) =     12.99734  eV     1   --> A'             
     e( 16 - 16) =     13.59313  eV     1   --> A'             

 **************************************************************************

 **************************************************************************

                    xk=(  -0.09090,   0.57736,   0.00000  )

     Band symmetry, C_s (m)     point group:

     e(  1 -  1) =    -17.97374  eV     1   --> A'             
     e(  2 -  2) =    -12.27288  eV     1   --> A'             
     e(  3 -  3) =     -8.10527  eV     1   --> A'             
     e(  4 -  4) =     -4.28237  eV     1   --> A''            
     e(  5 -  5) =      1.33654  eV     1   --> A''            
     e(  6 -  6) =      6.87675  eV     1   --> A'             
     e(  7 -  7) =      9.11984  eV     1   --> A'             
     e(  8 -  8) =      9.62361  eV     1   --> A'             
     e(  9 -  9) =      9.70170  eV     1   --> A''            
     e( 10 - 10) =     10.40846  eV     1   --> A''            
     e( 11 - 11) =     10.68211  eV     1   --> A'             
     e( 12 - 12) =     10.82373  eV     1   --> A'             
     e( 13 - 13) =     11.84411  eV     1   --> A''            
     e( 14 - 14) =     12.69723  eV     1   --> A''            
     e( 15 - 15) =     12.89383  eV     1   --> A'             
     e( 16 - 16) =     13.44957  eV     1   --> A'             

 **************************************************************************

 **************************************************************************

                    xk=(  -0.06060,   0.57735,   0.00000  )

     Band symmetry, C_s (m)     point group:

     e(  1 -  1) =    -18.01620  eV     1   --> A'             
     e(  2 -  2) =    -12.32587  eV     1   --> A'             
     e(  3 -  3) =     -7.85919  eV     1   --> A'             
     e(  4 -  4) =     -4.34556  eV     1   --> A''            
     e(  5 -  5) =      1.32514  eV     1   --> A''            
     e(  6 -  6) =      6.53450  eV     1   --> A'             
     e(  7 -  7) =      9.02668  eV     1   --> A'             
     e(  8 -  8) =      9.49265  eV     1   --> A'             
     e(  9 -  9) =      9.67907  eV     1   --> A''            
     e( 10 - 10) =     10.31881  eV     1   --> A''            
     e( 11 - 11) =     10.57833  eV     1   --> A'             
     e( 12 - 12) =     10.71236  eV     1   --> A'             
     e( 13 - 13) =     11.84414  eV     1   --> A''            
     e( 14 - 14) =     12.61341  eV     1   --> A''            
     e( 15 - 15) =     12.81843  eV     1   --> A'             
     e( 16 - 16) =     13.34630  eV     1   --> A'             

 **************************************************************************

 **************************************************************************

                    xk=(  -0.03030,   0.57735,   0.00000  )

     Band symmetry, C_s (m)     point group:

     e(  1 -  1) =    -18.04218  eV     1   --> A'             
     e(  2 -  2) =    -12.35758  eV     1   --> A'             
     e(  3 -  3) =     -7.70244  eV     1   --> A'             
     e(  4 -  4) =     -4.38405  eV     1   --> A''            
     e(  5 -  5) =      1.31692  eV     1   --> A''            
     e(  6 -  6) =      6.31687  eV     1   --> A'             
     e(  7 -  7) =      8.97102  eV     1   --> A'             
     e(  8 -  8) =      9.41552  eV     1   --> A'             
     e(  9 -  9) =      9.65795  eV     1   --> A''            
     e( 10 - 10) =     10.26520  eV     1   --> A''            
     e( 11 - 11) =     10.51607  eV     1   --> A'             
     e( 12 - 12) =     10.64568  eV     1   --> A'             
     e( 13 - 13) =     11.83934  eV     1   --> A''            
     e( 14 - 14) =     12.56425  eV     1   --> A''            
     e( 15 - 15) =     12.77277  eV     1   --> A'             
     e( 16 - 16) =     13.28411  eV     1   --> A'             

 **************************************************************************

 **************************************************************************

                    xk=(   0.00000,   0.57735,   0.00000  )

     point group C_2v (mm2) 
     there are  4 classes
     the character table:

       E     C2    s_v   s_v' 
A_1    1.00  1.00  1.00  1.00
A_2    1.00  1.00 -1.00 -1.00
B_1    1.00 -1.00  1.00 -1.00
B_2    1.00 -1.00 -1.00  1.00

     the symmetry operations in each class and the name of the first element:

     E        1
                                                                 
     C2       2
                                                                 
     s_v      3
                                                                 
     s_v'     4
                                                                 

     Band symmetry, C_2v (mm2)  point group:

     e(  1 -  1) =    -18.05087  eV     1   --> A_1  D_1  S_1  
     e(  2 -  2) =    -12.36818  eV     1   --> A_1  D_1  S_1  
     e(  3 -  3) =     -7.64852  eV     1   --> B_1  D_3  S_3  
     e(  4 -  4) =     -4.39701  eV     1   --> B_2  D_4  S_4  
     e(  5 -  5) =      1.31390  eV     1   --> B_2  D_4  S_4  
     e(  6 -  6) =      6.24217  eV     1   --> A_1  D_1  S_1  
     e(  7 -  7) =      8.95246  eV     1   --> A_1  D_1  S_1  
     e(  8 -  8) =      9.39003  eV     1   --> A_1  D_1  S_1  
     e(  9 -  9) =      9.64973  eV     1   --> B_2  D_4  S_4  
     e( 10 - 10) =     10.24734  eV     1   --> B_2  D_4  S_4  
     e( 11 - 11) =     10.49530  eV     1   --> A_1  D_1  S_1  
     e( 12 - 12) =     10.62348  eV     1   --> A_1  D_1  S_1  
     e( 13 - 13) =     11.83672  eV     1   --> B_2  D_4  S_4  
     e( 14 - 14) =     12.54802  eV     1   --> B_2  D_4  S_4  
     e( 15 - 15) =     12.75741  eV     1   --> A_1  D_1  S_1  
     e( 16 - 16) =     13.26334  eV     1   --> A_1  D_1  S_1  

 **************************************************************************

 **************************************************************************

                    xk=(   0.00000,   0.54528,   0.00000  )

     Band symmetry, C_2v (mm2)  point group:

     e(  1 -  1) =    -18.09545  eV     1   --> A_1  D_1  S_1  
     e(  2 -  2) =    -12.29936  eV     1   --> A_1  D_1  S_1  
     e(  3 -  3) =     -7.63284  eV     1   --> B_1  D_3  S_3  
     e(  4 -  4) =     -4.46704  eV     1   --> B_2  D_4  S_4  
     e(  5 -  5) =      1.40453  eV     1   --> B_2  D_4  S_4  
     e(  6 -  6) =      6.21509  eV     1   --> A_1  D_1  S_1  
     e(  7 -  7) =      8.41801  eV     1   --> A_1  D_1  S_1  
     e(  8 -  8) =      9.12522  eV     1   --> B_2  D_4  S_4  
     e(  9 -  9) =      9.67062  eV     1   --> A_1  D_1  S_1  
     e( 10 - 10) =     10.03735  eV     1   --> A_1  D_1  S_1  
     e( 11 - 11) =     10.69895  eV     1   --> B_2  D_4  S_4  
     e( 12 - 12) =     11.42183  eV     1   --> A_1  D_1  S_1  
     e( 13 - 13) =     11.48811  eV     1   --> B_2  D_4  S_4  
     e( 14 - 14) =     12.22411  eV     1   --> A_1  D_1  S_1  
     e( 15 - 15) =     12.97465  eV     1   --> B_2  D_4  S_4  
     e( 16 - 16) =     13.81496  eV     1   --> A_1  D_1  S_1  

 **************************************************************************

 **************************************************************************

                    xk=(   0.00000,   0.51320,   0.00000  )

     Band symmetry, C_2v (mm2)  point group:

     e(  1 -  1) =    -18.22206  eV     1   --> A_1  D_1  S_1  
     e(  2 -  2) =    -12.09838  eV     1   --> A_1  D_1  S_1  
     e(  3 -  3) =     -7.58560  eV     1   --> B_1  D_3  S_3  
     e(  4 -  4) =     -4.66354  eV     1   --> B_2  D_4  S_4  
     e(  5 -  5) =      1.66122  eV     1   --> B_2  D_4  S_4  
     e(  6 -  6) =      6.11753  eV     1   --> A_1  D_1  S_1  
     e(  7 -  7) =      7.79681  eV     1   --> A_1  D_1  S_1  
     e(  8 -  8) =      8.40771  eV     1   --> B_2  D_4  S_4  
     e(  9 -  9) =      8.93237  eV     1   --> A_1  D_1  S_1  
     e( 10 - 10) =     10.53221  eV     1   --> B_2  D_4  S_4  
     e( 11 - 11) =     10.73862  eV     1   --> A_1  D_1  S_1  
     e( 12 - 12) =     11.52921  eV     1   --> A_1  D_1  S_1  
     e( 13 - 13) =     11.75726  eV     1   --> B_2  D_4  S_4  
     e( 14 - 14) =     12.37687  eV     1   --> A_1  D_1  S_1  
     e( 15 - 15) =     13.48324  eV     1   --> B_2  D_4  S_4  
     e( 16 - 16) =     14.44609  eV     1   --> A_1  D_1  S_1  

 **************************************************************************

 **************************************************************************

                    xk=(   0.00000,   0.48113,   0.00000  )

     Band symmetry, C_2v (mm2)  point group:

     e(  1 -  1) =    -18.41371  eV     1   --> A_1  D_1  S_1  
     e(  2 -  2) =    -11.78360  eV     1   --> A_1  D_1  S_1  
     e(  3 -  3) =     -7.50713  eV     1   --> B_1  D_3  S_3  
     e(  4 -  4) =     -4.95386  eV     1   --> B_2  D_4  S_4  
     e(  5 -  5) =      2.04728  eV     1   --> B_2  D_4  S_4  
     e(  6 -  6) =      5.89958  eV     1   --> A_1  D_1  S_1  
     e(  7 -  7) =      7.30321  eV     1   --> A_1  D_1  S_1  
     e(  8 -  8) =      7.71132  eV     1   --> B_2  D_4  S_4  
     e(  9 -  9) =      8.22460  eV     1   --> A_1  D_1  S_1  
     e( 10 - 10) =      9.91014  eV     1   --> B_2  D_4  S_4  
     e( 11 - 11) =     10.67057  eV     1   --> A_1  D_1  S_1  
     e( 12 - 12) =     11.71432  eV     1   --> A_1  D_1  S_1  
     e( 13 - 13) =     12.39701  eV     1   --> B_2  D_4  S_4  
     e( 14 - 14) =     13.30667  eV     1   --> A_1  D_1  S_1  
     e( 15 - 15) =     13.58881  eV     1   --> B_2  D_4  S_4  
     e( 16 - 16) =     14.47443  eV     1   --> A_1  D_1  S_1  

 **************************************************************************

 **************************************************************************

                    xk=(   0.00000,   0.44905,   0.00000  )

     Band symmetry, C_2v (mm2)  point group:

     e(  1 -  1) =    -18.64985  eV     1   --> A_1  D_1  S_1  
     e(  2 -  2) =    -11.37701  eV     1   --> A_1  D_1  S_1  
     e(  3 -  3) =     -7.39840  eV     1   --> B_1  D_3  S_3  
     e(  4 -  4) =     -5.30303  eV     1   --> B_2  D_4  S_4  
     e(  5 -  5) =      2.51921  eV     1   --> B_2  D_4  S_4  
     e(  6 -  6) =      5.52719  eV     1   --> A_1  D_1  S_1  
     e(  7 -  7) =      6.94190  eV     1   --> A_1  D_1  S_1  
     e(  8 -  8) =      7.05812  eV     1   --> B_2  D_4  S_4  
     e(  9 -  9) =      7.62255  eV     1   --> A_1  D_1  S_1  
     e( 10 - 10) =      9.28265  eV     1   --> B_2  D_4  S_4  
     e( 11 - 11) =     10.05554  eV     1   --> A_1  D_1  S_1  
     e( 12 - 12) =     12.37318  eV     1   --> A_1  D_1  S_1  
     e( 13 - 13) =     12.56810  eV     1   --> B_2  D_4  S_4  
     e( 14 - 14) =     13.84389  eV     1   --> B_2  D_4  S_4  
     e( 15 - 15) =     13.93034  eV     1   --> A_1  D_1  S_1  
     e( 16 - 16) =     14.46041  eV     1   --> A_1  D_1  S_1  

 **************************************************************************

 **************************************************************************

                    xk=(   0.00000,   0.41698,   0.00000  )

     Band symmetry, C_2v (mm2)  point group:

     e(  1 -  1) =    -18.91156  eV     1   --> A_1  D_1  S_1  
     e(  2 -  2) =    -10.89933  eV     1   --> A_1  D_1  S_1  
     e(  3 -  3) =     -7.26059  eV     1   --> B_1  D_3  S_3  
     e(  4 -  4) =     -5.68071  eV     1   --> B_2  D_4  S_4  
     e(  5 -  5) =      3.03378  eV     1   --> B_2  D_4  S_4  
     e(  6 -  6) =      5.05110  eV     1   --> A_1  D_1  S_1  
     e(  7 -  7) =      6.46129  eV     1   --> B_2  D_4  S_4  
     e(  8 -  8) =      6.54827  eV     1   --> A_1  D_1  S_1  
     e(  9 -  9) =      7.24452  eV     1   --> A_1  D_1  S_1  
     e( 10 - 10) =      8.69102  eV     1   --> B_2  D_4  S_4  
     e( 11 - 11) =      9.45666  eV     1   --> A_1  D_1  S_1  
     e( 12 - 12) =     12.24304  eV     1   --> B_2  D_4  S_4  
     e( 13 - 13) =     12.63782  eV     1   --> A_1  D_1  S_1  
     e( 14 - 14) =     13.90085  eV     1   --> A_1  D_1  S_1  
     e( 15 - 15) =     14.46553  eV     1   --> B_2  D_4  S_4  
     e( 16 - 16) =     15.35700  eV     1   --> A_1  D_1  S_1  

 **************************************************************************

 **************************************************************************

                    xk=(   0.00000,   0.38490,   0.00000  )

     Band symmetry, C_2v (mm2)  point group:

     e(  1 -  1) =    -19.18415  eV     1   --> A_1  D_1  S_1  
     e(  2 -  2) =    -10.36901  eV     1   --> A_1  D_1  S_1  
     e(  3 -  3) =     -7.09658  eV     1   --> B_1  D_3  S_3  
     e(  4 -  4) =     -6.06730  eV     1   --> B_2  D_4  S_4  
     e(  5 -  5) =      3.53755  eV     1   --> B_2  D_4  S_4  
     e(  6 -  6) =      4.54383  eV     1   --> A_1  D_1  S_1  
     e(  7 -  7) =      5.94239  eV     1   --> B_2  D_4  S_4  
     e(  8 -  8) =      6.04397  eV     1   --> A_1  D_1  S_1  
     e(  9 -  9) =      7.09256  eV     1   --> A_1  D_1  S_1  
     e( 10 - 10) =      8.14953  eV     1   --> B_2  D_4  S_4  
     e( 11 - 11) =      8.90865  eV     1   --> A_1  D_1  S_1  
     e( 12 - 12) =     11.81118  eV     1   --> B_2  D_4  S_4  
     e( 13 - 13) =     12.35093  eV     1   --> A_1  D_1  S_1  
     e( 14 - 14) =     14.09087  eV     1   --> A_1  D_1  S_1  
     e( 15 - 15) =     15.04480  eV     1   --> B_1  D_3  S_3  
     e( 16 - 16) =     15.04916  eV     1   --> B_2  D_4  S_4  

 **************************************************************************

 **************************************************************************

                    xk=(   0.00000,   0.35283,   0.00000  )

     Band symmetry, C_2v (mm2)  point group:

     e(  1 -  1) =    -19.45607  eV     1   --> A_1  D_1  S_1  
     e(  2 -  2) =     -9.80011  eV     1   --> A_1  D_1  S_1  
     e(  3 -  3) =     -6.90804  eV     1   --> B_1  D_3  S_3  
     e(  4 -  4) =     -6.44756  eV     1   --> B_2  D_4  S_4  
     e(  5 -  5) =      3.94030  eV     1   --> B_2  D_4  S_4  
     e(  6 -  6) =      4.04593  eV     1   --> A_1  D_1  S_1  
     e(  7 -  7) =      5.52417  eV     1   --> A_1  D_1  S_1  
     e(  8 -  8) =      5.55912  eV     1   --> B_2  D_4  S_4  
     e(  9 -  9) =      7.01863  eV     1   --> A_1  D_1  S_1  
     e( 10 - 10) =      7.67378  eV     1   --> B_2  D_4  S_4  
     e( 11 - 11) =      8.43084  eV     1   --> A_1  D_1  S_1  
     e( 12 - 12) =     11.37838  eV     1   --> B_2  D_4  S_4  
     e( 13 - 13) =     11.89423  eV     1   --> A_1  D_1  S_1  
     e( 14 - 14) =     14.09735  eV     1   --> A_1  D_1  S_1  
     e( 15 - 15) =     14.21389  eV     1   --> B_1  D_3  S_3  
     e( 16 - 16) =     15.41125  eV     1   --> B_2  D_4  S_4  

 **************************************************************************

 **************************************************************************

                    xk=(   0.00000,   0.32075,   0.00000  )

     Band symmetry, C_2v (mm2)  point group:

     e(  1 -  1) =    -19.71943  eV     1   --> A_1  D_1  S_1  
     e(  2 -  2) =     -9.20612  eV     1   --> A_1  D_1  S_1  
     e(  3 -  3) =     -6.81203  eV     1   --> B_2  D_4  S_4  
     e(  4 -  4) =     -6.69844  eV     1   --> B_1  D_3  S_3  
     e(  5 -  5) =      3.57520  eV     1   --> A_1  D_1  S_1  
     e(  6 -  6) =      4.07235  eV     1   --> B_2  D_4  S_4  
     e(  7 -  7) =      5.03210  eV     1   --> A_1  D_1  S_1  
     e(  8 -  8) =      5.43384  eV     1   --> B_2  D_4  S_4  
     e(  9 -  9) =      6.93188  eV     1   --> A_1  D_1  S_1  
     e( 10 - 10) =      7.29366  eV     1   --> B_2  D_4  S_4  
     e( 11 - 11) =      8.05475  eV     1   --> A_1  D_1  S_1  
     e( 12 - 12) =     10.97549  eV     1   --> B_2  D_4  S_4  
     e( 13 - 13) =     11.41731  eV     1   --> A_1  D_1  S_1  
     e( 14 - 14) =     13.37462  eV     1   --> B_1  D_3  S_3  
     e( 15 - 15) =     13.88014  eV     1   --> A_1  D_1  S_1  
     e( 16 - 16) =     15.49573  eV     1   --> B_2  D_4  S_4  

 **************************************************************************

 **************************************************************************

                    xk=(   0.00000,   0.28868,   0.00000  )

     Band symmetry, C_2v (mm2)  point group:

     e(  1 -  1) =    -19.96828  eV     1   --> A_1  D_1  S_1  
     e(  2 -  2) =     -8.59947  eV     1   --> A_1  D_1  S_1  
     e(  3 -  3) =     -7.15396  eV     1   --> B_2  D_4  S_4  
     e(  4 -  4) =     -6.47184  eV     1   --> B_1  D_3  S_3  
     e(  5 -  5) =      3.14004  eV     1   --> A_1  D_1  S_1  
     e(  6 -  6) =      3.89458  eV     1   --> B_2  D_4  S_4  
     e(  7 -  7) =      4.57994  eV     1   --> A_1  D_1  S_1  
     e(  8 -  8) =      5.51930  eV     1   --> B_2  D_4  S_4  
     e(  9 -  9) =      6.77042  eV     1   --> A_1  D_1  S_1  
     e( 10 - 10) =      7.07500  eV     1   --> B_2  D_4  S_4  
     e( 11 - 11) =      7.82213  eV     1   --> A_1  D_1  S_1  
     e( 12 - 12) =     10.61879  eV     1   --> B_2  D_4  S_4  
     e( 13 - 13) =     10.95505  eV     1   --> A_1  D_1  S_1  
     e( 14 - 14) =     12.54630  eV     1   --> B_1  D_3  S_3  
     e( 15 - 15) =     13.54553  eV     1   --> A_1  D_1  S_1  
     e( 16 - 16) =     15.39091  eV     1   --> B_2  D_4  S_4  

 **************************************************************************

 **************************************************************************

                    xk=(   0.00000,   0.25660,   0.00000  )

     Band symmetry, C_2v (mm2)  point group:

     e(  1 -  1) =    -20.19816  eV     1   --> A_1  D_1  S_1  
     e(  2 -  2) =     -7.99135  eV     1   --> A_1  D_1  S_1  
     e(  3 -  3) =     -7.46802  eV     1   --> B_2  D_4  S_4  
     e(  4 -  4) =     -6.23275  eV     1   --> B_1  D_3  S_3  
     e(  5 -  5) =      2.74466  eV     1   --> A_1  D_1  S_1  
     e(  6 -  6) =      3.59755  eV     1   --> B_2  D_4  S_4  
     e(  7 -  7) =      4.17188  eV     1   --> A_1  D_1  S_1  
     e(  8 -  8) =      5.52694  eV     1   --> B_2  D_4  S_4  
     e(  9 -  9) =      6.52532  eV     1   --> A_1  D_1  S_1  
     e( 10 - 10) =      7.09617  eV     1   --> B_2  D_4  S_4  
     e( 11 - 11) =      7.73317  eV     1   --> A_1  D_1  S_1  
     e( 12 - 12) =     10.32173  eV     1   --> B_2  D_4  S_4  
     e( 13 - 13) =     10.51885  eV     1   --> A_1  D_1  S_1  
     e( 14 - 14) =     11.74836  eV     1   --> B_1  D_3  S_3  
     e( 15 - 15) =     13.16512  eV     1   --> A_1  D_1  S_1  
     e( 16 - 16) =     15.20659  eV     1   --> B_2  D_4  S_4  

 **************************************************************************

 **************************************************************************

                    xk=(   0.00000,   0.22453,   0.00000  )

     Band symmetry, C_2v (mm2)  point group:

     e(  1 -  1) =    -20.40620  eV     1   --> A_1  D_1  S_1  
     e(  2 -  2) =     -7.75083  eV     1   --> B_2  D_4  S_4  
     e(  3 -  3) =     -7.39409  eV     1   --> A_1  D_1  S_1  
     e(  4 -  4) =     -5.98775  eV     1   --> B_1  D_3  S_3  
     e(  5 -  5) =      2.39123  eV     1   --> A_1  D_1  S_1  
     e(  6 -  6) =      3.29014  eV     1   --> B_2  D_4  S_4  
     e(  7 -  7) =      3.80966  eV     1   --> A_1  D_1  S_1  
     e(  8 -  8) =      5.38275  eV     1   --> B_2  D_4  S_4  
     e(  9 -  9) =      6.24443  eV     1   --> A_1  D_1  S_1  
     e( 10 - 10) =      7.29856  eV     1   --> B_2  D_4  S_4  
     e( 11 - 11) =      7.73459  eV     1   --> A_1  D_1  S_1  
     e( 12 - 12) =     10.09875  eV     1   --> B_2  D_4  S_4  
     e( 13 - 13) =     10.11289  eV     1   --> A_1  D_1  S_1  
     e( 14 - 14) =     10.99476  eV     1   --> B_1  D_3  S_3  
     e( 15 - 15) =     12.77633  eV     1   --> A_1  D_1  S_1  
     e( 16 - 16) =     15.00490  eV     1   --> B_2  D_4  S_4  

 **************************************************************************

 **************************************************************************

                    xk=(   0.00000,   0.19245,   0.00000  )

     Band symmetry, C_2v (mm2)  point group:

     e(  1 -  1) =    -20.59004  eV     1   --> A_1  D_1  S_1  
     e(  2 -  2) =     -7.99999  eV     1   --> B_2  D_4  S_4  
     e(  3 -  3) =     -6.82216  eV     1   --> A_1  D_1  S_1  
     e(  4 -  4) =     -5.74484  eV     1   --> B_1  D_3  S_3  
     e(  5 -  5) =      2.08113  eV     1   --> A_1  D_1  S_1  
     e(  6 -  6) =      3.00697  eV     1   --> B_2  D_4  S_4  
     e(  7 -  7) =      3.49418  eV     1   --> A_1  D_1  S_1  
     e(  8 -  8) =      5.17641  eV     1   --> B_2  D_4  S_4  
     e(  9 -  9) =      5.96935  eV     1   --> A_1  D_1  S_1  
     e( 10 - 10) =      7.53236  eV     1   --> B_2  D_4  S_4  
     e( 11 - 11) =      7.78030  eV     1   --> A_1  D_1  S_1  
     e( 12 - 12) =      9.74108  eV     1   --> A_1  D_1  S_1  
     e( 13 - 13) =      9.96463  eV     1   --> B_2  D_4  S_4  
     e( 14 - 14) =     10.29869  eV     1   --> B_1  D_3  S_3  
     e( 15 - 15) =     12.40302  eV     1   --> A_1  D_1  S_1  
     e( 16 - 16) =     14.81575  eV     1   --> B_2  D_4  S_4  

 **************************************************************************

 **************************************************************************

                    xk=(   0.00000,   0.16038,   0.00000  )

     Band symmetry, C_2v (mm2)  point group:

     e(  1 -  1) =    -20.74786  eV     1   --> A_1  D_1  S_1  
     e(  2 -  2) =     -8.21330  eV     1   --> B_2  D_4  S_4  
     e(  3 -  3) =     -6.29038  eV     1   --> A_1  D_1  S_1  
     e(  4 -  4) =     -5.51217  eV     1   --> B_1  D_3  S_3  
     e(  5 -  5) =      1.81538  eV     1   --> A_1  D_1  S_1  
     e(  6 -  6) =      2.76028  eV     1   --> B_2  D_4  S_4  
     e(  7 -  7) =      3.22599  eV     1   --> A_1  D_1  S_1  
     e(  8 -  8) =      4.96930  eV     1   --> B_2  D_4  S_4  
     e(  9 -  9) =      5.72072  eV     1   --> A_1  D_1  S_1  
     e( 10 - 10) =      7.70802  eV     1   --> B_2  D_4  S_4  
     e( 11 - 11) =      7.84668  eV     1   --> A_1  D_1  S_1  
     e( 12 - 12) =      9.40731  eV     1   --> A_1  D_1  S_1  
     e( 13 - 13) =      9.67631  eV     1   --> B_1  D_3  S_3  
     e( 14 - 14) =      9.92580  eV     1   --> B_2  D_4  S_4  
     e( 15 - 15) =     12.06151  eV     1   --> A_1  D_1  S_1  
     e( 16 - 16) =     14.65344  eV     1   --> B_2  D_4  S_4  

 **************************************************************************

 **************************************************************************

                    xk=(   0.00000,   0.12830,   0.00000  )

     Band symmetry, C_2v (mm2)  point group:

     e(  1 -  1) =    -20.87856  eV     1   --> A_1  D_1  S_1  
     e(  2 -  2) =     -8.38950  eV     1   --> B_2  D_4  S_4  
     e(  3 -  3) =     -5.81654  eV     1   --> A_1  D_1  S_1  
     e(  4 -  4) =     -5.30062  eV     1   --> B_1  D_3  S_3  
     e(  5 -  5) =      1.59484  eV     1   --> A_1  D_1  S_1  
     e(  6 -  6) =      2.55518  eV     1   --> B_2  D_4  S_4  
     e(  7 -  7) =      3.00551  eV     1   --> A_1  D_1  S_1  
     e(  8 -  8) =      4.78673  eV     1   --> B_2  D_4  S_4  
     e(  9 -  9) =      5.50823  eV     1   --> A_1  D_1  S_1  
     e( 10 - 10) =      7.80304  eV     1   --> B_2  D_4  S_4  
     e( 11 - 11) =      7.91956  eV     1   --> A_1  D_1  S_1  
     e( 12 - 12) =      9.11598  eV     1   --> A_1  D_1  S_1  
     e( 13 - 13) =      9.14063  eV     1   --> B_1  D_3  S_3  
     e( 14 - 14) =      9.96724  eV     1   --> B_2  D_4  S_4  
     e( 15 - 15) =     11.76381  eV     1   --> A_1  D_1  S_1  
     e( 16 - 16) =     14.52403  eV     1   --> B_2  D_4  S_4  

 **************************************************************************

 **************************************************************************

                    xk=(   0.00000,   0.09623,   0.00000  )

     Band symmetry, C_2v (mm2)  point group:

     e(  1 -  1) =    -20.98105  eV     1   --> A_1  D_1  S_1  
     e(  2 -  2) =     -8.52771  eV     1   --> B_2  D_4  S_4  
     e(  3 -  3) =     -5.41906  eV     1   --> A_1  D_1  S_1  
     e(  4 -  4) =     -5.11947  eV     1   --> B_1  D_3  S_3  
     e(  5 -  5) =      1.42071  eV     1   --> A_1  D_1  S_1  
     e(  6 -  6) =      2.39412  eV     1   --> B_2  D_4  S_4  
     e(  7 -  7) =      2.83321  eV     1   --> A_1  D_1  S_1  
     e(  8 -  8) =      4.63923  eV     1   --> B_2  D_4  S_4  
     e(  9 -  9) =      5.33746  eV     1   --> A_1  D_1  S_1  
     e( 10 - 10) =      7.83544  eV     1   --> B_2  D_4  S_4  
     e( 11 - 11) =      7.99081  eV     1   --> A_1  D_1  S_1  
     e( 12 - 12) =      8.70475  eV     1   --> B_1  D_3  S_3  
     e( 13 - 13) =      8.87352  eV     1   --> A_1  D_1  S_1  
     e( 14 - 14) =     10.05236  eV     1   --> B_2  D_4  S_4  
     e( 15 - 15) =     11.52037  eV     1   --> A_1  D_1  S_1  
     e( 16 - 16) =     14.42858  eV     1   --> B_2  D_4  S_4  

 **************************************************************************

 **************************************************************************

                    xk=(   0.00000,   0.06415,   0.00000  )

     Band symmetry, C_2v (mm2)  point group:

     e(  1 -  1) =    -21.05469  eV     1   --> A_1  D_1  S_1  
     e(  2 -  2) =     -8.62666  eV     1   --> B_2  D_4  S_4  
     e(  3 -  3) =     -5.11749  eV     1   --> A_1  D_1  S_1  
     e(  4 -  4) =     -4.98048  eV     1   --> B_1  D_3  S_3  
     e(  5 -  5) =      1.29444  eV     1   --> A_1  D_1  S_1  
     e(  6 -  6) =      2.27844  eV     1   --> B_2  D_4  S_4  
     e(  7 -  7) =      2.70958  eV     1   --> A_1  D_1  S_1  
     e(  8 -  8) =      4.53167  eV     1   --> B_2  D_4  S_4  
     e(  9 -  9) =      5.21230  eV     1   --> A_1  D_1  S_1  
     e( 10 - 10) =      7.83502  eV     1   --> B_2  D_4  S_4  
     e( 11 - 11) =      8.05337  eV     1   --> A_1  D_1  S_1  
     e( 12 - 12) =      8.38281  eV     1   --> B_1  D_3  S_3  
     e( 13 - 13) =      8.68731  eV     1   --> A_1  D_1  S_1  
     e( 14 - 14) =     10.14031  eV     1   --> B_2  D_4  S_4  
     e( 15 - 15) =     11.33965  eV     1   --> A_1  D_1  S_1  
     e( 16 - 16) =     14.36491  eV     1   --> B_2  D_4  S_4  

 **************************************************************************

 **************************************************************************

                    xk=(   0.00000,   0.03208,   0.00000  )

     Band symmetry, C_2v (mm2)  point group:

     e(  1 -  1) =    -21.09905  eV     1   --> A_1  D_1  S_1  
     e(  2 -  2) =     -8.68631  eV     1   --> B_2  D_4  S_4  
     e(  3 -  3) =     -4.92795  eV     1   --> A_1  D_1  S_1  
     e(  4 -  4) =     -4.89306  eV     1   --> B_1  D_3  S_3  
     e(  5 -  5) =      1.21769  eV     1   --> A_1  D_1  S_1  
     e(  6 -  6) =      2.20879  eV     1   --> B_2  D_4  S_4  
     e(  7 -  7) =      2.63512  eV     1   --> A_1  D_1  S_1  
     e(  8 -  8) =      4.46640  eV     1   --> B_2  D_4  S_4  
     e(  9 -  9) =      5.13577  eV     1   --> A_1  D_1  S_1  
     e( 10 - 10) =      7.82606  eV     1   --> B_2  D_4  S_4  
     e( 11 - 11) =      8.09958  eV     1   --> A_1  D_1  S_1  
     e( 12 - 12) =      8.18461  eV     1   --> B_1  D_3  S_3  
     e( 13 - 13) =      8.56619  eV     1   --> A_1  D_1  S_1  
     e( 14 - 14) =     10.20332  eV     1   --> B_2  D_4  S_4  
     e( 15 - 15) =     11.22817  eV     1   --> A_1  D_1  S_1  
     e( 16 - 16) =     14.32912  eV     1   --> B_2  D_4  S_4  

 **************************************************************************

 **************************************************************************

                    xk=(   0.00000,   0.00000,   0.00000  )

     point group D_3h (-62m)
     there are  6 classes
     the character table:

       E     2C3   3C2   s_h   2S3   3s_v 
A'_1   1.00  1.00  1.00  1.00  1.00  1.00
A'_2   1.00  1.00 -1.00  1.00  1.00 -1.00
E'     2.00 -1.00  0.00  2.00 -1.00  0.00
A''1   1.00  1.00  1.00 -1.00 -1.00 -1.00
A''2   1.00  1.00 -1.00 -1.00 -1.00  1.00
E''    2.00 -1.00  0.00 -2.00  1.00  0.00

     the symmetry operations in each class and the name of the first element:

     E        1
                                                                 
     2C3      3    4
                                                                 
     3C2      2    6    5
                                                                 
     s_h      7
                                                                 
     2S3      9   10
                                                                 
     3s_v     8   11   12
                                                                 

     Band symmetry, D_3h (-62m) point group:

     e(  1 -  1) =    -21.11366  eV     1   --> A'_1           
     e(  2 -  2) =     -8.70569  eV     1   --> A''2           
     e(  3 -  4) =     -4.86234  eV     2   --> E'             
     e(  5 -  5) =      1.19196  eV     1   --> A'_1           
     e(  6 -  6) =      2.18564  eV     1   --> A''2           
     e(  7 -  7) =      2.61026  eV     1   --> A'_1           
     e(  8 -  8) =      4.44469  eV     1   --> A''2           
     e(  9 -  9) =      5.11006  eV     1   --> A'_1           
     e( 10 - 10) =      7.82229  eV     1   --> A''2           
     e( 11 - 12) =      8.11844  eV     2   --> E'             
     e( 13 - 13) =      8.52323  eV     1   --> A'_1           
     e( 14 - 14) =     10.22660  eV     1   --> A''2           
     e( 15 - 15) =     11.19066  eV     1   --> A'_1           
     e( 16 - 16) =     14.31783  eV     1   --> A''2           

 **************************************************************************

     BANDS        :      2.07s CPU      2.17s WALL


   This run was terminated on:  13:59:40  16Apr2024            

=------------------------------------------------------------------------------=
   JOB DONE.
=------------------------------------------------------------------------------=
