
     Program PWSCF v.7.2 starts on  5Apr2024 at 20:20:26 

     This program is part of the open-source Quantum ESPRESSO suite
     for quantum simulation of materials; please cite
         "P. Giannozzi et al., J. Phys.:Condens. Matter 21 395502 (2009);
         "P. Giannozzi et al., J. Phys.:Condens. Matter 29 465901 (2017);
         "P. Giannozzi et al., J. Chem. Phys. 152 154105 (2020);
          URL http://www.quantum-espresso.org", 
     in publications or presentations arising from this work. More details at
     http://www.quantum-espresso.org/quote

     Parallel version (MPI & OpenMP), running on       8 processor cores
     Number of MPI processes:                 8
     Threads/MPI process:                     1

     MPI processes distributed on     1 nodes
     0 MiB available memory on the printing compute node when the environment starts

     Waiting for input...
     Reading input from standard input
Warning: card $CELL ignored
Warning: card / ignored

     Current dimensions of program PWSCF are:
     Max number of different atomic species (ntypx) = 10
     Max number of k-points (npk) =  40000
     Max angular momentum in pseudopotentials (lmaxx) =  4

     R & G space division:  proc/nbgrp/npool/nimage =       8
     Subspace diagonalization in iterative solution of the eigenvalue problem:
     a serial algorithm will be used


     Parallelization info
     --------------------
     sticks:   dense  smooth     PW     G-vecs:    dense   smooth      PW
     Min          45      45     15                 4333     4333     755
     Max          46      46     16                 4356     4356     767
     Sum         367     367    121                34803    34803    6103

     Using Slab Decomposition



     bravais-lattice index     =            4
     lattice parameter (alat)  =       4.7450  a.u.
     unit-cell volume          =     555.1247 (a.u.)^3
     number of atoms/cell      =            2
     number of atomic types    =            2
     number of electrons       =         8.00
     number of Kohn-Sham states=            8
     kinetic-energy cutoff     =      60.0000  Ry
     charge density cutoff     =     240.0000  Ry
     scf convergence threshold =      1.0E-06
     mixing beta               =       0.7000
     number of iterations used =            8  plain     mixing
     Exchange-correlation= PBE
                           (   1   4   3   4   0   0   0)

     celldm(1)=   4.745000  celldm(2)=   0.000000  celldm(3)=   6.000000
     celldm(4)=   0.000000  celldm(5)=   0.000000  celldm(6)=   0.000000

     crystal axes: (cart. coord. in units of alat)
               a(1) = (   1.000000   0.000000   0.000000 )  
               a(2) = (  -0.500000   0.866025   0.000000 )  
               a(3) = (   0.000000   0.000000   6.000000 )  

     reciprocal axes: (cart. coord. in units 2 pi/alat)
               b(1) = (  1.000000  0.577350 -0.000000 )  
               b(2) = (  0.000000  1.154701  0.000000 )  
               b(3) = (  0.000000 -0.000000  0.166667 )  


     PseudoPot. # 1 for N  read from file:
     ../../../Pseudo/PBE/N.upf
     MD5 check sum: d34365f73bb0e2ee98afc20ec3e87676
     Pseudo is Norm-conserving + core correction, Zval =  5.0
     Generated using ONCVPSP code by D. R. Hamann
     Using radial grid of 1058 points,  4 beta functions with: 
                l(1) =   0
                l(2) =   0
                l(3) =   1
                l(4) =   1

     PseudoPot. # 2 for B  read from file:
     ../../../Pseudo/PBE/B.upf
     MD5 check sum: 72f82fc31bc892420d0cab7e25c88ab8
     Pseudo is Norm-conserving + core correction, Zval =  3.0
     Generated using ONCVPSP code by D. R. Hamann
     Using radial grid of 1534 points,  4 beta functions with: 
                l(1) =   0
                l(2) =   0
                l(3) =   1
                l(4) =   1

     atomic species   valence    mass     pseudopotential
        N              5.00    14.00670     N ( 1.00)
        B              3.00    10.80100     B ( 1.00)

     12 Sym. Ops. (no inversion) found


                                    s                        frac. trans.

      isym =  1     identity                                     

 cryst.   s( 1) = (     1          0          0      )
                  (     0          1          0      )
                  (     0          0          1      )

 cart.    s( 1) = (  1.0000000  0.0000000  0.0000000 )
                  (  0.0000000  1.0000000  0.0000000 )
                  (  0.0000000  0.0000000  1.0000000 )


      isym =  2     180 deg rotation - cart. axis [0,1,0]        

 cryst.   s( 2) = (    -1          0          0      )
                  (     1          1          0      )
                  (     0          0         -1      )

 cart.    s( 2) = ( -1.0000000  0.0000000  0.0000000 )
                  (  0.0000000  1.0000000  0.0000000 )
                  (  0.0000000  0.0000000 -1.0000000 )


      isym =  3     120 deg rotation - cryst. axis [0,0,1]       

 cryst.   s( 3) = (     0          1          0      )
                  (    -1         -1          0      )
                  (     0          0          1      )

 cart.    s( 3) = ( -0.5000000 -0.8660254  0.0000000 )
                  (  0.8660254 -0.5000000  0.0000000 )
                  (  0.0000000  0.0000000  1.0000000 )


      isym =  4     120 deg rotation - cryst. axis [0,0,-1]      

 cryst.   s( 4) = (    -1         -1          0      )
                  (     1          0          0      )
                  (     0          0          1      )

 cart.    s( 4) = ( -0.5000000  0.8660254  0.0000000 )
                  ( -0.8660254 -0.5000000  0.0000000 )
                  (  0.0000000  0.0000000  1.0000000 )


      isym =  5     180 deg rotation - cryst. axis [1,-1,0]      

 cryst.   s( 5) = (     0         -1          0      )
                  (    -1          0          0      )
                  (     0          0         -1      )

 cart.    s( 5) = (  0.5000000 -0.8660254  0.0000000 )
                  ( -0.8660254 -0.5000000  0.0000000 )
                  (  0.0000000  0.0000000 -1.0000000 )


      isym =  6     180 deg rotation - cryst. axis [2,1,0]       

 cryst.   s( 6) = (     1          1          0      )
                  (     0         -1          0      )
                  (     0          0         -1      )

 cart.    s( 6) = (  0.5000000  0.8660254  0.0000000 )
                  (  0.8660254 -0.5000000  0.0000000 )
                  (  0.0000000  0.0000000 -1.0000000 )


      isym =  7     inv. 180 deg rotation - cart. axis [0,0,1]   

 cryst.   s( 7) = (     1          0          0      )
                  (     0          1          0      )
                  (     0          0         -1      )

 cart.    s( 7) = (  1.0000000  0.0000000  0.0000000 )
                  (  0.0000000  1.0000000  0.0000000 )
                  (  0.0000000  0.0000000 -1.0000000 )


      isym =  8     inv. 180 deg rotation - cart. axis [1,0,0]   

 cryst.   s( 8) = (    -1          0          0      )
                  (     1          1          0      )
                  (     0          0          1      )

 cart.    s( 8) = ( -1.0000000  0.0000000  0.0000000 )
                  (  0.0000000  1.0000000  0.0000000 )
                  (  0.0000000  0.0000000  1.0000000 )


      isym =  9     inv.  60 deg rotation - cryst. axis [0,0,1]  

 cryst.   s( 9) = (    -1         -1          0      )
                  (     1          0          0      )
                  (     0          0         -1      )

 cart.    s( 9) = ( -0.5000000  0.8660254  0.0000000 )
                  ( -0.8660254 -0.5000000  0.0000000 )
                  (  0.0000000  0.0000000 -1.0000000 )


      isym = 10     inv.  60 deg rotation - cryst. axis [0,0,-1] 

 cryst.   s(10) = (     0          1          0      )
                  (    -1         -1          0      )
                  (     0          0         -1      )

 cart.    s(10) = ( -0.5000000 -0.8660254  0.0000000 )
                  (  0.8660254 -0.5000000  0.0000000 )
                  (  0.0000000  0.0000000 -1.0000000 )


      isym = 11     inv. 180 deg rotation - cryst. axis [0,1,0]  

 cryst.   s(11) = (     1          1          0      )
                  (     0         -1          0      )
                  (     0          0          1      )

 cart.    s(11) = (  0.5000000  0.8660254  0.0000000 )
                  (  0.8660254 -0.5000000  0.0000000 )
                  (  0.0000000  0.0000000  1.0000000 )


      isym = 12     inv. 180 deg rotation - cryst. axis [1,1,0]  

 cryst.   s(12) = (     0         -1          0      )
                  (    -1          0          0      )
                  (     0          0          1      )

 cart.    s(12) = (  0.5000000 -0.8660254  0.0000000 )
                  ( -0.8660254 -0.5000000  0.0000000 )
                  (  0.0000000  0.0000000  1.0000000 )


     point group D_3h (-62m)
     there are  6 classes
     the character table:

       E     2C3   3C2   s_h   2S3   3s_v 
A'_1   1.00  1.00  1.00  1.00  1.00  1.00
A'_2   1.00  1.00 -1.00  1.00  1.00 -1.00
E'     2.00 -1.00  0.00  2.00 -1.00  0.00
A''1   1.00  1.00  1.00 -1.00 -1.00 -1.00
A''2   1.00  1.00 -1.00 -1.00 -1.00  1.00
E''    2.00 -1.00  0.00 -2.00  1.00  0.00

     the symmetry operations in each class and the name of the first element:

     E        1
          identity                                               
     2C3      3    4
          120 deg rotation - cryst. axis [0,0,1]                 
     3C2      2    6    5
          180 deg rotation - cart. axis [0,1,0]                  
     s_h      7
          inv. 180 deg rotation - cart. axis [0,0,1]             
     2S3      9   10
          inv.  60 deg rotation - cryst. axis [0,0,1]            
     3s_v     8   11   12
          inv. 180 deg rotation - cart. axis [1,0,0]             

   Cartesian axes

     site n.     atom                  positions (alat units)
         1           B   tau(   1) = (   0.0000000   0.0000000   0.0000000  )
         2           N   tau(   2) = (  -0.0000000   0.5773503   0.0000000  )

   Crystallographic axes

     site n.     atom                  positions (cryst. coord.)
         1           B   tau(   1) = (  0.0000000  0.0000000  0.0000000  )
         2           N   tau(   2) = (  0.3333333  0.6666667  0.0000000  )

     number of k points=    51  Marzari-Vanderbilt smearing, width (Ry)=  0.0050
                       cart. coord. in units 2pi/alat
        k(    1) = (   0.0000000   0.0000000   0.0000000), wk =   0.0392157
        k(    2) = (  -0.0158714   0.0274938   0.0000000), wk =   0.0392157
        k(    3) = (  -0.0317429   0.0549876   0.0000000), wk =   0.0392157
        k(    4) = (  -0.0476143   0.0824814   0.0000000), wk =   0.0392157
        k(    5) = (  -0.0634857   0.1099752   0.0000000), wk =   0.0392157
        k(    6) = (  -0.0793571   0.1374690   0.0000000), wk =   0.0392157
        k(    7) = (  -0.0952286   0.1649628   0.0000000), wk =   0.0392157
        k(    8) = (  -0.1111000   0.1924566   0.0000000), wk =   0.0392157
        k(    9) = (  -0.1269714   0.2199504   0.0000000), wk =   0.0392157
        k(   10) = (  -0.1428429   0.2474442   0.0000000), wk =   0.0392157
        k(   11) = (  -0.1587143   0.2749380   0.0000000), wk =   0.0392157
        k(   12) = (  -0.1745857   0.3024319   0.0000000), wk =   0.0392157
        k(   13) = (  -0.1904571   0.3299257   0.0000000), wk =   0.0392157
        k(   14) = (  -0.2063286   0.3574195   0.0000000), wk =   0.0392157
        k(   15) = (  -0.2222000   0.3849133   0.0000000), wk =   0.0392157
        k(   16) = (  -0.2380714   0.4124071   0.0000000), wk =   0.0392157
        k(   17) = (  -0.2539429   0.4399009   0.0000000), wk =   0.0392157
        k(   18) = (  -0.2698143   0.4673947   0.0000000), wk =   0.0392157
        k(   19) = (  -0.2856857   0.4948885   0.0000000), wk =   0.0392157
        k(   20) = (  -0.3015571   0.5223823   0.0000000), wk =   0.0392157
        k(   21) = (  -0.3174286   0.5498761   0.0000000), wk =   0.0392157
        k(   22) = (  -0.3333000   0.5773699   0.0000000), wk =   0.0392157
        k(   23) = (  -0.3030000   0.5773681   0.0000000), wk =   0.0392157
        k(   24) = (  -0.2727000   0.5773663   0.0000000), wk =   0.0392157
        k(   25) = (  -0.2424000   0.5773645   0.0000000), wk =   0.0392157
        k(   26) = (  -0.2121000   0.5773628   0.0000000), wk =   0.0392157
        k(   27) = (  -0.1818000   0.5773610   0.0000000), wk =   0.0392157
        k(   28) = (  -0.1515000   0.5773592   0.0000000), wk =   0.0392157
        k(   29) = (  -0.1212000   0.5773574   0.0000000), wk =   0.0392157
        k(   30) = (  -0.0909000   0.5773556   0.0000000), wk =   0.0392157
        k(   31) = (  -0.0606000   0.5773538   0.0000000), wk =   0.0392157
        k(   32) = (  -0.0303000   0.5773521   0.0000000), wk =   0.0392157
        k(   33) = (   0.0000000   0.5773503   0.0000000), wk =   0.0392157
        k(   34) = (   0.0000000   0.5452753   0.0000000), wk =   0.0392157
        k(   35) = (   0.0000000   0.5132002   0.0000000), wk =   0.0392157
        k(   36) = (   0.0000000   0.4811252   0.0000000), wk =   0.0392157
        k(   37) = (   0.0000000   0.4490502   0.0000000), wk =   0.0392157
        k(   38) = (   0.0000000   0.4169752   0.0000000), wk =   0.0392157
        k(   39) = (   0.0000000   0.3849002   0.0000000), wk =   0.0392157
        k(   40) = (   0.0000000   0.3528252   0.0000000), wk =   0.0392157
        k(   41) = (   0.0000000   0.3207501   0.0000000), wk =   0.0392157
        k(   42) = (   0.0000000   0.2886751   0.0000000), wk =   0.0392157
        k(   43) = (   0.0000000   0.2566001   0.0000000), wk =   0.0392157
        k(   44) = (   0.0000000   0.2245251   0.0000000), wk =   0.0392157
        k(   45) = (   0.0000000   0.1924501   0.0000000), wk =   0.0392157
        k(   46) = (   0.0000000   0.1603751   0.0000000), wk =   0.0392157
        k(   47) = (   0.0000000   0.1283001   0.0000000), wk =   0.0392157
        k(   48) = (   0.0000000   0.0962250   0.0000000), wk =   0.0392157
        k(   49) = (   0.0000000   0.0641500   0.0000000), wk =   0.0392157
        k(   50) = (   0.0000000   0.0320750   0.0000000), wk =   0.0392157
        k(   51) = (   0.0000000   0.0000000   0.0000000), wk =   0.0392157

                       cryst. coord.
        k(    1) = (   0.0000000   0.0000000   0.0000000), wk =   0.0392157
        k(    2) = (  -0.0158714   0.0317460   0.0000000), wk =   0.0392157
        k(    3) = (  -0.0317429   0.0634921   0.0000000), wk =   0.0392157
        k(    4) = (  -0.0476143   0.0952381   0.0000000), wk =   0.0392157
        k(    5) = (  -0.0634857   0.1269842   0.0000000), wk =   0.0392157
        k(    6) = (  -0.0793571   0.1587302   0.0000000), wk =   0.0392157
        k(    7) = (  -0.0952286   0.1904763   0.0000000), wk =   0.0392157
        k(    8) = (  -0.1111000   0.2222223   0.0000000), wk =   0.0392157
        k(    9) = (  -0.1269714   0.2539684   0.0000000), wk =   0.0392157
        k(   10) = (  -0.1428429   0.2857144   0.0000000), wk =   0.0392157
        k(   11) = (  -0.1587143   0.3174605   0.0000000), wk =   0.0392157
        k(   12) = (  -0.1745857   0.3492065   0.0000000), wk =   0.0392157
        k(   13) = (  -0.1904571   0.3809526   0.0000000), wk =   0.0392157
        k(   14) = (  -0.2063286   0.4126986   0.0000000), wk =   0.0392157
        k(   15) = (  -0.2222000   0.4444447   0.0000000), wk =   0.0392157
        k(   16) = (  -0.2380714   0.4761907   0.0000000), wk =   0.0392157
        k(   17) = (  -0.2539429   0.5079368   0.0000000), wk =   0.0392157
        k(   18) = (  -0.2698143   0.5396828   0.0000000), wk =   0.0392157
        k(   19) = (  -0.2856857   0.5714289   0.0000000), wk =   0.0392157
        k(   20) = (  -0.3015571   0.6031749   0.0000000), wk =   0.0392157
        k(   21) = (  -0.3174286   0.6349210   0.0000000), wk =   0.0392157
        k(   22) = (  -0.3333000   0.6666670   0.0000000), wk =   0.0392157
        k(   23) = (  -0.3030000   0.6515155   0.0000000), wk =   0.0392157
        k(   24) = (  -0.2727000   0.6363639   0.0000000), wk =   0.0392157
        k(   25) = (  -0.2424000   0.6212124   0.0000000), wk =   0.0392157
        k(   26) = (  -0.2121000   0.6060608   0.0000000), wk =   0.0392157
        k(   27) = (  -0.1818000   0.5909093   0.0000000), wk =   0.0392157
        k(   28) = (  -0.1515000   0.5757577   0.0000000), wk =   0.0392157
        k(   29) = (  -0.1212000   0.5606062   0.0000000), wk =   0.0392157
        k(   30) = (  -0.0909000   0.5454546   0.0000000), wk =   0.0392157
        k(   31) = (  -0.0606000   0.5303031   0.0000000), wk =   0.0392157
        k(   32) = (  -0.0303000   0.5151515   0.0000000), wk =   0.0392157
        k(   33) = (   0.0000000   0.5000000   0.0000000), wk =   0.0392157
        k(   34) = (   0.0000000   0.4722222   0.0000000), wk =   0.0392157
        k(   35) = (   0.0000000   0.4444444   0.0000000), wk =   0.0392157
        k(   36) = (   0.0000000   0.4166667   0.0000000), wk =   0.0392157
        k(   37) = (   0.0000000   0.3888889   0.0000000), wk =   0.0392157
        k(   38) = (   0.0000000   0.3611111   0.0000000), wk =   0.0392157
        k(   39) = (   0.0000000   0.3333333   0.0000000), wk =   0.0392157
        k(   40) = (   0.0000000   0.3055556   0.0000000), wk =   0.0392157
        k(   41) = (   0.0000000   0.2777778   0.0000000), wk =   0.0392157
        k(   42) = (   0.0000000   0.2500000   0.0000000), wk =   0.0392157
        k(   43) = (   0.0000000   0.2222222   0.0000000), wk =   0.0392157
        k(   44) = (   0.0000000   0.1944444   0.0000000), wk =   0.0392157
        k(   45) = (   0.0000000   0.1666667   0.0000000), wk =   0.0392157
        k(   46) = (   0.0000000   0.1388889   0.0000000), wk =   0.0392157
        k(   47) = (   0.0000000   0.1111111   0.0000000), wk =   0.0392157
        k(   48) = (   0.0000000   0.0833333   0.0000000), wk =   0.0392157
        k(   49) = (   0.0000000   0.0555556   0.0000000), wk =   0.0392157
        k(   50) = (   0.0000000   0.0277778   0.0000000), wk =   0.0392157
        k(   51) = (   0.0000000   0.0000000   0.0000000), wk =   0.0392157

     Dense  grid:    34803 G-vectors     FFT dimensions: (  24,  24, 144)

     Dynamical RAM for                 wfc:       0.07 MB

     Dynamical RAM for     wfc (w. buffer):       3.45 MB

     Dynamical RAM for           str. fact:       0.13 MB

     Dynamical RAM for           local pot:       0.00 MB

     Dynamical RAM for          nlocal pot:       0.13 MB

     Dynamical RAM for                qrad:       0.71 MB

     Dynamical RAM for          rho,v,vnew:       0.44 MB

     Dynamical RAM for               rhoin:       0.15 MB

     Dynamical RAM for            rho*nmix:       1.06 MB

     Dynamical RAM for           G-vectors:       0.28 MB

     Dynamical RAM for          h,s,v(r/c):       0.01 MB

     Dynamical RAM for          <psi|beta>:       0.00 MB

     Dynamical RAM for                 psi:       0.13 MB

     Dynamical RAM for                hpsi:       0.13 MB

     Dynamical RAM for      wfcinit/wfcrot:       0.13 MB

     Estimated static dynamical RAM per process >       5.89 MB

     Estimated max dynamical RAM per process >       7.23 MB

     Estimated total dynamical RAM >      57.86 MB

     Initial potential from superposition of free atoms

     starting charge       7.9997, renormalised to       8.0000

     negative rho (up, down):  7.174E-05 0.000E+00
     Starting wfcs are    8 randomized atomic wfcs

     total cpu time spent up to now is        0.6 secs

     Self-consistent Calculation

     iteration #  1     ecut=    60.00 Ry     beta= 0.70
     Davidson diagonalization with overlap

---- Real-time Memory Report at c_bands before calling an iterative solver
             0 MiB given to the printing process from OS
             0 MiB allocation reported by mallinfo(arena+hblkhd)
             0 MiB available memory on the node where the printing process lives
------------------
     ethr =  1.00E-02,  avg # of iterations =  7.2

     negative rho (up, down):  9.511E-06 0.000E+00

     total cpu time spent up to now is        1.6 secs

     total energy              =     -26.60823076 Ry
     estimated scf accuracy    <       0.41450507 Ry

     iteration #  2     ecut=    60.00 Ry     beta= 0.70
     Davidson diagonalization with overlap

---- Real-time Memory Report at c_bands before calling an iterative solver
             0 MiB given to the printing process from OS
             0 MiB allocation reported by mallinfo(arena+hblkhd)
             0 MiB available memory on the node where the printing process lives
------------------
     ethr =  5.18E-03,  avg # of iterations =  3.8

     negative rho (up, down):  3.986E-06 0.000E+00

     total cpu time spent up to now is        2.3 secs

     total energy              =     -26.70633604 Ry
     estimated scf accuracy    <       0.17644883 Ry

     iteration #  3     ecut=    60.00 Ry     beta= 0.70
     Davidson diagonalization with overlap

---- Real-time Memory Report at c_bands before calling an iterative solver
             0 MiB given to the printing process from OS
             0 MiB allocation reported by mallinfo(arena+hblkhd)
             0 MiB available memory on the node where the printing process lives
------------------
     ethr =  2.21E-03,  avg # of iterations =  2.8

     total cpu time spent up to now is        2.9 secs

     total energy              =     -26.74011627 Ry
     estimated scf accuracy    <       0.00170736 Ry

     iteration #  4     ecut=    60.00 Ry     beta= 0.70
     Davidson diagonalization with overlap

---- Real-time Memory Report at c_bands before calling an iterative solver
             0 MiB given to the printing process from OS
             0 MiB allocation reported by mallinfo(arena+hblkhd)
             0 MiB available memory on the node where the printing process lives
------------------
     c_bands:  1 eigenvalues not converged
     ethr =  2.13E-05,  avg # of iterations = 10.4

     negative rho (up, down):  1.202E-08 0.000E+00

     total cpu time spent up to now is        4.1 secs

     total energy              =     -26.74134915 Ry
     estimated scf accuracy    <       0.00105161 Ry

     iteration #  5     ecut=    60.00 Ry     beta= 0.70
     Davidson diagonalization with overlap

---- Real-time Memory Report at c_bands before calling an iterative solver
             0 MiB given to the printing process from OS
             0 MiB allocation reported by mallinfo(arena+hblkhd)
             0 MiB available memory on the node where the printing process lives
------------------
     ethr =  1.31E-05,  avg # of iterations =  2.1

     total cpu time spent up to now is        4.5 secs

     total energy              =     -26.74156225 Ry
     estimated scf accuracy    <       0.00001047 Ry

     iteration #  6     ecut=    60.00 Ry     beta= 0.70
     Davidson diagonalization with overlap

---- Real-time Memory Report at c_bands before calling an iterative solver
             0 MiB given to the printing process from OS
             0 MiB allocation reported by mallinfo(arena+hblkhd)
             0 MiB available memory on the node where the printing process lives
------------------
     c_bands:  1 eigenvalues not converged
     ethr =  1.31E-07,  avg # of iterations =  4.7

     total cpu time spent up to now is        5.3 secs

     total energy              =     -26.74156605 Ry
     estimated scf accuracy    <       0.00001839 Ry

     iteration #  7     ecut=    60.00 Ry     beta= 0.70
     Davidson diagonalization with overlap

---- Real-time Memory Report at c_bands before calling an iterative solver
             0 MiB given to the printing process from OS
             0 MiB allocation reported by mallinfo(arena+hblkhd)
             0 MiB available memory on the node where the printing process lives
------------------
     ethr =  1.31E-07,  avg # of iterations =  2.1

     total cpu time spent up to now is        5.8 secs

     total energy              =     -26.74156631 Ry
     estimated scf accuracy    <       0.00000210 Ry

     iteration #  8     ecut=    60.00 Ry     beta= 0.70
     Davidson diagonalization with overlap

---- Real-time Memory Report at c_bands before calling an iterative solver
             0 MiB given to the printing process from OS
             0 MiB allocation reported by mallinfo(arena+hblkhd)
             0 MiB available memory on the node where the printing process lives
------------------
     ethr =  2.62E-08,  avg # of iterations =  2.8

     total cpu time spent up to now is        6.3 secs

     End of self-consistent calculation

          k = 0.0000 0.0000 0.0000 (  4301 PWs)   bands (ev):

   -21.0613  -8.6958  -4.7703  -4.7703   1.1785   2.1817   2.6174   4.4533

     occupation numbers 
     1.0000   1.0000   1.0000   1.0000   0.0000   0.0000   0.0000   0.0000

          k =-0.0159 0.0275 0.0000 (  4339 PWs)   bands (ev):

   -21.0469  -8.6769  -4.8350  -4.8009   1.2038   2.2044   2.6418   4.4746

     occupation numbers 
     1.0000   1.0000   1.0000   1.0000   0.0000   0.0000   0.0000   0.0000

          k =-0.0317 0.0550 0.0000 (  4343 PWs)   bands (ev):

   -21.0033  -8.6183  -5.0206  -4.8896   1.2790   2.2727   2.7147   4.5390

     occupation numbers 
     1.0000   1.0000   1.0000   1.0000   0.0000   0.0000   0.0000   0.0000

          k =-0.0476 0.0825 0.0000 (  4335 PWs)   bands (ev):

   -20.9308  -8.5208  -5.3122  -5.0347   1.4030   2.3862   2.8359   4.6446

     occupation numbers 
     1.0000   1.0000   1.0000   1.0000   0.0000   0.0000   0.0000   0.0000

          k =-0.0635 0.1100 0.0000 (  4329 PWs)   bands (ev):

   -20.8299  -8.3848  -5.6906  -5.2321   1.5741   2.5443   3.0049   4.7903

     occupation numbers 
     1.0000   1.0000   1.0000   1.0000   0.0000   0.0000   0.0000   0.0000

          k =-0.0794 0.1375 0.0000 (  4328 PWs)   bands (ev):

   -20.7012  -8.2114  -6.1331  -5.4765   1.7915   2.7457   3.2214   4.9708

     occupation numbers 
     1.0000   1.0000   1.0000   1.0000   0.0000   0.0000   0.0000   0.0000

          k =-0.0952 0.1650 0.0000 (  4330 PWs)   bands (ev):

   -20.5456  -8.0011  -6.6197  -5.7617   2.0543   2.9885   3.4852   5.1773

     occupation numbers 
     1.0000   1.0000   1.0000   1.0000   0.0000   0.0000   0.0000   0.0000

          k =-0.1111 0.1925 0.0000 (  4328 PWs)   bands (ev):

   -20.3642  -7.7554  -7.1332  -6.0807   2.3622   3.2683   3.7962   5.3891

     occupation numbers 
     1.0000   1.0000   1.0000   1.0000   0.0000   0.0000   0.0000   0.0000

          k =-0.1270 0.2200 0.0000 (  4342 PWs)   bands (ev):

   -20.1584  -7.6597  -7.4759  -6.4266   2.7151   3.5759   4.1544   5.5552

     occupation numbers 
     1.0000   1.0000   1.0000   1.0000   0.0000   0.0000   0.0000   0.0000

          k =-0.1428 0.2474 0.0000 (  4342 PWs)   bands (ev):

   -19.9302  -8.1862  -7.1645  -6.7919   3.1128   3.8865   4.5596   5.5901

     occupation numbers 
     1.0000   1.0000   1.0000   1.0000   0.0000   0.0000   0.0000   0.0000

          k =-0.1587 0.2749 0.0000 (  4358 PWs)   bands (ev):

   -19.6821  -8.7036  -7.1703  -6.8240   3.5551   4.1256   5.0118   5.5119

     occupation numbers 
     1.0000   1.0000   1.0000   1.0000   0.0000   0.0000   0.0000   0.0000

          k =-0.1746 0.3024 0.0000 (  4360 PWs)   bands (ev):

   -19.4172  -9.2016  -7.5552  -6.4580   4.0415   4.1268   5.5109   5.5678

     occupation numbers 
     1.0000   1.0000   1.0000   1.0000   0.0000   0.0000   0.0000   0.0000

          k =-0.1905 0.3299 0.0000 (  4368 PWs)   bands (ev):

   -19.1397  -9.6728  -7.9413  -6.0713   3.8440   4.5714   5.8880   6.0567

     occupation numbers 
     1.0000   1.0000   1.0000   1.0000   0.0000   0.0000   0.0000   0.0000

          k =-0.2063 0.3574 0.0000 (  4370 PWs)   bands (ev):

   -18.8550 -10.1075  -8.3238  -5.6696   3.4276   5.1438   6.3651   6.6488

     occupation numbers 
     1.0000   1.0000   1.0000   1.0000   0.0000   0.0000   0.0000   0.0000

          k =-0.2222 0.3849 0.0000 (  4370 PWs)   bands (ev):

   -18.5701 -10.4976  -8.6981  -5.2611   2.9763   5.7572   6.9208   7.2868

     occupation numbers 
     1.0000   1.0000   1.0000   1.0000   0.0000   0.0000   0.0000   0.0000

          k =-0.2381 0.4124 0.0000 (  4378 PWs)   bands (ev):

   -18.2938 -10.8325  -9.0608  -4.8569   2.5342   6.4088   7.5172   7.9695

     occupation numbers 
     1.0000   1.0000   1.0000   1.0000   0.0000   0.0000   0.0000   0.0000

          k =-0.2539 0.4399 0.0000 (  4380 PWs)   bands (ev):

   -18.0365 -11.1018  -9.4079  -4.4704   2.1275   7.0940   8.1137   8.6945

     occupation numbers 
     1.0000   1.0000   1.0000   1.0000   0.0000   0.0000   0.0000   0.0000

          k =-0.2698 0.4674 0.0000 (  4376 PWs)   bands (ev):

   -17.8102 -11.2944  -9.7356  -4.1193   1.7752   7.8039   8.6239   9.4545

     occupation numbers 
     1.0000   1.0000   1.0000   1.0000   0.0000   0.0000   0.0000   0.0000

          k =-0.2857 0.4949 0.0000 (  4370 PWs)   bands (ev):

   -17.6265 -11.4022 -10.0391  -3.8240   1.4950   8.5189   8.8987  10.2101

     occupation numbers 
     1.0000   1.0000   1.0000   1.0000   0.0000   0.0000   0.0000   0.0000

          k =-0.3016 0.5224 0.0000 (  4352 PWs)   bands (ev):

   -17.4943 -11.4248 -10.3093  -3.6042   1.2994   8.9291   9.1886  10.6687

     occupation numbers 
     1.0000   1.0000   1.0000   1.0000   0.0000   0.0000   0.0000   0.0000

          k =-0.3174 0.5499 0.0000 (  4370 PWs)   bands (ev):

   -17.4177 -11.3823 -10.5242  -3.4739   1.1912   8.8761   9.6789  10.8856

     occupation numbers 
     1.0000   1.0000   1.0000   1.0000   0.0000   0.0000   0.0000   0.0000

          k =-0.3333 0.5774 0.0000 (  4344 PWs)   bands (ev):

   -17.3936 -11.3422 -10.6189  -3.4317   1.1603   8.8466   9.8351  11.0843

     occupation numbers 
     1.0000   1.0000   1.0000   1.0000   0.0000   0.0000   0.0000   0.0000

          k =-0.3030 0.5774 0.0000 (  4374 PWs)   bands (ev):

   -17.4126 -11.3974 -10.5184  -3.4643   1.1802   8.8805   9.7417  10.8690

     occupation numbers 
     1.0000   1.0000   1.0000   1.0000   0.0000   0.0000   0.0000   0.0000

          k =-0.2727 0.5774 0.0000 (  4360 PWs)   bands (ev):

   -17.4617 -11.5272 -10.2604  -3.5470   1.2235   8.9842   9.5215  10.5195

     occupation numbers 
     1.0000   1.0000   1.0000   1.0000   0.0000   0.0000   0.0000   0.0000

          k =-0.2424 0.5774 0.0000 (  4354 PWs)   bands (ev):

   -17.5308 -11.6769  -9.9171  -3.6606   1.2692   9.1466   9.2080  10.1777

     occupation numbers 
     1.0000   1.0000   1.0000   1.0000   0.0000   0.0000   0.0000   0.0000

          k =-0.2121 0.5774 0.0000 (  4364 PWs)   bands (ev):

   -17.6104 -11.8222  -9.5305  -3.7887   1.3039   8.8075   9.3375   9.8738

     occupation numbers 
     1.0000   1.0000   1.0000   1.0000   0.0000   0.0000   0.0000   0.0000

          k =-0.1818 0.5774 0.0000 (  4344 PWs)   bands (ev):

   -17.6923 -11.9533  -9.1267  -3.9176   1.3233   8.3337   9.5137   9.6168

     occupation numbers 
     1.0000   1.0000   1.0000   1.0000   0.0000   0.0000   0.0000   0.0000

          k =-0.1515 0.5774 0.0000 (  4354 PWs)   bands (ev):

   -17.7706 -12.0672  -8.7291  -4.0388   1.3279   7.8225   9.4053   9.6343

     occupation numbers 
     1.0000   1.0000   1.0000   1.0000   0.0000   0.0000   0.0000   0.0000

          k =-0.1212 0.5774 0.0000 (  4358 PWs)   bands (ev):

   -17.8403 -12.1616  -8.3591  -4.1450   1.3221   7.3228   9.2355   9.6866

     occupation numbers 
     1.0000   1.0000   1.0000   1.0000   0.0000   0.0000   0.0000   0.0000

          k =-0.0909 0.5774 0.0000 (  4352 PWs)   bands (ev):

   -17.8977 -12.2358  -8.0390  -4.2309   1.3114   6.8815   9.1048   9.6102

     occupation numbers 
     1.0000   1.0000   1.0000   1.0000   0.0000   0.0000   0.0000   0.0000

          k =-0.0606 0.5774 0.0000 (  4362 PWs)   bands (ev):

   -17.9406 -12.2890  -7.7904  -4.2950   1.2998   6.5366   9.0118   9.4787

     occupation numbers 
     1.0000   1.0000   1.0000   1.0000   0.0000   0.0000   0.0000   0.0000

          k =-0.0303 0.5774 0.0000 (  4354 PWs)   bands (ev):

   -17.9668 -12.3208  -7.6321  -4.3340   1.2915   6.3172   8.9563   9.4015

     occupation numbers 
     1.0000   1.0000   1.0000   1.0000   0.0000   0.0000   0.0000   0.0000

          k = 0.0000 0.5774 0.0000 (  4348 PWs)   bands (ev):

   -17.9756 -12.3315  -7.5776  -4.3472   1.2884   6.2419   8.9378   9.3760

     occupation numbers 
     1.0000   1.0000   1.0000   1.0000   0.0000   0.0000   0.0000   0.0000

          k = 0.0000 0.5453 0.0000 (  4368 PWs)   bands (ev):

   -18.0208 -12.2619  -7.5618  -4.4187   1.3809   6.2145   8.4035   9.1162

     occupation numbers 
     1.0000   1.0000   1.0000   1.0000   0.0000   0.0000   0.0000   0.0000

          k = 0.0000 0.5132 0.0000 (  4376 PWs)   bands (ev):

   -18.1491 -12.0588  -7.5143  -4.6191   1.6424   6.1158   7.7841   8.3989

     occupation numbers 
     1.0000   1.0000   1.0000   1.0000   0.0000   0.0000   0.0000   0.0000

          k = 0.0000 0.4811 0.0000 (  4382 PWs)   bands (ev):

   -18.3430 -11.7411  -7.4355  -4.9143   2.0351   5.8951   7.2949   7.7025

     occupation numbers 
     1.0000   1.0000   1.0000   1.0000   0.0000   0.0000   0.0000   0.0000

          k = 0.0000 0.4491 0.0000 (  4392 PWs)   bands (ev):

   -18.5817 -11.3311  -7.3262  -5.2683   2.5144   5.5190   6.9409   7.0493

     occupation numbers 
     1.0000   1.0000   1.0000   1.0000   0.0000   0.0000   0.0000   0.0000

          k = 0.0000 0.4170 0.0000 (  4374 PWs)   bands (ev):

   -18.8458 -10.8498  -7.1876  -5.6505   3.0365   5.0404   6.4523   6.5544

     occupation numbers 
     1.0000   1.0000   1.0000   1.0000   0.0000   0.0000   0.0000   0.0000

          k = 0.0000 0.3849 0.0000 (  4382 PWs)   bands (ev):

   -19.1207 -10.3157  -7.0227  -6.0410   3.5478   4.5318   5.9335   6.0517

     occupation numbers 
     1.0000   1.0000   1.0000   1.0000   0.0000   0.0000   0.0000   0.0000

          k = 0.0000 0.3528 0.0000 (  4366 PWs)   bands (ev):

   -19.3946  -9.7431  -6.8330  -6.4245   3.9557   4.0333   5.5320   5.5529

     occupation numbers 
     1.0000   1.0000   1.0000   1.0000   0.0000   0.0000   0.0000   0.0000

          k = 0.0000 0.3208 0.0000 (  4352 PWs)   bands (ev):

   -19.6597  -9.1453  -6.7917  -6.6221   3.5623   4.0843   5.0397   5.4386

     occupation numbers 
     1.0000   1.0000   1.0000   1.0000   0.0000   0.0000   0.0000   0.0000

          k = 0.0000 0.2887 0.0000 (  4354 PWs)   bands (ev):

   -19.9101  -8.5348  -7.1360  -6.3940   3.1270   3.8991   4.5874   5.5366

     occupation numbers 
     1.0000   1.0000   1.0000   1.0000   0.0000   0.0000   0.0000   0.0000

          k = 0.0000 0.2566 0.0000 (  4336 PWs)   bands (ev):

   -20.1413  -7.9229  -7.4519  -6.1533   2.7316   3.5981   4.1792   5.5463

     occupation numbers 
     1.0000   1.0000   1.0000   1.0000   0.0000   0.0000   0.0000   0.0000

          k = 0.0000 0.2245 0.0000 (  4320 PWs)   bands (ev):

   -20.3504  -7.7364  -7.3217  -5.9064   2.3781   3.2888   3.8169   5.3987

     occupation numbers 
     1.0000   1.0000   1.0000   1.0000   0.0000   0.0000   0.0000   0.0000

          k = 0.0000 0.1925 0.0000 (  4324 PWs)   bands (ev):

   -20.5352  -7.9868  -6.7459  -5.6615   2.0680   3.0046   3.5014   5.1898

     occupation numbers 
     1.0000   1.0000   1.0000   1.0000   0.0000   0.0000   0.0000   0.0000

          k = 0.0000 0.1604 0.0000 (  4316 PWs)   bands (ev):

   -20.6938  -8.2012  -6.2103  -5.4268   1.8023   2.7573   3.2332   4.9808

     occupation numbers 
     1.0000   1.0000   1.0000   1.0000   0.0000   0.0000   0.0000   0.0000

          k = 0.0000 0.1283 0.0000 (  4326 PWs)   bands (ev):

   -20.8251  -8.3782  -5.7328  -5.2133   1.5817   2.5518   3.0127   4.7968

     occupation numbers 
     1.0000   1.0000   1.0000   1.0000   0.0000   0.0000   0.0000   0.0000

          k = 0.0000 0.0962 0.0000 (  4332 PWs)   bands (ev):

   -20.9281  -8.5171  -5.3320  -5.0303   1.4075   2.3905   2.8404   4.6485

     occupation numbers 
     1.0000   1.0000   1.0000   1.0000   0.0000   0.0000   0.0000   0.0000

          k = 0.0000 0.0642 0.0000 (  4335 PWs)   bands (ev):

   -21.0020  -8.6164  -5.0278  -4.8898   1.2811   2.2746   2.7168   4.5405

     occupation numbers 
     1.0000   1.0000   1.0000   1.0000   0.0000   0.0000   0.0000   0.0000

          k = 0.0000 0.0321 0.0000 (  4337 PWs)   bands (ev):

   -21.0466  -8.6764  -4.8365  -4.8014   1.2043   2.2049   2.6423   4.4750

     occupation numbers 
     1.0000   1.0000   1.0000   1.0000   0.0000   0.0000   0.0000   0.0000

          k = 0.0000 0.0000 0.0000 (  4301 PWs)   bands (ev):

   -21.0613  -8.6958  -4.7703  -4.7703   1.1785   2.1817   2.6174   4.4532

     occupation numbers 
     1.0000   1.0000   1.0000   1.0000   0.0000   0.0000   0.0000   0.0000

     the Fermi energy is    -0.8002 ev

!    total energy              =     -26.74156706 Ry
     estimated scf accuracy    <       0.00000039 Ry
     smearing contrib. (-TS)   =       0.00000000 Ry
     internal energy E=F+TS    =     -26.74156706 Ry

     The total energy is F=E-TS. E is the sum of the following terms:
     one-electron contribution =    -155.64736420 Ry
     hartree contribution      =      79.66189911 Ry
     xc contribution           =      -8.67173442 Ry
     ewald contribution        =      57.91563244 Ry

     convergence has been achieved in   8 iterations

     Forces acting on atoms (cartesian axes, Ry/au):

     atom    1 type  2   force =    -0.00000000   -0.00000000    0.00000000
     atom    2 type  1   force =     0.00000000    0.00000000    0.00000000
     The non-local contrib.  to forces
     atom    1 type  2   force =     0.00000000    0.00000000    0.00000000
     atom    2 type  1   force =     0.00000000    0.00000000    0.00000000
     The ionic contribution  to forces
     atom    1 type  2   force =    -0.00000001    0.00000000   -0.00000000
     atom    2 type  1   force =     0.00000001   -0.00000000   -0.00000000
     The local contribution  to forces
     atom    1 type  2   force =    -0.00000000   -0.00000000   -0.00000000
     atom    2 type  1   force =     0.00000003   -0.00000002   -0.00000000
     The core correction contribution to forces
     atom    1 type  2   force =    -0.00000000   -0.00000000    0.00000000
     atom    2 type  1   force =    -0.00000000    0.00000000   -0.00000000
     The Hubbard contrib.    to forces
     atom    1 type  2   force =     0.00000000    0.00000000    0.00000000
     atom    2 type  1   force =     0.00000000    0.00000000    0.00000000
     The SCF correction term to forces
     atom    1 type  2   force =    -0.00000000    0.00000000    0.00000000
     atom    2 type  1   force =    -0.00000000    0.00000000    0.00000000

     Total force =     0.000000     Total SCF correction =     0.000000


     Computing stress (Cartesian axis) and pressure

          total   stress  (Ry/bohr**3)                   (kbar)     P=       -0.38
   0.00003013   0.00000000   0.00000000            4.43        0.00        0.00
   0.00000000   0.00003013   0.00000000            0.00        4.43        0.00
   0.00000000   0.00000000  -0.00006796            0.00        0.00      -10.00

     kinetic stress (kbar)   3274.06      0.00     -0.00
                                0.00   3274.06      0.00
                               -0.00      0.00   3492.72

     local   stress (kbar) -43192.90      0.00      0.00
                                0.00 -43192.90     -0.00
                                0.00     -0.00  43641.00

     nonloc. stress (kbar)   -582.44      0.00     -0.00
                                0.00   -582.44      0.00
                               -0.00      0.00   -539.30

     hartree stress (kbar)  20544.46      0.00      0.00
                                0.00  20544.46     -0.00
                                0.00     -0.00 -19978.94

     exc-cor stress (kbar)   -320.06     -0.00      0.00
                               -0.00   -320.06      0.00
                                0.00      0.00   -343.85

     corecor stress (kbar)   -358.18      0.00     -0.00
                                0.00   -358.18      0.00
                               -0.00      0.00   -349.98

     ewald   stress (kbar)  20639.49     -0.00     -0.00
                               -0.00  20639.49     -0.00
                               -0.00     -0.00 -25931.65

     hubbard stress (kbar)      0.00      0.00      0.00
                                0.00      0.00      0.00
                                0.00      0.00      0.00

     DFT-D   stress (kbar)      0.00      0.00      0.00
                                0.00      0.00      0.00
                                0.00      0.00      0.00

     XDM     stress (kbar)      0.00      0.00      0.00
                                0.00      0.00      0.00
                                0.00      0.00      0.00

     dft-nl  stress (kbar)      0.00      0.00      0.00
                                0.00      0.00      0.00
                                0.00      0.00      0.00

     TS-vdW  stress (kbar)      0.00      0.00      0.00
                                0.00      0.00      0.00
                                0.00      0.00      0.00

     MDB     stress (kbar)      0.00      0.00      0.00
                                0.00      0.00      0.00
                                0.00      0.00      0.00

     3D-RISM stress (kbar)      0.00      0.00      0.00
                                0.00      0.00      0.00
                                0.00      0.00      0.00


     Writing all to output data dir ./tmp/hBN_1l_PBE.save/

     init_run     :      0.48s CPU      0.50s WALL (       1 calls)
     electrons    :      5.18s CPU      5.77s WALL (       1 calls)
     forces       :      0.06s CPU      0.06s WALL (       1 calls)
     stress       :      0.25s CPU      0.26s WALL (       1 calls)

     Called by init_run:
     wfcinit      :      0.16s CPU      0.18s WALL (       1 calls)
     wfcinit:atom :      0.01s CPU      0.01s WALL (      51 calls)
     wfcinit:wfcr :      0.14s CPU      0.15s WALL (      51 calls)
     potinit      :      0.02s CPU      0.02s WALL (       1 calls)
     hinit0       :      0.28s CPU      0.29s WALL (       1 calls)

     Called by electrons:
     c_bands      :      4.71s CPU      5.26s WALL (       8 calls)
     sum_band     :      0.42s CPU      0.44s WALL (       8 calls)
     v_of_rho     :      0.04s CPU      0.05s WALL (       9 calls)
     v_h          :      0.00s CPU      0.00s WALL (       9 calls)
     v_xc         :      0.05s CPU      0.06s WALL (      11 calls)
     mix_rho      :      0.01s CPU      0.01s WALL (       8 calls)

     Called by c_bands:
     init_us_2    :      0.10s CPU      0.10s WALL (     969 calls)
     init_us_2:cp :      0.10s CPU      0.10s WALL (     969 calls)
     cegterg      :      4.56s CPU      5.10s WALL (     408 calls)

     Called by sum_band:
     sum_band:wei :      0.00s CPU      0.00s WALL (       8 calls)
     sum_band:loo :      0.42s CPU      0.44s WALL (       8 calls)
     sum_band:buf :      0.01s CPU      0.01s WALL (     408 calls)
     sum_band:ini :      0.04s CPU      0.04s WALL (     408 calls)

     Called by *egterg:
     cdiaghg      :      0.19s CPU      0.20s WALL (    2237 calls)
     cegterg:over :      0.30s CPU      0.31s WALL (    1829 calls)
     cegterg:upda :      0.28s CPU      0.41s WALL (    1829 calls)
     cegterg:last :      0.25s CPU      0.33s WALL (    1118 calls)
     h_psi        :      3.34s CPU      3.61s WALL (    2288 calls)
     g_psi        :      0.03s CPU      0.05s WALL (    1829 calls)

     Called by h_psi:
     h_psi:calbec :      0.16s CPU      0.17s WALL (    2288 calls)
     vloc_psi     :      2.95s CPU      3.09s WALL (    2288 calls)
     add_vuspsi   :      0.21s CPU      0.31s WALL (    2288 calls)

     General routines
     calbec       :      0.18s CPU      0.19s WALL (    2543 calls)
     fft          :      0.27s CPU      0.27s WALL (     114 calls)
     ffts         :      0.00s CPU      0.00s WALL (       8 calls)
     fftw         :      3.00s CPU      3.14s WALL (   24636 calls)

     Parallel routines

     PWSCF        :      6.11s CPU      6.78s WALL


   This run was terminated on:  20:20:33   5Apr2024            

=------------------------------------------------------------------------------=
   JOB DONE.
=------------------------------------------------------------------------------=
