
     Program PWSCF v.7.2 starts on 16Apr2024 at 13:59:29 

     This program is part of the open-source Quantum ESPRESSO suite
     for quantum simulation of materials; please cite
         "P. Giannozzi et al., J. Phys.:Condens. Matter 21 395502 (2009);
         "P. Giannozzi et al., J. Phys.:Condens. Matter 29 465901 (2017);
         "P. Giannozzi et al., J. Chem. Phys. 152 154105 (2020);
          URL http://www.quantum-espresso.org", 
     in publications or presentations arising from this work. More details at
     http://www.quantum-espresso.org/quote

     Parallel version (MPI & OpenMP), running on       8 processor cores
     Number of MPI processes:                 8
     Threads/MPI process:                     1

     MPI processes distributed on     1 nodes
     0 MiB available memory on the printing compute node when the environment starts

     Waiting for input...
     Reading input from standard input
Warning: card $IONS ignored
Warning: card / ignored
Warning: card $CELL ignored
Warning: card / ignored

     Current dimensions of program PWSCF are:
     Max number of different atomic species (ntypx) = 10
     Max number of k-points (npk) =  40000
     Max angular momentum in pseudopotentials (lmaxx) =  4

     Atomic positions and unit cell read from directory:
     ./tmp/hBN_1l_PBE.save/
     Atomic positions from file used, from input discarded


     R & G space division:  proc/nbgrp/npool/nimage =       8
     Subspace diagonalization in iterative solution of the eigenvalue problem:
     a serial algorithm will be used


     Parallelization info
     --------------------
     sticks:   dense  smooth     PW     G-vecs:    dense   smooth      PW
     Min          45      45     15                 4333     4333     755
     Max          46      46     16                 4356     4356     767
     Sum         367     367    121                34803    34803    6103

     Using Slab Decomposition



     bravais-lattice index     =            4
     lattice parameter (alat)  =       4.7450  a.u.
     unit-cell volume          =     555.1247 (a.u.)^3
     number of atoms/cell      =            2
     number of atomic types    =            2
     number of electrons       =         8.00
     number of Kohn-Sham states=           16
     kinetic-energy cutoff     =      60.0000  Ry
     charge density cutoff     =     240.0000  Ry
     Exchange-correlation= PBE
                           (   1   4   3   4   0   0   0)

     celldm(1)=   4.745000  celldm(2)=   0.000000  celldm(3)=   6.000000
     celldm(4)=   0.000000  celldm(5)=   0.000000  celldm(6)=   0.000000

     crystal axes: (cart. coord. in units of alat)
               a(1) = (   1.000000   0.000000   0.000000 )  
               a(2) = (  -0.500000   0.866025   0.000000 )  
               a(3) = (   0.000000   0.000000   6.000000 )  

     reciprocal axes: (cart. coord. in units 2 pi/alat)
               b(1) = (  1.000000  0.577350 -0.000000 )  
               b(2) = (  0.000000  1.154701  0.000000 )  
               b(3) = (  0.000000 -0.000000  0.166667 )  


     PseudoPot. # 1 for N  read from file:
     ../../../Pseudo/PBE/N.upf
     MD5 check sum: d34365f73bb0e2ee98afc20ec3e87676
     Pseudo is Norm-conserving + core correction, Zval =  5.0
     Generated using ONCVPSP code by D. R. Hamann
     Using radial grid of 1058 points,  4 beta functions with: 
                l(1) =   0
                l(2) =   0
                l(3) =   1
                l(4) =   1

     PseudoPot. # 2 for B  read from file:
     ../../../Pseudo/PBE/B.upf
     MD5 check sum: 72f82fc31bc892420d0cab7e25c88ab8
     Pseudo is Norm-conserving + core correction, Zval =  3.0
     Generated using ONCVPSP code by D. R. Hamann
     Using radial grid of 1534 points,  4 beta functions with: 
                l(1) =   0
                l(2) =   0
                l(3) =   1
                l(4) =   1

     atomic species   valence    mass     pseudopotential
        N              5.00    14.00670     N ( 1.00)
        B              3.00    10.80100     B ( 1.00)

     12 Sym. Ops. (no inversion) found


                                    s                        frac. trans.

      isym =  1     identity                                     

 cryst.   s( 1) = (     1          0          0      )
                  (     0          1          0      )
                  (     0          0          1      )

 cart.    s( 1) = (  1.0000000  0.0000000  0.0000000 )
                  (  0.0000000  1.0000000  0.0000000 )
                  (  0.0000000  0.0000000  1.0000000 )


      isym =  2     180 deg rotation - cart. axis [0,1,0]        

 cryst.   s( 2) = (    -1          0          0      )
                  (     1          1          0      )
                  (     0          0         -1      )

 cart.    s( 2) = ( -1.0000000  0.0000000  0.0000000 )
                  (  0.0000000  1.0000000  0.0000000 )
                  (  0.0000000  0.0000000 -1.0000000 )


      isym =  3     120 deg rotation - cryst. axis [0,0,1]       

 cryst.   s( 3) = (     0          1          0      )
                  (    -1         -1          0      )
                  (     0          0          1      )

 cart.    s( 3) = ( -0.5000000 -0.8660254  0.0000000 )
                  (  0.8660254 -0.5000000  0.0000000 )
                  (  0.0000000  0.0000000  1.0000000 )


      isym =  4     120 deg rotation - cryst. axis [0,0,-1]      

 cryst.   s( 4) = (    -1         -1          0      )
                  (     1          0          0      )
                  (     0          0          1      )

 cart.    s( 4) = ( -0.5000000  0.8660254  0.0000000 )
                  ( -0.8660254 -0.5000000  0.0000000 )
                  (  0.0000000  0.0000000  1.0000000 )


      isym =  5     180 deg rotation - cryst. axis [1,-1,0]      

 cryst.   s( 5) = (     0         -1          0      )
                  (    -1          0          0      )
                  (     0          0         -1      )

 cart.    s( 5) = (  0.5000000 -0.8660254  0.0000000 )
                  ( -0.8660254 -0.5000000  0.0000000 )
                  (  0.0000000  0.0000000 -1.0000000 )


      isym =  6     180 deg rotation - cryst. axis [2,1,0]       

 cryst.   s( 6) = (     1          1          0      )
                  (     0         -1          0      )
                  (     0          0         -1      )

 cart.    s( 6) = (  0.5000000  0.8660254  0.0000000 )
                  (  0.8660254 -0.5000000  0.0000000 )
                  (  0.0000000  0.0000000 -1.0000000 )


      isym =  7     inv. 180 deg rotation - cart. axis [0,0,1]   

 cryst.   s( 7) = (     1          0          0      )
                  (     0          1          0      )
                  (     0          0         -1      )

 cart.    s( 7) = (  1.0000000  0.0000000  0.0000000 )
                  (  0.0000000  1.0000000  0.0000000 )
                  (  0.0000000  0.0000000 -1.0000000 )


      isym =  8     inv. 180 deg rotation - cart. axis [1,0,0]   

 cryst.   s( 8) = (    -1          0          0      )
                  (     1          1          0      )
                  (     0          0          1      )

 cart.    s( 8) = ( -1.0000000  0.0000000  0.0000000 )
                  (  0.0000000  1.0000000  0.0000000 )
                  (  0.0000000  0.0000000  1.0000000 )


      isym =  9     inv.  60 deg rotation - cryst. axis [0,0,1]  

 cryst.   s( 9) = (    -1         -1          0      )
                  (     1          0          0      )
                  (     0          0         -1      )

 cart.    s( 9) = ( -0.5000000  0.8660254  0.0000000 )
                  ( -0.8660254 -0.5000000  0.0000000 )
                  (  0.0000000  0.0000000 -1.0000000 )


      isym = 10     inv.  60 deg rotation - cryst. axis [0,0,-1] 

 cryst.   s(10) = (     0          1          0      )
                  (    -1         -1          0      )
                  (     0          0         -1      )

 cart.    s(10) = ( -0.5000000 -0.8660254  0.0000000 )
                  (  0.8660254 -0.5000000  0.0000000 )
                  (  0.0000000  0.0000000 -1.0000000 )


      isym = 11     inv. 180 deg rotation - cryst. axis [0,1,0]  

 cryst.   s(11) = (     1          1          0      )
                  (     0         -1          0      )
                  (     0          0          1      )

 cart.    s(11) = (  0.5000000  0.8660254  0.0000000 )
                  (  0.8660254 -0.5000000  0.0000000 )
                  (  0.0000000  0.0000000  1.0000000 )


      isym = 12     inv. 180 deg rotation - cryst. axis [1,1,0]  

 cryst.   s(12) = (     0         -1          0      )
                  (    -1          0          0      )
                  (     0          0          1      )

 cart.    s(12) = (  0.5000000 -0.8660254  0.0000000 )
                  ( -0.8660254 -0.5000000  0.0000000 )
                  (  0.0000000  0.0000000  1.0000000 )


     point group D_3h (-62m)
     there are  6 classes
     the character table:

       E     2C3   3C2   s_h   2S3   3s_v 
A'_1   1.00  1.00  1.00  1.00  1.00  1.00
A'_2   1.00  1.00 -1.00  1.00  1.00 -1.00
E'     2.00 -1.00  0.00  2.00 -1.00  0.00
A''1   1.00  1.00  1.00 -1.00 -1.00 -1.00
A''2   1.00  1.00 -1.00 -1.00 -1.00  1.00
E''    2.00 -1.00  0.00 -2.00  1.00  0.00

     the symmetry operations in each class and the name of the first element:

     E        1
          identity                                               
     2C3      3    4
          120 deg rotation - cryst. axis [0,0,1]                 
     3C2      2    6    5
          180 deg rotation - cart. axis [0,1,0]                  
     s_h      7
          inv. 180 deg rotation - cart. axis [0,0,1]             
     2S3      9   10
          inv.  60 deg rotation - cryst. axis [0,0,1]            
     3s_v     8   11   12
          inv. 180 deg rotation - cart. axis [1,0,0]             

   Cartesian axes

     site n.     atom                  positions (alat units)
         1           B   tau(   1) = (   0.0000000   0.0000000   0.0000000  )
         2           N   tau(   2) = (  -0.0000000   0.5773503   0.0000000  )

   Crystallographic axes

     site n.     atom                  positions (cryst. coord.)
         1           B   tau(   1) = (  0.0000000  0.0000000  0.0000000  )
         2           N   tau(   2) = (  0.3333333  0.6666667  0.0000000  )

     number of k points=    51  Marzari-Vanderbilt smearing, width (Ry)=  0.0050
                       cart. coord. in units 2pi/alat
        k(    1) = (   0.0000000   0.0000000   0.0000000), wk =   0.0392157
        k(    2) = (  -0.0158714   0.0274938   0.0000000), wk =   0.0392157
        k(    3) = (  -0.0317429   0.0549876   0.0000000), wk =   0.0392157
        k(    4) = (  -0.0476143   0.0824814   0.0000000), wk =   0.0392157
        k(    5) = (  -0.0634857   0.1099752   0.0000000), wk =   0.0392157
        k(    6) = (  -0.0793571   0.1374690   0.0000000), wk =   0.0392157
        k(    7) = (  -0.0952286   0.1649628   0.0000000), wk =   0.0392157
        k(    8) = (  -0.1111000   0.1924566   0.0000000), wk =   0.0392157
        k(    9) = (  -0.1269714   0.2199504   0.0000000), wk =   0.0392157
        k(   10) = (  -0.1428429   0.2474442   0.0000000), wk =   0.0392157
        k(   11) = (  -0.1587143   0.2749380   0.0000000), wk =   0.0392157
        k(   12) = (  -0.1745857   0.3024319   0.0000000), wk =   0.0392157
        k(   13) = (  -0.1904571   0.3299257   0.0000000), wk =   0.0392157
        k(   14) = (  -0.2063286   0.3574195   0.0000000), wk =   0.0392157
        k(   15) = (  -0.2222000   0.3849133   0.0000000), wk =   0.0392157
        k(   16) = (  -0.2380714   0.4124071   0.0000000), wk =   0.0392157
        k(   17) = (  -0.2539429   0.4399009   0.0000000), wk =   0.0392157
        k(   18) = (  -0.2698143   0.4673947   0.0000000), wk =   0.0392157
        k(   19) = (  -0.2856857   0.4948885   0.0000000), wk =   0.0392157
        k(   20) = (  -0.3015571   0.5223823   0.0000000), wk =   0.0392157
        k(   21) = (  -0.3174286   0.5498761   0.0000000), wk =   0.0392157
        k(   22) = (  -0.3333000   0.5773699   0.0000000), wk =   0.0392157
        k(   23) = (  -0.3030000   0.5773681   0.0000000), wk =   0.0392157
        k(   24) = (  -0.2727000   0.5773663   0.0000000), wk =   0.0392157
        k(   25) = (  -0.2424000   0.5773645   0.0000000), wk =   0.0392157
        k(   26) = (  -0.2121000   0.5773628   0.0000000), wk =   0.0392157
        k(   27) = (  -0.1818000   0.5773610   0.0000000), wk =   0.0392157
        k(   28) = (  -0.1515000   0.5773592   0.0000000), wk =   0.0392157
        k(   29) = (  -0.1212000   0.5773574   0.0000000), wk =   0.0392157
        k(   30) = (  -0.0909000   0.5773556   0.0000000), wk =   0.0392157
        k(   31) = (  -0.0606000   0.5773538   0.0000000), wk =   0.0392157
        k(   32) = (  -0.0303000   0.5773521   0.0000000), wk =   0.0392157
        k(   33) = (   0.0000000   0.5773503   0.0000000), wk =   0.0392157
        k(   34) = (   0.0000000   0.5452753   0.0000000), wk =   0.0392157
        k(   35) = (   0.0000000   0.5132002   0.0000000), wk =   0.0392157
        k(   36) = (   0.0000000   0.4811252   0.0000000), wk =   0.0392157
        k(   37) = (   0.0000000   0.4490502   0.0000000), wk =   0.0392157
        k(   38) = (   0.0000000   0.4169752   0.0000000), wk =   0.0392157
        k(   39) = (   0.0000000   0.3849002   0.0000000), wk =   0.0392157
        k(   40) = (   0.0000000   0.3528252   0.0000000), wk =   0.0392157
        k(   41) = (   0.0000000   0.3207501   0.0000000), wk =   0.0392157
        k(   42) = (   0.0000000   0.2886751   0.0000000), wk =   0.0392157
        k(   43) = (   0.0000000   0.2566001   0.0000000), wk =   0.0392157
        k(   44) = (   0.0000000   0.2245251   0.0000000), wk =   0.0392157
        k(   45) = (   0.0000000   0.1924501   0.0000000), wk =   0.0392157
        k(   46) = (   0.0000000   0.1603751   0.0000000), wk =   0.0392157
        k(   47) = (   0.0000000   0.1283001   0.0000000), wk =   0.0392157
        k(   48) = (   0.0000000   0.0962250   0.0000000), wk =   0.0392157
        k(   49) = (   0.0000000   0.0641500   0.0000000), wk =   0.0392157
        k(   50) = (   0.0000000   0.0320750   0.0000000), wk =   0.0392157
        k(   51) = (   0.0000000   0.0000000   0.0000000), wk =   0.0392157

                       cryst. coord.
        k(    1) = (   0.0000000   0.0000000   0.0000000), wk =   0.0392157
        k(    2) = (  -0.0158714   0.0317460   0.0000000), wk =   0.0392157
        k(    3) = (  -0.0317429   0.0634921   0.0000000), wk =   0.0392157
        k(    4) = (  -0.0476143   0.0952381   0.0000000), wk =   0.0392157
        k(    5) = (  -0.0634857   0.1269842   0.0000000), wk =   0.0392157
        k(    6) = (  -0.0793571   0.1587302   0.0000000), wk =   0.0392157
        k(    7) = (  -0.0952286   0.1904763   0.0000000), wk =   0.0392157
        k(    8) = (  -0.1111000   0.2222223   0.0000000), wk =   0.0392157
        k(    9) = (  -0.1269714   0.2539684   0.0000000), wk =   0.0392157
        k(   10) = (  -0.1428429   0.2857144   0.0000000), wk =   0.0392157
        k(   11) = (  -0.1587143   0.3174605   0.0000000), wk =   0.0392157
        k(   12) = (  -0.1745857   0.3492065   0.0000000), wk =   0.0392157
        k(   13) = (  -0.1904571   0.3809526   0.0000000), wk =   0.0392157
        k(   14) = (  -0.2063286   0.4126986   0.0000000), wk =   0.0392157
        k(   15) = (  -0.2222000   0.4444447   0.0000000), wk =   0.0392157
        k(   16) = (  -0.2380714   0.4761907   0.0000000), wk =   0.0392157
        k(   17) = (  -0.2539429   0.5079368   0.0000000), wk =   0.0392157
        k(   18) = (  -0.2698143   0.5396828   0.0000000), wk =   0.0392157
        k(   19) = (  -0.2856857   0.5714289   0.0000000), wk =   0.0392157
        k(   20) = (  -0.3015571   0.6031749   0.0000000), wk =   0.0392157
        k(   21) = (  -0.3174286   0.6349210   0.0000000), wk =   0.0392157
        k(   22) = (  -0.3333000   0.6666670   0.0000000), wk =   0.0392157
        k(   23) = (  -0.3030000   0.6515155   0.0000000), wk =   0.0392157
        k(   24) = (  -0.2727000   0.6363639   0.0000000), wk =   0.0392157
        k(   25) = (  -0.2424000   0.6212124   0.0000000), wk =   0.0392157
        k(   26) = (  -0.2121000   0.6060608   0.0000000), wk =   0.0392157
        k(   27) = (  -0.1818000   0.5909093   0.0000000), wk =   0.0392157
        k(   28) = (  -0.1515000   0.5757577   0.0000000), wk =   0.0392157
        k(   29) = (  -0.1212000   0.5606062   0.0000000), wk =   0.0392157
        k(   30) = (  -0.0909000   0.5454546   0.0000000), wk =   0.0392157
        k(   31) = (  -0.0606000   0.5303031   0.0000000), wk =   0.0392157
        k(   32) = (  -0.0303000   0.5151515   0.0000000), wk =   0.0392157
        k(   33) = (   0.0000000   0.5000000   0.0000000), wk =   0.0392157
        k(   34) = (   0.0000000   0.4722222   0.0000000), wk =   0.0392157
        k(   35) = (   0.0000000   0.4444444   0.0000000), wk =   0.0392157
        k(   36) = (   0.0000000   0.4166667   0.0000000), wk =   0.0392157
        k(   37) = (   0.0000000   0.3888889   0.0000000), wk =   0.0392157
        k(   38) = (   0.0000000   0.3611111   0.0000000), wk =   0.0392157
        k(   39) = (   0.0000000   0.3333333   0.0000000), wk =   0.0392157
        k(   40) = (   0.0000000   0.3055556   0.0000000), wk =   0.0392157
        k(   41) = (   0.0000000   0.2777778   0.0000000), wk =   0.0392157
        k(   42) = (   0.0000000   0.2500000   0.0000000), wk =   0.0392157
        k(   43) = (   0.0000000   0.2222222   0.0000000), wk =   0.0392157
        k(   44) = (   0.0000000   0.1944444   0.0000000), wk =   0.0392157
        k(   45) = (   0.0000000   0.1666667   0.0000000), wk =   0.0392157
        k(   46) = (   0.0000000   0.1388889   0.0000000), wk =   0.0392157
        k(   47) = (   0.0000000   0.1111111   0.0000000), wk =   0.0392157
        k(   48) = (   0.0000000   0.0833333   0.0000000), wk =   0.0392157
        k(   49) = (   0.0000000   0.0555556   0.0000000), wk =   0.0392157
        k(   50) = (   0.0000000   0.0277778   0.0000000), wk =   0.0392157
        k(   51) = (   0.0000000   0.0000000   0.0000000), wk =   0.0392157

     Dense  grid:    34803 G-vectors     FFT dimensions: (  24,  24, 144)

     Dynamical RAM for                 wfc:       0.13 MB

     Dynamical RAM for     wfc (w. buffer):       0.13 MB

     Dynamical RAM for           str. fact:       0.13 MB

     Dynamical RAM for           local pot:       0.00 MB

     Dynamical RAM for          nlocal pot:       0.13 MB

     Dynamical RAM for                qrad:       0.71 MB

     Dynamical RAM for          rho,v,vnew:       0.44 MB

     Dynamical RAM for           G-vectors:       0.28 MB

     Dynamical RAM for          h,s,v(r/c):       0.05 MB

     Dynamical RAM for          <psi|beta>:       0.00 MB

     Dynamical RAM for                 psi:       0.27 MB

     Dynamical RAM for                hpsi:       0.27 MB

     Dynamical RAM for      wfcinit/wfcrot:       0.27 MB

     Estimated static dynamical RAM per process >       2.42 MB

     Estimated max dynamical RAM per process >       3.01 MB

     Estimated total dynamical RAM >      24.04 MB

     The potential is recalculated from file :
     ./tmp/hBN_1l_PBE.save/charge-density

     Starting wfcs are    8 randomized atomic wfcs +    8 random wfcs

     Band Structure Calculation
     Davidson diagonalization with overlap

     Computing kpt #:     1  of    51
     total cpu time spent up to now is        0.5 secs

     Computing kpt #:     2  of    51
     total cpu time spent up to now is        0.6 secs

     Computing kpt #:     3  of    51
     total cpu time spent up to now is        0.7 secs

     Computing kpt #:     4  of    51
     total cpu time spent up to now is        0.9 secs

     Computing kpt #:     5  of    51
     total cpu time spent up to now is        1.0 secs

     Computing kpt #:     6  of    51
     total cpu time spent up to now is        1.1 secs

     Computing kpt #:     7  of    51
     total cpu time spent up to now is        1.2 secs

     Computing kpt #:     8  of    51
     total cpu time spent up to now is        1.4 secs

     Computing kpt #:     9  of    51
     total cpu time spent up to now is        1.5 secs

     Computing kpt #:    10  of    51
     total cpu time spent up to now is        1.6 secs

     Computing kpt #:    11  of    51
     total cpu time spent up to now is        1.8 secs

     Computing kpt #:    12  of    51
     total cpu time spent up to now is        1.9 secs

     Computing kpt #:    13  of    51
     total cpu time spent up to now is        2.0 secs

     Computing kpt #:    14  of    51
     total cpu time spent up to now is        2.2 secs

     Computing kpt #:    15  of    51
     total cpu time spent up to now is        2.3 secs

     Computing kpt #:    16  of    51
     total cpu time spent up to now is        2.5 secs

     Computing kpt #:    17  of    51
     total cpu time spent up to now is        2.7 secs

     Computing kpt #:    18  of    51
     total cpu time spent up to now is        2.9 secs

     Computing kpt #:    19  of    51
     total cpu time spent up to now is        3.1 secs

     Computing kpt #:    20  of    51
     total cpu time spent up to now is        3.3 secs

     Computing kpt #:    21  of    51
     total cpu time spent up to now is        3.6 secs

     Computing kpt #:    22  of    51
     total cpu time spent up to now is        3.8 secs

     Computing kpt #:    23  of    51
     total cpu time spent up to now is        4.0 secs

     Computing kpt #:    24  of    51
     total cpu time spent up to now is        4.3 secs

     Computing kpt #:    25  of    51
     total cpu time spent up to now is        4.5 secs

     Computing kpt #:    26  of    51
     total cpu time spent up to now is        4.8 secs

     Computing kpt #:    27  of    51
     total cpu time spent up to now is        5.0 secs

     Computing kpt #:    28  of    51
     total cpu time spent up to now is        5.2 secs

     Computing kpt #:    29  of    51
     total cpu time spent up to now is        5.4 secs

     Computing kpt #:    30  of    51
     total cpu time spent up to now is        5.6 secs

     Computing kpt #:    31  of    51
     total cpu time spent up to now is        5.7 secs

     Computing kpt #:    32  of    51
     total cpu time spent up to now is        6.0 secs

     Computing kpt #:    33  of    51
     total cpu time spent up to now is        6.1 secs

     Computing kpt #:    34  of    51
     total cpu time spent up to now is        6.3 secs

     Computing kpt #:    35  of    51
     total cpu time spent up to now is        6.6 secs

     Computing kpt #:    36  of    51
     total cpu time spent up to now is        6.7 secs

     Computing kpt #:    37  of    51
     total cpu time spent up to now is        6.9 secs

     Computing kpt #:    38  of    51
     total cpu time spent up to now is        7.1 secs

     Computing kpt #:    39  of    51
     total cpu time spent up to now is        7.3 secs

     Computing kpt #:    40  of    51
     total cpu time spent up to now is        7.4 secs

     Computing kpt #:    41  of    51
     total cpu time spent up to now is        7.5 secs

     Computing kpt #:    42  of    51
     total cpu time spent up to now is        7.7 secs

     Computing kpt #:    43  of    51
     total cpu time spent up to now is        7.8 secs

     Computing kpt #:    44  of    51
     total cpu time spent up to now is        7.9 secs

     Computing kpt #:    45  of    51
     total cpu time spent up to now is        8.0 secs

     Computing kpt #:    46  of    51
     total cpu time spent up to now is        8.1 secs

     Computing kpt #:    47  of    51
     total cpu time spent up to now is        8.3 secs

     Computing kpt #:    48  of    51
     total cpu time spent up to now is        8.4 secs

     Computing kpt #:    49  of    51
     total cpu time spent up to now is        8.5 secs

     Computing kpt #:    50  of    51
     total cpu time spent up to now is        8.6 secs

     Computing kpt #:    51  of    51
     total cpu time spent up to now is        8.7 secs

     ethr =  1.25E-08,  avg # of iterations = 31.0

     total cpu time spent up to now is        8.7 secs

     End of band structure calculation

          k = 0.0000 0.0000 0.0000 (  4301 PWs)   bands (ev):

   -21.1137  -8.7057  -4.8623  -4.8623   1.1920   2.1856   2.6103   4.4447
     5.1101   7.8223   8.1184   8.1184   8.5232  10.2266  11.1907  14.3178

          k =-0.0159 0.0275 0.0000 (  4339 PWs)   bands (ev):

   -21.0994  -8.6868  -4.9264  -4.8926   1.2172   2.2083   2.6346   4.4659
     5.1352   7.8259   8.1009   8.1821   8.5655  10.2037  11.2274  14.3289

          k =-0.0317 0.0550 0.0000 (  4343 PWs)   bands (ev):

   -21.0559  -8.6285  -5.1104  -4.9803   1.2924   2.2765   2.7076   4.5298
     5.2103   7.8346   8.0660   8.3574   8.6922  10.1416  11.3368  14.3638

          k =-0.0476 0.0825 0.0000 (  4335 PWs)   bands (ev):

   -20.9838  -8.5314  -5.3995  -5.1237   1.4162   2.3898   2.8287   4.6353
     5.3334   7.8355   8.0373   8.5788   8.9345  10.0549  11.5161  14.4261

          k =-0.0635 0.1100 0.0000 (  4329 PWs)   bands (ev):

   -20.8833  -8.3961  -5.7749  -5.3190   1.5873   2.5477   2.9977   4.7800
     5.5030   7.8062   8.0302   8.7836   9.3216   9.9710  11.7647  14.5194

          k =-0.0794 0.1375 0.0000 (  4328 PWs)   bands (ev):

   -20.7553  -8.2235  -6.2143  -5.5608   1.8046   2.7488   3.2142   4.9595
     5.7177   7.7179   8.0550   8.9844   9.8052   9.9282  12.0867  14.6453

          k =-0.0952 0.1650 0.0000 (  4330 PWs)   bands (ev):

   -20.6004  -8.0142  -6.6977  -5.8431   2.0673   2.9909   3.4780   5.1644
     5.9766   7.5538   8.1182   9.1990   9.9623  10.3294  12.4914  14.8015

          k =-0.1111 0.1925 0.0000 (  4328 PWs)   bands (ev):

   -20.4199  -7.7698  -7.2080  -6.1590   2.3753   3.2698   3.7889   5.3734
     6.2793   7.3346   8.2240   9.4324  10.0887  10.8534  12.9875  14.9776

          k =-0.1270 0.2200 0.0000 (  4342 PWs)   bands (ev):

   -20.2152  -7.7314  -7.4919  -6.5016   2.7281   3.5756   4.1470   5.5359
     6.6250   7.1367   8.3733   9.6837  10.3004  11.3547  13.5718  15.1469

          k =-0.1428 0.2474 0.0000 (  4342 PWs)   bands (ev):

   -19.9883  -8.2549  -7.1823  -6.8637   3.1258   3.8826   4.5521   5.5707
     7.0133   7.0922   8.5660   9.9511  10.5812  11.8324  14.2217  15.2452

          k =-0.1587 0.2749 0.0000 (  4358 PWs)   bands (ev):

   -19.7416  -8.7694  -7.2389  -6.8440   3.5679   4.1145   5.0043   5.5025
     7.2746   7.4431   8.7983  10.2312  10.9124  12.2990  14.8968  15.1542

          k =-0.1746 0.3024 0.0000 (  4360 PWs)   bands (ev):

   -19.4784  -9.2643  -7.6207  -6.4807   4.0542   4.1085   5.5032   5.5717
     7.6231   7.9126   9.0661  10.5223  11.2701  12.7708  14.8192  15.5406

          k =-0.1905 0.3299 0.0000 (  4368 PWs)   bands (ev):

   -19.2029  -9.7325  -8.0038  -6.0971   3.8272   4.5839   5.8972   6.0489
     8.0676   8.4189   9.3616  10.8248  11.6131  13.2602  14.3876  16.0567

          k =-0.2063 0.3574 0.0000 (  4370 PWs)   bands (ev):

   -18.9204 -10.1642  -8.3835  -5.6991   3.4164   5.1560   6.3754   6.6408
     8.5694   8.9553   9.6756  11.1430  11.8570  13.7748  14.0705  16.2554

          k =-0.2222 0.3849 0.0000 (  4370 PWs)   bands (ev):

   -18.6380 -10.5513  -8.7553  -5.2950   2.9715   5.7689   6.9319   7.2784
     9.0993   9.5050  10.0037  11.4862  11.8946  14.0490  14.3149  15.9884

          k =-0.2381 0.4124 0.0000 (  4378 PWs)   bands (ev):

   -18.3643 -10.8830  -9.1157  -4.8959   2.5359   6.4198   7.5298   7.9607
     9.6133  10.0045  10.3818  11.7802  11.8643  14.3287  14.8680  15.4563

          k =-0.2539 0.4399 0.0000 (  4380 PWs)   bands (ev):

   -18.1099 -11.1494  -9.4606  -4.5151   2.1358   7.1037   8.1302   8.6849
    10.0264  10.3430  10.8907  11.7597  12.2825  14.7314  14.8710  15.3461

          k =-0.2698 0.4674 0.0000 (  4376 PWs)   bands (ev):

   -17.8863 -11.3392  -9.7864  -4.1703   1.7902   7.8113   8.6502   9.4436
    10.2969  10.5625  11.4532  12.0428  12.7245  14.3490  14.8217  14.9937

          k =-0.2857 0.4949 0.0000 (  4370 PWs)   bands (ev):

   -17.7050 -11.4448 -10.0884  -3.8812   1.5163   8.5220   8.9411  10.1957
    10.6449  10.7585  11.9290  12.5823  13.1149  14.0345  14.3254  14.4376

          k =-0.3016 0.5224 0.0000 (  4352 PWs)   bands (ev):

   -17.5746 -11.4657 -10.3573  -3.6666   1.3257   8.9830   9.1829  10.6599
    11.2327  11.2460  12.1002  13.1675  13.3804  13.8155  13.8722  14.1199

          k =-0.3174 0.5499 0.0000 (  4370 PWs)   bands (ev):

   -17.4992 -11.4223 -10.5713  -3.5398   1.2207   8.9347   9.6588  10.8973
    11.7710  11.9509  12.1941  13.1389  13.3552  13.5169  13.6694  14.0737

          k =-0.3333 0.5774 0.0000 (  4344 PWs)   bands (ev):

   -17.4755 -11.3819 -10.6658  -3.4987   1.1908   8.9064   9.8087  11.1045
    11.6285  12.4519  12.8589  12.8642  13.0105  13.1860  13.5061  14.2154

          k =-0.3030 0.5774 0.0000 (  4374 PWs)   bands (ev):

   -17.4942 -11.4371 -10.5657  -3.5305   1.2100   8.9393   9.7175  10.8885
    11.7142  12.1687  12.5405  12.7203  12.7621  13.7564  13.8590  14.1380

          k =-0.2727 0.5774 0.0000 (  4360 PWs)   bands (ev):

   -17.5426 -11.5668 -10.3090  -3.6111   1.2520   9.0401   9.5002  10.5386
    11.5648  11.7994  12.1729  12.4005  12.4799  13.8763  14.0079  14.3082

          k =-0.2424 0.5774 0.0000 (  4354 PWs)   bands (ev):

   -17.6108 -11.7161  -9.9680  -3.7221   1.2962   9.1889   9.1974  10.1964
    11.1957  11.4606  11.8230  12.0599  12.2152  13.6526  13.7229  14.4716

          k =-0.2121 0.5774 0.0000 (  4364 PWs)   bands (ev):

   -17.6895 -11.8609  -9.5842  -3.8476   1.3299   8.7903   9.3811   9.8916
    10.7748  11.1632  11.5114  11.7260  12.0124  13.4369  13.4546  14.2393

          k =-0.1818 0.5774 0.0000 (  4344 PWs)   bands (ev):

   -17.7704 -11.9915  -9.1835  -3.9741   1.3486   8.3191   9.5482   9.6337
    10.3871  10.9102  11.2418  11.4311  11.8881  13.1878  13.2799  13.9932

          k =-0.1515 0.5774 0.0000 (  4354 PWs)   bands (ev):

   -17.8479 -12.1050  -8.7892  -4.0933   1.3529   7.8110   9.4213   9.6597
    10.0650  10.7015  11.0139  11.1824  11.8393  12.9815  13.1267  13.7754

          k =-0.1212 0.5774 0.0000 (  4358 PWs)   bands (ev):

   -17.9169 -12.1991  -8.4224  -4.1978   1.3471   7.3147   9.2510   9.7044
     9.8124  10.5352  10.8273  10.9802  11.8368  12.8187  12.9973  13.5931

          k =-0.0909 0.5774 0.0000 (  4352 PWs)   bands (ev):

   -17.9737 -12.2729  -8.1053  -4.2824   1.3365   6.8767   9.1198   9.6236
     9.7017  10.4085  10.6821  10.8237  11.8441  12.6972  12.8938  13.4496

          k =-0.0606 0.5774 0.0000 (  4362 PWs)   bands (ev):

   -18.0162 -12.3259  -7.8592  -4.3456   1.3251   6.5345   9.0267   9.4927
     9.6791  10.3188  10.5783  10.7124  11.8441  12.6134  12.8184  13.3463

          k =-0.0303 0.5774 0.0000 (  4354 PWs)   bands (ev):

   -18.0422 -12.3576  -7.7024  -4.3841   1.3169   6.3169   8.9710   9.4155
     9.6579  10.2652  10.5161  10.6457  11.8393  12.5642  12.7728  13.2841

          k = 0.0000 0.5774 0.0000 (  4348 PWs)   bands (ev):

   -18.0509 -12.3682  -7.6485  -4.3970   1.3139   6.2422   8.9525   9.3900
     9.6497  10.2473  10.4953  10.6235  11.8367  12.5480  12.7574  13.2633

          k = 0.0000 0.5453 0.0000 (  4368 PWs)   bands (ev):

   -18.0954 -12.2994  -7.6328  -4.4670   1.4045   6.2151   8.4180   9.1252
     9.6706  10.0373  10.6990  11.4218  11.4881  12.2241  12.9746  13.8150

          k = 0.0000 0.5132 0.0000 (  4376 PWs)   bands (ev):

   -18.2221 -12.0984  -7.5856  -4.6635   1.6612   6.1175   7.7968   8.4077
     8.9324  10.5322  10.7386  11.5292  11.7573  12.3769  13.4832  14.4461

          k = 0.0000 0.4811 0.0000 (  4382 PWs)   bands (ev):

   -18.4137 -11.7836  -7.5071  -4.9539   2.0473   5.8996   7.3032   7.7113
     8.2246   9.9101  10.6706  11.7143  12.3970  13.3067  13.5888  14.4744

          k = 0.0000 0.4491 0.0000 (  4392 PWs)   bands (ev):

   -18.6499 -11.3770  -7.3984  -5.3030   2.5192   5.5272   6.9419   7.0581
     7.6226   9.2827  10.0555  12.3732  12.5681  13.8439  13.9303  14.4604

          k = 0.0000 0.4170 0.0000 (  4374 PWs)   bands (ev):

   -18.9116 -10.8993  -7.2606  -5.6807   3.0338   5.0511   6.4613   6.5483
     7.2445   8.6910   9.4567  12.2430  12.6378  13.9008  14.4655  15.3570

          k = 0.0000 0.3849 0.0000 (  4382 PWs)   bands (ev):

   -19.1842 -10.3690  -7.0966  -6.0673   3.5375   4.5438   5.9424   6.0440
     7.0926   8.1495   8.9087  11.8112  12.3509  14.0909  15.0448  15.0492

          k = 0.0000 0.3528 0.0000 (  4366 PWs)   bands (ev):

   -19.4561  -9.8001  -6.9080  -6.4476   3.9403   4.0459   5.5242   5.5591
     7.0186   7.6738   8.4308  11.3784  11.8942  14.0973  14.2139  15.4113

          k = 0.0000 0.3208 0.0000 (  4352 PWs)   bands (ev):

   -19.7194  -9.2061  -6.8120  -6.6984   3.5752   4.0724   5.0321   5.4338
     6.9319   7.2937   8.0547  10.9755  11.4173  13.3746  13.8801  15.4957

          k = 0.0000 0.2887 0.0000 (  4354 PWs)   bands (ev):

   -19.9683  -8.5995  -7.1540  -6.4718   3.1400   3.8946   4.5799   5.5193
     6.7704   7.0750   7.8221  10.6188  10.9550  12.5463  13.5455  15.3909

          k = 0.0000 0.2566 0.0000 (  4336 PWs)   bands (ev):

   -20.1982  -7.9913  -7.4680  -6.2328   2.7447   3.5975   4.1719   5.5269
     6.5253   7.0962   7.7332  10.3217  10.5189  11.7484  13.1651  15.2066

          k = 0.0000 0.2245 0.0000 (  4320 PWs)   bands (ev):

   -20.4062  -7.7508  -7.3941  -5.9878   2.3912   3.2901   3.8097   5.3827
     6.2444   7.2986   7.7346  10.0987  10.1129  10.9948  12.7763  15.0049

          k = 0.0000 0.1925 0.0000 (  4324 PWs)   bands (ev):

   -20.5900  -8.0000  -6.8222  -5.7448   2.0811   3.0070   3.4942   5.1764
     5.9693   7.5324   7.7803   9.7411   9.9646  10.2987  12.4030  14.8157

          k = 0.0000 0.1604 0.0000 (  4316 PWs)   bands (ev):

   -20.7479  -8.2133  -6.2904  -5.5122   1.8154   2.7603   3.2260   4.9693
     5.7207   7.7080   7.8467   9.4073   9.6763   9.9258  12.0615  14.6534

          k = 0.0000 0.1283 0.0000 (  4326 PWs)   bands (ev):

   -20.8786  -8.3895  -5.8165  -5.3006   1.5948   2.5552   3.0055   4.7867
     5.5082   7.8030   7.9196   9.1160   9.1406   9.9672  11.7638  14.5240

          k = 0.0000 0.0962 0.0000 (  4332 PWs)   bands (ev):

   -20.9810  -8.5277  -5.4191  -5.1195   1.4207   2.3941   2.8332   4.6392
     5.3375   7.8354   7.9908   8.7047   8.8735  10.0524  11.5204  14.4286

          k = 0.0000 0.0642 0.0000 (  4335 PWs)   bands (ev):

   -21.0547  -8.6267  -5.1175  -4.9805   1.2944   2.2784   2.7096   4.5317
     5.2123   7.8350   8.0534   8.3828   8.6873  10.1403  11.3396  14.3649

          k = 0.0000 0.0321 0.0000 (  4337 PWs)   bands (ev):

   -21.0991  -8.6863  -4.9279  -4.8931   1.2177   2.2088   2.6351   4.4664
     5.1358   7.8261   8.0996   8.1846   8.5662  10.2033  11.2282  14.3291

          k = 0.0000 0.0000 0.0000 (  4301 PWs)   bands (ev):

   -21.1137  -8.7057  -4.8623  -4.8623   1.1920   2.1856   2.6103   4.4447
     5.1101   7.8223   8.1184   8.1184   8.5232  10.2266  11.1907  14.3178

     Writing all to output data dir ./tmp/hBN_1l_PBE.save/

     init_run     :      0.32s CPU      0.33s WALL (       1 calls)
     electrons    :      8.19s CPU      8.30s WALL (       1 calls)

     Called by init_run:
     wfcinit      :      0.00s CPU      0.00s WALL (       1 calls)
     wfcinit:atom :      0.00s CPU      0.01s WALL (      51 calls)
     wfcinit:wfcr :      0.27s CPU      0.28s WALL (      51 calls)
     potinit      :      0.01s CPU      0.01s WALL (       1 calls)
     hinit0       :      0.29s CPU      0.30s WALL (       1 calls)

     Called by electrons:
     c_bands      :      8.19s CPU      8.30s WALL (       1 calls)
     v_of_rho     :      0.01s CPU      0.01s WALL (       1 calls)
     v_h          :      0.00s CPU      0.00s WALL (       1 calls)
     v_xc         :      0.01s CPU      0.01s WALL (       1 calls)

     Called by c_bands:
     init_us_2    :      0.01s CPU      0.01s WALL (      51 calls)
     init_us_2:cp :      0.01s CPU      0.01s WALL (      51 calls)
     cegterg      :      7.88s CPU      7.97s WALL (     104 calls)

     Called by sum_band:

     Called by *egterg:
     cdiaghg      :      0.55s CPU      0.57s WALL (    1634 calls)
     cegterg:over :      0.68s CPU      0.69s WALL (    1583 calls)
     cegterg:upda :      0.53s CPU      0.50s WALL (    1583 calls)
     cegterg:last :      0.92s CPU      0.71s WALL (    1103 calls)
     h_psi        :      5.12s CPU      5.37s WALL (    1738 calls)
     g_psi        :      0.06s CPU      0.09s WALL (    1583 calls)

     Called by h_psi:
     h_psi:calbec :      0.20s CPU      0.21s WALL (    1738 calls)
     vloc_psi     :      4.62s CPU      4.82s WALL (    1738 calls)
     add_vuspsi   :      0.26s CPU      0.29s WALL (    1738 calls)

     General routines
     calbec       :      0.20s CPU      0.20s WALL (    1738 calls)
     fft          :      0.26s CPU      0.26s WALL (      11 calls)
     fftw         :      4.20s CPU      4.36s WALL (   33930 calls)
     davcio       :      0.00s CPU      0.01s WALL (     102 calls)

     Parallel routines

     PWSCF        :      8.68s CPU      8.87s WALL


   This run was terminated on:  13:59:38  16Apr2024            

=------------------------------------------------------------------------------=
   JOB DONE.
=------------------------------------------------------------------------------=
