
     Program PWSCF v.7.2 starts on  8Apr2024 at 13:56:23 

     This program is part of the open-source Quantum ESPRESSO suite
     for quantum simulation of materials; please cite
         "P. Giannozzi et al., J. Phys.:Condens. Matter 21 395502 (2009);
         "P. Giannozzi et al., J. Phys.:Condens. Matter 29 465901 (2017);
         "P. Giannozzi et al., J. Chem. Phys. 152 154105 (2020);
          URL http://www.quantum-espresso.org", 
     in publications or presentations arising from this work. More details at
     http://www.quantum-espresso.org/quote

     Parallel version (MPI & OpenMP), running on       8 processor cores
     Number of MPI processes:                 8
     Threads/MPI process:                     1

     MPI processes distributed on     1 nodes
     0 MiB available memory on the printing compute node when the environment starts

     Waiting for input...
     Reading input from standard input

     Current dimensions of program PWSCF are:
     Max number of different atomic species (ntypx) = 10
     Max number of k-points (npk) =  40000
     Max angular momentum in pseudopotentials (lmaxx) =  4

     IMPORTANT: XC functional enforced from input :
     Exchange-correlation= VDW-DF2-B86R
                           (   1   4  26   0   2   0   0)
     Any further DFT definition will be discarded
     Please, verify this is what you really want


     R & G space division:  proc/nbgrp/npool/nimage =       8
     Subspace diagonalization in iterative solution of the eigenvalue problem:
     a serial algorithm will be used


     Parallelization info
     --------------------
     sticks:   dense  smooth     PW     G-vecs:    dense   smooth      PW
     Min          93      93     26                16393    16393    2566
     Max          94      94     27                16428    16428    2595
     Sum         745     745    211               131209   131209   20621

     Using Slab Decomposition



     bravais-lattice index     =            4
     lattice parameter (alat)  =       4.7400  a.u.
     unit-cell volume          =     737.8289 (a.u.)^3
     number of atoms/cell      =            4
     number of atomic types    =            2
     number of electrons       =        16.00
     number of Kohn-Sham states=           12
     kinetic-energy cutoff     =     120.0000  Ry
     charge density cutoff     =     480.0000  Ry
     scf convergence threshold =      1.0E-06
     mixing beta               =       0.7000
     number of iterations used =            8  plain     mixing
     energy convergence thresh.=      1.0E-04
     force convergence thresh. =      1.0E-03
     press convergence thresh. =      5.0E-01
     Exchange-correlation= VDW-DF2-B86R
                           (   1   4  26   0   2   0   0)
     nstep                     =           50


     celldm(1)=   4.740000  celldm(2)=   0.000000  celldm(3)=   8.000000
     celldm(4)=   0.000000  celldm(5)=   0.000000  celldm(6)=   0.000000

     crystal axes: (cart. coord. in units of alat)
               a(1) = (   1.000000   0.000000   0.000000 )  
               a(2) = (  -0.500000   0.866025   0.000000 )  
               a(3) = (   0.000000   0.000000   8.000000 )  

     reciprocal axes: (cart. coord. in units 2 pi/alat)
               b(1) = (  1.000000  0.577350 -0.000000 )  
               b(2) = (  0.000000  1.154701  0.000000 )  
               b(3) = (  0.000000 -0.000000  0.125000 )  


     PseudoPot. # 1 for B  read from file:
     ../../../Pseudo/PBE/B.upf
     MD5 check sum: 72f82fc31bc892420d0cab7e25c88ab8
     Pseudo is Norm-conserving + core correction, Zval =  3.0
     Generated using ONCVPSP code by D. R. Hamann
     Using radial grid of 1534 points,  4 beta functions with: 
                l(1) =   0
                l(2) =   0
                l(3) =   1
                l(4) =   1

     PseudoPot. # 2 for N  read from file:
     ../../../Pseudo/PBE/N.upf
     MD5 check sum: d34365f73bb0e2ee98afc20ec3e87676
     Pseudo is Norm-conserving + core correction, Zval =  5.0
     Generated using ONCVPSP code by D. R. Hamann
     Using radial grid of 1058 points,  4 beta functions with: 
                l(1) =   0
                l(2) =   0
                l(3) =   1
                l(4) =   1

     atomic species   valence    mass     pseudopotential
        B              3.00    10.00000     B ( 1.00)
        N              5.00    14.01100     N ( 1.00)

      6 Sym. Ops. (no inversion) found


                                    s                        frac. trans.

      isym =  1     identity                                     

 cryst.   s( 1) = (     1          0          0      )
                  (     0          1          0      )
                  (     0          0          1      )

 cart.    s( 1) = (  1.0000000  0.0000000  0.0000000 )
                  (  0.0000000  1.0000000  0.0000000 )
                  (  0.0000000  0.0000000  1.0000000 )


      isym =  2     120 deg rotation - cryst. axis [0,0,1]       

 cryst.   s( 2) = (     0          1          0      )
                  (    -1         -1          0      )
                  (     0          0          1      )

 cart.    s( 2) = ( -0.5000000 -0.8660254  0.0000000 )
                  (  0.8660254 -0.5000000  0.0000000 )
                  (  0.0000000  0.0000000  1.0000000 )


      isym =  3     120 deg rotation - cryst. axis [0,0,-1]      

 cryst.   s( 3) = (    -1         -1          0      )
                  (     1          0          0      )
                  (     0          0          1      )

 cart.    s( 3) = ( -0.5000000  0.8660254  0.0000000 )
                  ( -0.8660254 -0.5000000  0.0000000 )
                  (  0.0000000  0.0000000  1.0000000 )


      isym =  4     inv. 180 deg rotation - cart. axis [1,0,0]   

 cryst.   s( 4) = (    -1          0          0      )
                  (     1          1          0      )
                  (     0          0          1      )

 cart.    s( 4) = ( -1.0000000  0.0000000  0.0000000 )
                  (  0.0000000  1.0000000  0.0000000 )
                  (  0.0000000  0.0000000  1.0000000 )


      isym =  5     inv. 180 deg rotation - cryst. axis [0,1,0]  

 cryst.   s( 5) = (     1          1          0      )
                  (     0         -1          0      )
                  (     0          0          1      )

 cart.    s( 5) = (  0.5000000  0.8660254  0.0000000 )
                  (  0.8660254 -0.5000000  0.0000000 )
                  (  0.0000000  0.0000000  1.0000000 )


      isym =  6     inv. 180 deg rotation - cryst. axis [1,1,0]  

 cryst.   s( 6) = (     0         -1          0      )
                  (    -1          0          0      )
                  (     0          0          1      )

 cart.    s( 6) = (  0.5000000 -0.8660254  0.0000000 )
                  ( -0.8660254 -0.5000000  0.0000000 )
                  (  0.0000000  0.0000000  1.0000000 )


     point group C_3v (3m)  
     there are  3 classes
     the character table:

       E     2C3   3s_v 
A_1    1.00  1.00  1.00
A_2    1.00  1.00 -1.00
E      2.00 -1.00  0.00

     the symmetry operations in each class and the name of the first element:

     E        1
          identity                                               
     2C3      2    3
          120 deg rotation - cryst. axis [0,0,1]                 
     3s_v     4    5    6
          inv. 180 deg rotation - cart. axis [1,0,0]             

   Cartesian axes

     site n.     atom                  positions (alat units)
         1           B   tau(   1) = (   0.0000000   0.0000000   0.0000000  )
         2           N   tau(   2) = (  -0.0000003   0.5773502   0.0000000  )
         3           N   tau(   3) = (   0.0000000   0.0000000   1.3600000  )
         4           B   tau(   4) = (   0.5000005   0.2886748   1.3600000  )

   Crystallographic axes

     site n.     atom                  positions (cryst. coord.)
         1           B   tau(   1) = (  0.0000000  0.0000000  0.0000000  )
         2           N   tau(   2) = (  0.3333330  0.6666666  0.0000000  )
         3           N   tau(   3) = (  0.0000000  0.0000000  0.1700000  )
         4           B   tau(   4) = (  0.6666670  0.3333330  0.1700000  )

     number of k points=    19  Marzari-Vanderbilt smearing, width (Ry)=  0.0050
                       cart. coord. in units 2pi/alat
        k(    1) = (   0.0000000   0.0000000   0.0000000), wk =   0.0138889
        k(    2) = (   0.0000000   0.0962250   0.0000000), wk =   0.0833333
        k(    3) = (   0.0000000   0.1924501   0.0000000), wk =   0.0833333
        k(    4) = (   0.0000000   0.2886751   0.0000000), wk =   0.0833333
        k(    5) = (   0.0000000   0.3849002   0.0000000), wk =   0.0833333
        k(    6) = (   0.0000000   0.4811252   0.0000000), wk =   0.0833333
        k(    7) = (   0.0000000  -0.5773503   0.0000000), wk =   0.0416667
        k(    8) = (   0.0833333   0.1443376   0.0000000), wk =   0.0833333
        k(    9) = (   0.0833333   0.2405626   0.0000000), wk =   0.1666667
        k(   10) = (   0.0833333   0.3367877   0.0000000), wk =   0.1666667
        k(   11) = (   0.0833333   0.4330127   0.0000000), wk =   0.1666667
        k(   12) = (   0.0833333   0.5292377   0.0000000), wk =   0.1666667
        k(   13) = (   0.1666667   0.2886751   0.0000000), wk =   0.0833333
        k(   14) = (   0.1666667   0.3849002   0.0000000), wk =   0.1666667
        k(   15) = (   0.1666667   0.4811252   0.0000000), wk =   0.1666667
        k(   16) = (   0.1666667   0.5773503   0.0000000), wk =   0.0833333
        k(   17) = (   0.2500000   0.4330127   0.0000000), wk =   0.0833333
        k(   18) = (   0.2500000   0.5292377   0.0000000), wk =   0.1666667
        k(   19) = (   0.3333333   0.5773503   0.0000000), wk =   0.0277778

                       cryst. coord.
        k(    1) = (   0.0000000   0.0000000   0.0000000), wk =   0.0138889
        k(    2) = (   0.0000000   0.0833333   0.0000000), wk =   0.0833333
        k(    3) = (   0.0000000   0.1666667   0.0000000), wk =   0.0833333
        k(    4) = (   0.0000000   0.2500000   0.0000000), wk =   0.0833333
        k(    5) = (   0.0000000   0.3333333   0.0000000), wk =   0.0833333
        k(    6) = (   0.0000000   0.4166667   0.0000000), wk =   0.0833333
        k(    7) = (   0.0000000  -0.5000000   0.0000000), wk =   0.0416667
        k(    8) = (   0.0833333   0.0833333   0.0000000), wk =   0.0833333
        k(    9) = (   0.0833333   0.1666667   0.0000000), wk =   0.1666667
        k(   10) = (   0.0833333   0.2500000   0.0000000), wk =   0.1666667
        k(   11) = (   0.0833333   0.3333333   0.0000000), wk =   0.1666667
        k(   12) = (   0.0833333   0.4166667   0.0000000), wk =   0.1666667
        k(   13) = (   0.1666667   0.1666667   0.0000000), wk =   0.0833333
        k(   14) = (   0.1666667   0.2500000   0.0000000), wk =   0.1666667
        k(   15) = (   0.1666667   0.3333333   0.0000000), wk =   0.1666667
        k(   16) = (   0.1666667   0.4166667   0.0000000), wk =   0.0833333
        k(   17) = (   0.2500000   0.2500000   0.0000000), wk =   0.0833333
        k(   18) = (   0.2500000   0.3333333   0.0000000), wk =   0.1666667
        k(   19) = (   0.3333333   0.3333333   0.0000000), wk =   0.0277778

     Dense  grid:   131209 G-vectors     FFT dimensions: (  36,  36, 270)

     Dynamical RAM for                 wfc:       0.37 MB

     Dynamical RAM for     wfc (w. buffer):       7.50 MB

     Dynamical RAM for           str. fact:       0.50 MB

     Dynamical RAM for           local pot:       0.00 MB

     Dynamical RAM for          nlocal pot:       1.00 MB

     Dynamical RAM for                qrad:       2.01 MB

     Dynamical RAM for          rho,v,vnew:       1.76 MB

     Dynamical RAM for               rhoin:       0.59 MB

     Dynamical RAM for            rho*nmix:       4.00 MB

     Dynamical RAM for           G-vectors:       1.06 MB

     Dynamical RAM for          h,s,v(r/c):       0.03 MB

     Dynamical RAM for          <psi|beta>:       0.01 MB

     Dynamical RAM for                 psi:       0.75 MB

     Dynamical RAM for                hpsi:       0.75 MB

     Dynamical RAM for      wfcinit/wfcrot:       1.01 MB

     Estimated static dynamical RAM per process >      16.84 MB

     Estimated max dynamical RAM per process >      22.38 MB

     Estimated total dynamical RAM >     179.03 MB

     Initial potential from superposition of free atoms

     starting charge      15.9995, renormalised to      16.0000

     negative rho (up, down):  4.158E-06 0.000E+00


     %%%%%%%%%%%%%%%%%%%%%%%%%%%%%%%%%%%%%%%%%%%%%%%%%%%%%%%%%%%%%%%%%%%%%%%%
     %                                                                      %
     % You are using vdW-DF, which was implemented by the Thonhauser group. %
     % Please cite the following two papers that made this development      %
     % possible and the two reviews that describe the various versions:     %
     %                                                                      %
     %   T. Thonhauser et al., PRL 115, 136402 (2015).                      %
     %   T. Thonhauser et al., PRB 76, 125112 (2007).                       %
     %   K. Berland et al., Rep. Prog. Phys. 78, 066501 (2015).             %
     %   D.C. Langreth et al., J. Phys.: Condens. Matter 21, 084203 (2009). %
     %                                                                      %
     % If you are calculating stress with vdW-DF, please also cite:         %
     %                                                                      %
     %   R. Sabatini et al., J. Phys.: Condens. Matter 24, 424209 (2012).   %
     %                                                                      %
     %%%%%%%%%%%%%%%%%%%%%%%%%%%%%%%%%%%%%%%%%%%%%%%%%%%%%%%%%%%%%%%%%%%%%%%%

     %%%%%%%%%%%%%%%%%%%%%%%%%%%%%%%%%%%%%%%%%%%%%%%%%%%%%%%%%%%%%%%%%%%%%%%%
     %                                                                      %
     %  vdW-DF NEWS:                                                        %
     %                                                                      %
     %  * vdW-DF3 is now available. DOI: 10.1021/acs.jctc.0c00471           %
     %    use with input_dft = 'vdW-DF3-opt1' or 'vdW-DF3-opt2'             %
     %                                                                      %
     %  * Unscreened and range-separated hybrid vdW-DF-cx functionals       %
     %    DOI: 10.1063/1.4986522 and 10.1088/1361-648X/ac2ad2               %
     %    use with input_dft = 'vdW-DF-cx0'    and 'vdW-DF-ahcx'            %
     %  * Unscreened and range-separated hybrid vdW-DF2-b86r functionals    %
     %    DOI: 10.1063/1.4986522 and DOI: 10.1103/PhysRevX.12.041003        %
     %    use with input_dft = 'vdW-DF2-br0' and 'vdW-DF2-ahbr'             %
     %                                                                      %
     %%%%%%%%%%%%%%%%%%%%%%%%%%%%%%%%%%%%%%%%%%%%%%%%%%%%%%%%%%%%%%%%%%%%%%%%


     Carrying out vdW-DF run using the following parameters:
     Nqs    =  20  Npoints =  1024  r_max =  100.000
     q_mesh =  0.00001000  0.04494208  0.09755937  0.15916263
               0.23128650  0.31572767  0.41458969  0.53033537
               0.66584808  0.82450364  1.01025438  1.22772762
               1.48234092  1.78043706  2.12944203  2.53805004
               3.01644009  3.57652955  4.23227104  5.00000000


     -----------------------------------------------
     Non-local corr. energy    =       0.17615559 Ry
     -----------------------------------------------

     Starting wfcs are   16 randomized atomic wfcs

     total cpu time spent up to now is       10.5 secs

     Self-consistent Calculation

     iteration #  1     ecut=   120.00 Ry     beta= 0.70
     Davidson diagonalization with overlap

---- Real-time Memory Report at c_bands before calling an iterative solver
             0 MiB given to the printing process from OS
             0 MiB allocation reported by mallinfo(arena+hblkhd)
             0 MiB available memory on the node where the printing process lives
------------------
     ethr =  1.00E-02,  avg # of iterations =  4.2


     -----------------------------------------------
     Non-local corr. energy    =       0.20630747 Ry
     -----------------------------------------------


     total cpu time spent up to now is       11.9 secs

     total energy              =     -53.44435532 Ry
     estimated scf accuracy    <       0.76727741 Ry

     iteration #  2     ecut=   120.00 Ry     beta= 0.70
     Davidson diagonalization with overlap

---- Real-time Memory Report at c_bands before calling an iterative solver
             0 MiB given to the printing process from OS
             0 MiB allocation reported by mallinfo(arena+hblkhd)
             0 MiB available memory on the node where the printing process lives
------------------
     ethr =  4.80E-03,  avg # of iterations =  3.4


     -----------------------------------------------
     Non-local corr. energy    =       0.20013248 Ry
     -----------------------------------------------


     total cpu time spent up to now is       13.3 secs

     total energy              =     -53.64516092 Ry
     estimated scf accuracy    <       0.33235639 Ry

     iteration #  3     ecut=   120.00 Ry     beta= 0.70
     Davidson diagonalization with overlap

---- Real-time Memory Report at c_bands before calling an iterative solver
             0 MiB given to the printing process from OS
             0 MiB allocation reported by mallinfo(arena+hblkhd)
             0 MiB available memory on the node where the printing process lives
------------------
     ethr =  2.08E-03,  avg # of iterations =  2.0


     -----------------------------------------------
     Non-local corr. energy    =       0.20210331 Ry
     -----------------------------------------------


     total cpu time spent up to now is       14.4 secs

     total energy              =     -53.69862365 Ry
     estimated scf accuracy    <       0.00550530 Ry

     iteration #  4     ecut=   120.00 Ry     beta= 0.70
     Davidson diagonalization with overlap

---- Real-time Memory Report at c_bands before calling an iterative solver
             0 MiB given to the printing process from OS
             0 MiB allocation reported by mallinfo(arena+hblkhd)
             0 MiB available memory on the node where the printing process lives
------------------
     ethr =  3.44E-05,  avg # of iterations =  9.4


     -----------------------------------------------
     Non-local corr. energy    =       0.20223668 Ry
     -----------------------------------------------


     total cpu time spent up to now is       16.7 secs

     total energy              =     -53.70331963 Ry
     estimated scf accuracy    <       0.00540514 Ry

     iteration #  5     ecut=   120.00 Ry     beta= 0.70
     Davidson diagonalization with overlap

---- Real-time Memory Report at c_bands before calling an iterative solver
             0 MiB given to the printing process from OS
             0 MiB allocation reported by mallinfo(arena+hblkhd)
             0 MiB available memory on the node where the printing process lives
------------------
     ethr =  3.38E-05,  avg # of iterations =  2.9


     -----------------------------------------------
     Non-local corr. energy    =       0.20220415 Ry
     -----------------------------------------------


     total cpu time spent up to now is       17.8 secs

     total energy              =     -53.70345405 Ry
     estimated scf accuracy    <       0.00100804 Ry

     iteration #  6     ecut=   120.00 Ry     beta= 0.70
     Davidson diagonalization with overlap

---- Real-time Memory Report at c_bands before calling an iterative solver
             0 MiB given to the printing process from OS
             0 MiB allocation reported by mallinfo(arena+hblkhd)
             0 MiB available memory on the node where the printing process lives
------------------
     ethr =  6.30E-06,  avg # of iterations =  3.9

     negative rho (up, down):  2.142E-07 0.000E+00


     -----------------------------------------------
     Non-local corr. energy    =       0.20222741 Ry
     -----------------------------------------------


     total cpu time spent up to now is       19.2 secs

     total energy              =     -53.70375921 Ry
     estimated scf accuracy    <       0.00001887 Ry

     iteration #  7     ecut=   120.00 Ry     beta= 0.70
     Davidson diagonalization with overlap

---- Real-time Memory Report at c_bands before calling an iterative solver
             0 MiB given to the printing process from OS
             0 MiB allocation reported by mallinfo(arena+hblkhd)
             0 MiB available memory on the node where the printing process lives
------------------
     c_bands:  1 eigenvalues not converged
     ethr =  1.18E-07,  avg # of iterations =  6.9


     -----------------------------------------------
     Non-local corr. energy    =       0.20223857 Ry
     -----------------------------------------------


     total cpu time spent up to now is       20.9 secs

     total energy              =     -53.70376319 Ry
     estimated scf accuracy    <       0.00002351 Ry

     iteration #  8     ecut=   120.00 Ry     beta= 0.70
     Davidson diagonalization with overlap

---- Real-time Memory Report at c_bands before calling an iterative solver
             0 MiB given to the printing process from OS
             0 MiB allocation reported by mallinfo(arena+hblkhd)
             0 MiB available memory on the node where the printing process lives
------------------
     ethr =  1.18E-07,  avg # of iterations =  1.3


     -----------------------------------------------
     Non-local corr. energy    =       0.20224478 Ry
     -----------------------------------------------


     total cpu time spent up to now is       21.9 secs

     total energy              =     -53.70376193 Ry
     estimated scf accuracy    <       0.00000507 Ry

     iteration #  9     ecut=   120.00 Ry     beta= 0.70
     Davidson diagonalization with overlap

---- Real-time Memory Report at c_bands before calling an iterative solver
             0 MiB given to the printing process from OS
             0 MiB allocation reported by mallinfo(arena+hblkhd)
             0 MiB available memory on the node where the printing process lives
------------------
     ethr =  3.17E-08,  avg # of iterations =  2.0


     -----------------------------------------------
     Non-local corr. energy    =       0.20224607 Ry
     -----------------------------------------------


     total cpu time spent up to now is       23.1 secs

     End of self-consistent calculation

          k = 0.0000 0.0000 0.0000 ( 16399 PWs)   bands (ev):

   -20.1460 -19.9997  -8.1765  -7.2275  -3.8836  -3.8836  -3.8015  -3.8015
     2.0105   2.5620   3.6967   4.7560

     occupation numbers 
     1.0000   1.0000   1.0000   1.0000   1.0000   1.0000   1.0000   1.0000
     0.0000   0.0000   0.0000   0.0000

          k = 0.0000 0.0962 0.0000 ( 16391 PWs)   bands (ev):

   -20.0124 -19.8677  -7.9933  -7.0535  -4.4353  -4.3533  -4.1394  -4.0570
     2.2427   2.7758   3.9192   4.9907

     occupation numbers 
     1.0000   1.0000   1.0000   1.0000   1.0000   1.0000   1.0000   1.0000
     0.0000   0.0000   0.0000   0.0000

          k = 0.0000 0.1925 0.0000 ( 16390 PWs)   bands (ev):

   -19.6189 -19.4793  -7.4521  -6.5442  -5.8277  -5.7437  -4.7634  -4.6803
     2.9026   3.3978   4.5726   5.4446

     occupation numbers 
     1.0000   1.0000   1.0000   1.0000   1.0000   1.0000   1.0000   1.0000
     0.0000   0.0000   0.0000   0.0000

          k = 0.0000 0.2887 0.0000 ( 16370 PWs)   bands (ev):

   -18.9927 -18.8616  -7.6067  -7.5216  -6.5670  -5.7159  -5.4882  -5.4045
     3.9447   4.3461   5.4808   5.8659

     occupation numbers 
     1.0000   1.0000   1.0000   1.0000   1.0000   1.0000   1.0000   1.0000
     0.0000   0.0000   0.0000   0.0000

          k = 0.0000 0.3849 0.0000 ( 16376 PWs)   bands (ev):

   -18.2023 -18.0840  -9.3709  -9.2793  -6.1118  -6.0277  -5.4312  -4.6812
     4.3864   4.7022   5.3214   6.3481

     occupation numbers 
     1.0000   1.0000   1.0000   1.0000   1.0000   1.0000   1.0000   1.0000
     0.0000   0.0000   0.0000   0.0000

          k = 0.0000 0.4811 0.0000 ( 16402 PWs)   bands (ev):

   -17.4236 -17.3231 -10.7842 -10.6883  -6.5213  -6.4369  -4.2179  -3.6720
     2.8337   3.3245   6.7128   7.3554

     occupation numbers 
     1.0000   1.0000   1.0000   1.0000   1.0000   1.0000   1.0000   1.0000
     0.0000   0.0000   0.0000   0.0000

          k = 0.0000-0.5774 0.0000 ( 16394 PWs)   bands (ev):

   -17.0551 -16.9676 -11.3685 -11.2718  -6.6630  -6.5785  -3.5366  -3.2485
     2.0882   2.6119   7.2923   7.3827

     occupation numbers 
     1.0000   1.0000   1.0000   1.0000   1.0000   1.0000   1.0000   1.0000
     0.0000   0.0000   0.0000   0.0000

          k = 0.0833 0.1443 0.0000 ( 16405 PWs)   bands (ev):

   -19.7487 -19.6074  -7.6308  -6.7109  -5.3408  -5.2596  -4.6449  -4.5632
     2.6895   3.1945   4.3583   5.2964

     occupation numbers 
     1.0000   1.0000   1.0000   1.0000   1.0000   1.0000   1.0000   1.0000
     0.0000   0.0000   0.0000   0.0000

          k = 0.0833 0.2406 0.0000 ( 16381 PWs)   bands (ev):

   -19.2375 -19.1030  -6.9513  -6.8076  -6.7176  -6.0327  -5.4295  -5.3468
     3.5473   3.9939   5.2025   5.7780

     occupation numbers 
     1.0000   1.0000   1.0000   1.0000   1.0000   1.0000   1.0000   1.0000
     0.0000   0.0000   0.0000   0.0000

          k = 0.0833 0.3368 0.0000 ( 16367 PWs)   bands (ev):

   -18.5229 -18.3988  -8.5238  -8.4371  -6.1737  -6.0911  -5.8992  -5.1005
     4.7540   4.8406   5.1854   6.2806

     occupation numbers 
     1.0000   1.0000   1.0000   1.0000   1.0000   1.0000   1.0000   1.0000
     0.0000   0.0000   0.0000   0.0000

          k = 0.0833 0.4330 0.0000 ( 16378 PWs)   bands (ev):

   -17.7146 -17.6057 -10.1021 -10.0093  -6.7233  -6.6385  -4.6963  -4.0411
     3.5850   3.9741   6.3003   7.1352

     occupation numbers 
     1.0000   1.0000   1.0000   1.0000   1.0000   1.0000   1.0000   1.0000
     0.0000   0.0000   0.0000   0.0000

          k = 0.0833 0.5292 0.0000 ( 16379 PWs)   bands (ev):

   -17.0879 -16.9970 -11.1386 -11.0428  -7.0116  -6.9264  -3.6366  -3.2558
     2.3222   2.8072   7.5796   7.9430

     occupation numbers 
     1.0000   1.0000   1.0000   1.0000   1.0000   1.0000   1.0000   1.0000
     0.0000   0.0000   0.0000   0.0000

          k = 0.1667 0.2887 0.0000 ( 16366 PWs)   bands (ev):

   -18.6338 -18.5079  -8.0219  -7.9429  -6.4382  -6.3580  -6.0593  -5.2453
     4.6010   4.8126   5.4060   6.3841

     occupation numbers 
     1.0000   1.0000   1.0000   1.0000   1.0000   1.0000   1.0000   1.0000
     0.0000   0.0000   0.0000   0.0000

          k = 0.1667 0.3849 0.0000 ( 16360 PWs)   bands (ev):

   -17.8797 -17.7662  -9.3658  -9.2823  -7.2999  -7.2162  -4.9588  -4.2531
     4.2264   4.4065   6.0510   6.8539

     occupation numbers 
     1.0000   1.0000   1.0000   1.0000   1.0000   1.0000   1.0000   1.0000
     0.0000   0.0000   0.0000   0.0000

          k = 0.1667 0.4811 0.0000 ( 16379 PWs)   bands (ev):

   -17.1505 -17.0536 -10.5485 -10.4577  -7.8198  -7.7332  -3.7981  -3.2979
     2.8588   3.1895   7.7419   8.4226

     occupation numbers 
     1.0000   1.0000   1.0000   1.0000   1.0000   1.0000   1.0000   1.0000
     0.0000   0.0000   0.0000   0.0000

          k = 0.1667 0.5774 0.0000 ( 16386 PWs)   bands (ev):

   -16.8134 -16.7275 -11.0518 -10.9580  -7.9910  -7.9035  -3.1558  -2.9020
     2.2023   2.5894   8.9456   9.1423

     occupation numbers 
     1.0000   1.0000   1.0000   1.0000   1.0000   1.0000   1.0000   1.0000
     0.0000   0.0000   0.0000   0.0000

          k = 0.2500 0.4330 0.0000 ( 16348 PWs)   bands (ev):

   -17.1805 -17.0810 -10.0875 -10.0079  -8.3758  -8.2926  -3.8681  -3.3246
     3.2167   3.3319   7.6689   8.2754

     occupation numbers 
     1.0000   1.0000   1.0000   1.0000   1.0000   1.0000   1.0000   1.0000
     0.0000   0.0000   0.0000   0.0000

          k = 0.2500 0.5292 0.0000 ( 16377 PWs)   bands (ev):

   -16.6708 -16.5847 -10.6025 -10.5157  -8.9816  -8.8948  -2.9492  -2.6688
     2.3621   2.5594   9.3538   9.6242

     occupation numbers 
     1.0000   1.0000   1.0000   1.0000   1.0000   1.0000   1.0000   1.0000
     0.0000   0.0000   0.0000   0.0000

          k = 0.3333 0.5774 0.0000 ( 16404 PWs)   bands (ev):

   -16.4772 -16.3952 -10.3881 -10.3136  -9.6475  -9.5717  -2.5382  -2.4440
     2.1731   2.3049   9.5496   9.7258

     occupation numbers 
     1.0000   1.0000   1.0000   1.0000   1.0000   1.0000   1.0000   1.0000
     0.0000   0.0000   0.0000   0.0000

     the Fermi energy is    -1.3061 ev

!    total energy              =     -53.70376334 Ry
     estimated scf accuracy    <       0.00000002 Ry
     smearing contrib. (-TS)   =       0.00000000 Ry
     internal energy E=F+TS    =     -53.70376334 Ry

     The total energy is F=E-TS. E is the sum of the following terms:
     one-electron contribution =    -523.63854147 Ry
     hartree contribution      =     265.98982295 Ry
     xc contribution           =     -17.38659603 Ry
     ewald contribution        =     221.33155121 Ry

     convergence has been achieved in   9 iterations


     -----------------------------------------------
     Non-local corr. energy    =       0.20224607 Ry
     -----------------------------------------------


     Forces acting on atoms (cartesian axes, Ry/au):

     atom    1 type  1   force =     0.00000000    0.00000000    0.00138953
     atom    2 type  2   force =     0.00000000    0.00000000   -0.00010961
     atom    3 type  2   force =     0.00000000    0.00000000   -0.00037724
     atom    4 type  1   force =     0.00000000    0.00000000   -0.00090268
     The non-local contrib.  to forces
     atom    1 type  1   force =     0.00000000    0.00000000    0.00049171
     atom    2 type  2   force =     0.00000000    0.00000000   -0.00009362
     atom    3 type  2   force =    -0.00000000   -0.00000000    0.00055538
     atom    4 type  1   force =     0.00000000    0.00000000    0.00013166
     The ionic contribution  to forces
     atom    1 type  1   force =    -0.00000464   -0.00000089  -10.23216276
     atom    2 type  2   force =     0.00000464    0.00000089  -17.04606906
     atom    3 type  2   force =     0.00000773   -0.00000446   17.05059038
     atom    4 type  1   force =    -0.00000773    0.00000446   10.22764144
     The local contribution  to forces
     atom    1 type  1   force =     0.00000000   -0.00000000   10.23307600
     atom    2 type  2   force =     0.00002009    0.00000387   17.04602798
     atom    3 type  2   force =     0.00000000    0.00000000  -17.05181481
     atom    4 type  1   force =     0.00000419   -0.00000242  -10.22885177
     The core correction contribution to forces
     atom    1 type  1   force =    -0.00000000   -0.00000000   -0.00005183
     atom    2 type  2   force =    -0.00000083   -0.00000016   -0.00002597
     atom    3 type  2   force =     0.00000000   -0.00000000    0.00001834
     atom    4 type  1   force =     0.00000025   -0.00000015    0.00004089
     The Hubbard contrib.    to forces
     atom    1 type  1   force =     0.00000000    0.00000000    0.00000000
     atom    2 type  2   force =     0.00000000    0.00000000    0.00000000
     atom    3 type  2   force =     0.00000000    0.00000000    0.00000000
     atom    4 type  1   force =     0.00000000    0.00000000    0.00000000
     The SCF correction term to forces
     atom    1 type  1   force =     0.00000000    0.00000000    0.00000000
     atom    2 type  2   force =    -0.00000000   -0.00000000    0.00000000
     atom    3 type  2   force =    -0.00000000    0.00000000    0.00024863
     atom    4 type  1   force =    -0.00000000    0.00000000    0.00011027

     Total force =     0.000978     Total SCF correction =     0.000272
     SCF correction compared to forces is large: reduce conv_thr to get better values


     Computing stress (Cartesian axis) and pressure



     -----------------------------------------------
     Non-local corr. energy    =       0.20224607 Ry
     -----------------------------------------------

          total   stress  (Ry/bohr**3)                   (kbar)     P=        3.61
   0.00004247   0.00000000   0.00000000            6.25        0.00        0.00
   0.00000000   0.00004247   0.00000000            0.00        6.25        0.00
   0.00000000   0.00000000  -0.00001140            0.00        0.00       -1.68

     kinetic stress (kbar)   4829.42      0.00      0.00
                                0.00   4829.42      0.00
                                0.00      0.00   5250.57

     local   stress (kbar)-107304.12      0.00      0.00
                                0.00-107304.12     -0.00
                                0.00     -0.00 107992.57

     nonloc. stress (kbar)   -797.10      0.00      0.00
                                0.00   -797.10      0.00
                                0.00      0.00   -768.94

     hartree stress (kbar)  52199.25     -0.00      0.00
                               -0.00  52199.25      0.00
                                0.00      0.00 -51366.61

     exc-cor stress (kbar)   -485.05     -0.00     -0.00
                               -0.00   -485.05      0.00
                               -0.00      0.00   -532.83

     corecor stress (kbar)   -541.72      0.00     -0.00
                                0.00   -541.72      0.00
                               -0.00      0.00   -529.85

     ewald   stress (kbar)  52101.24     -0.01     -0.00
                               -0.01  52101.24      0.00
                               -0.00      0.00 -60074.37

     hubbard stress (kbar)      0.00      0.00      0.00
                                0.00      0.00      0.00
                                0.00      0.00      0.00

     DFT-D   stress (kbar)      0.00      0.00      0.00
                                0.00      0.00      0.00
                                0.00      0.00      0.00

     XDM     stress (kbar)      0.00      0.00      0.00
                                0.00      0.00      0.00
                                0.00      0.00      0.00

     dft-nl  stress (kbar)      4.34      0.00      0.00
                                0.00      4.34     -0.00
                                0.00     -0.00     27.79

     TS-vdW  stress (kbar)      0.00      0.00      0.00
                                0.00      0.00      0.00
                                0.00      0.00      0.00

     MDB     stress (kbar)      0.00      0.00      0.00
                                0.00      0.00      0.00
                                0.00      0.00      0.00

     3D-RISM stress (kbar)      0.00      0.00      0.00
                                0.00      0.00      0.00
                                0.00      0.00      0.00


     BFGS Geometry Optimization
     Energy error            =      0.0E+00 Ry
     Gradient error          =      9.0E-04 Ry/Bohr
     Cell gradient error     =      1.7E+00 kbar

     number of scf cycles    =   1
     number of bfgs steps    =   0

     enthalpy           new  =     -53.7037633376 Ry

     new trust radius        =       0.0015481773 bohr
     new conv_thr            =       0.0000010000 Ry

     new unit-cell volume =    737.61860 a.u.^3 (   109.30380 Ang^3 )
     density =      0.72955 g/cm^3

CELL_PARAMETERS (alat=  4.74000000)
   1.000000000   0.000000000   0.000000000
  -0.500000000   0.866025404   0.000000000
   0.000000000   0.000000000   7.997720168

ATOMIC_POSITIONS (crystal)
B             0.0000000000        0.0000000000        0.0000000000    0   0   0
N             0.3333330000        0.6666666000        0.0000000000    0   0   0
N             0.0000000000        0.0000000000        0.1699900516
B             0.6666670000        0.3333330000        0.1699761953



     Writing config-only to output data dir ./tmp/BN2L_AB1_PBE_vdW.save/
     NEW-OLD atomic charge density approx. for the potential

     negative rho (up, down):  2.607E-08 0.000E+00


     -----------------------------------------------
     Non-local corr. energy    =       0.20219126 Ry
     -----------------------------------------------

     extrapolated charge   15.99544, renormalised to   16.00000

     total cpu time spent up to now is       28.5 secs

     Self-consistent Calculation

     iteration #  1     ecut=   120.00 Ry     beta= 0.70
     Davidson diagonalization with overlap

---- Real-time Memory Report at c_bands before calling an iterative solver
             0 MiB given to the printing process from OS
             0 MiB allocation reported by mallinfo(arena+hblkhd)
             0 MiB available memory on the node where the printing process lives
------------------
     ethr =  1.00E-06,  avg # of iterations =  6.2


     -----------------------------------------------
     Non-local corr. energy    =       0.20229268 Ry
     -----------------------------------------------


     total cpu time spent up to now is       30.0 secs

     total energy              =     -53.70373906 Ry
     estimated scf accuracy    <       0.00002010 Ry

     iteration #  2     ecut=   120.00 Ry     beta= 0.70
     Davidson diagonalization with overlap

---- Real-time Memory Report at c_bands before calling an iterative solver
             0 MiB given to the printing process from OS
             0 MiB allocation reported by mallinfo(arena+hblkhd)
             0 MiB available memory on the node where the printing process lives
------------------
     ethr =  1.26E-07,  avg # of iterations =  5.9


     -----------------------------------------------
     Non-local corr. energy    =       0.20226619 Ry
     -----------------------------------------------


     total cpu time spent up to now is       31.6 secs

     total energy              =     -53.70376228 Ry
     estimated scf accuracy    <       0.00008298 Ry

     iteration #  3     ecut=   120.00 Ry     beta= 0.70
     Davidson diagonalization with overlap

---- Real-time Memory Report at c_bands before calling an iterative solver
             0 MiB given to the printing process from OS
             0 MiB allocation reported by mallinfo(arena+hblkhd)
             0 MiB available memory on the node where the printing process lives
------------------
     ethr =  1.26E-07,  avg # of iterations =  2.0


     -----------------------------------------------
     Non-local corr. energy    =       0.20225537 Ry
     -----------------------------------------------


     total cpu time spent up to now is       32.7 secs

     total energy              =     -53.70376808 Ry
     estimated scf accuracy    <       0.00001011 Ry

     iteration #  4     ecut=   120.00 Ry     beta= 0.70
     Davidson diagonalization with overlap

---- Real-time Memory Report at c_bands before calling an iterative solver
             0 MiB given to the printing process from OS
             0 MiB allocation reported by mallinfo(arena+hblkhd)
             0 MiB available memory on the node where the printing process lives
------------------
     ethr =  6.32E-08,  avg # of iterations =  1.0


     -----------------------------------------------
     Non-local corr. energy    =       0.20224423 Ry
     -----------------------------------------------


     total cpu time spent up to now is       33.6 secs

     total energy              =     -53.70376687 Ry
     estimated scf accuracy    <       0.00000555 Ry

     iteration #  5     ecut=   120.00 Ry     beta= 0.70
     Davidson diagonalization with overlap

---- Real-time Memory Report at c_bands before calling an iterative solver
             0 MiB given to the printing process from OS
             0 MiB allocation reported by mallinfo(arena+hblkhd)
             0 MiB available memory on the node where the printing process lives
------------------
     ethr =  3.47E-08,  avg # of iterations =  1.0


     -----------------------------------------------
     Non-local corr. energy    =       0.20223184 Ry
     -----------------------------------------------


     total cpu time spent up to now is       34.6 secs

     total energy              =     -53.70376645 Ry
     estimated scf accuracy    <       0.00000167 Ry

     iteration #  6     ecut=   120.00 Ry     beta= 0.70
     Davidson diagonalization with overlap

---- Real-time Memory Report at c_bands before calling an iterative solver
             0 MiB given to the printing process from OS
             0 MiB allocation reported by mallinfo(arena+hblkhd)
             0 MiB available memory on the node where the printing process lives
------------------
     ethr =  1.05E-08,  avg # of iterations =  2.0


     -----------------------------------------------
     Non-local corr. energy    =       0.20222691 Ry
     -----------------------------------------------


     total cpu time spent up to now is       35.6 secs

     End of self-consistent calculation

          k = 0.0000 0.0000 0.0000 ( 16399 PWs)   bands (ev):

   -20.1439 -19.9974  -8.1753  -7.2246  -3.8811  -3.8811  -3.7993  -3.7993
     2.0129   2.5646   3.7271   4.7546

     occupation numbers 
     1.0000   1.0000   1.0000   1.0000   1.0000   1.0000   1.0000   1.0000
     0.0000   0.0000   0.0000   0.0000

          k = 0.0000 0.0962 0.0000 ( 16391 PWs)   bands (ev):

   -20.0102 -19.8655  -7.9921  -7.0506  -4.4328  -4.3511  -4.1369  -4.0548
     2.2452   2.7783   3.9494   4.9527

     occupation numbers 
     1.0000   1.0000   1.0000   1.0000   1.0000   1.0000   1.0000   1.0000
     0.0000   0.0000   0.0000   0.0000

          k = 0.0000 0.1925 0.0000 ( 16390 PWs)   bands (ev):

   -19.6167 -19.4770  -7.4508  -6.5413  -5.8252  -5.7415  -4.7610  -4.6781
     2.9050   3.4003   4.6017   5.4596

     occupation numbers 
     1.0000   1.0000   1.0000   1.0000   1.0000   1.0000   1.0000   1.0000
     0.0000   0.0000   0.0000   0.0000

          k = 0.0000 0.2887 0.0000 ( 16370 PWs)   bands (ev):

   -18.9905 -18.8593  -7.6044  -7.5195  -6.5657  -5.7130  -5.4858  -5.4024
     3.9471   4.3484   5.4913   5.8931

     occupation numbers 
     1.0000   1.0000   1.0000   1.0000   1.0000   1.0000   1.0000   1.0000
     0.0000   0.0000   0.0000   0.0000

          k = 0.0000 0.3849 0.0000 ( 16376 PWs)   bands (ev):

   -18.2000 -18.0817  -9.3687  -9.2772  -6.1095  -6.0256  -5.4298  -4.6783
     4.3882   4.7047   5.3236   6.3506

     occupation numbers 
     1.0000   1.0000   1.0000   1.0000   1.0000   1.0000   1.0000   1.0000
     0.0000   0.0000   0.0000   0.0000

          k = 0.0000 0.4811 0.0000 ( 16402 PWs)   bands (ev):

   -17.4212 -17.3209 -10.7821 -10.6862  -6.5189  -6.4348  -4.2162  -3.6693
     2.8350   3.3269   6.7149   7.3575

     occupation numbers 
     1.0000   1.0000   1.0000   1.0000   1.0000   1.0000   1.0000   1.0000
     0.0000   0.0000   0.0000   0.0000

          k = 0.0000-0.5774 0.0000 ( 16394 PWs)   bands (ev):

   -17.0526 -16.9654 -11.3664 -11.2697  -6.6607  -6.5764  -3.5346  -3.2461
     2.0895   2.6143   7.2944   7.3846

     occupation numbers 
     1.0000   1.0000   1.0000   1.0000   1.0000   1.0000   1.0000   1.0000
     0.0000   0.0000   0.0000   0.0000

          k = 0.0833 0.1443 0.0000 ( 16405 PWs)   bands (ev):

   -19.7465 -19.6051  -7.6296  -6.7080  -5.3384  -5.2574  -4.6425  -4.5610
     2.6919   3.1970   4.3881   5.3117

     occupation numbers 
     1.0000   1.0000   1.0000   1.0000   1.0000   1.0000   1.0000   1.0000
     0.0000   0.0000   0.0000   0.0000

          k = 0.0833 0.2406 0.0000 ( 16381 PWs)   bands (ev):

   -19.2353 -19.1007  -6.9498  -6.8054  -6.7156  -6.0297  -5.4271  -5.3446
     3.5498   3.9963   5.2279   5.7936

     occupation numbers 
     1.0000   1.0000   1.0000   1.0000   1.0000   1.0000   1.0000   1.0000
     0.0000   0.0000   0.0000   0.0000

          k = 0.0833 0.3368 0.0000 ( 16367 PWs)   bands (ev):

   -18.5206 -18.3965  -8.5216  -8.4350  -6.1714  -6.0890  -5.8978  -5.0976
     4.7569   4.8422   5.1878   6.2838

     occupation numbers 
     1.0000   1.0000   1.0000   1.0000   1.0000   1.0000   1.0000   1.0000
     0.0000   0.0000   0.0000   0.0000

          k = 0.0833 0.4330 0.0000 ( 16378 PWs)   bands (ev):

   -17.7123 -17.6035 -10.0999 -10.0072  -6.7210  -6.6364  -4.6948  -4.0383
     3.5865   3.9765   6.3025   7.1374

     occupation numbers 
     1.0000   1.0000   1.0000   1.0000   1.0000   1.0000   1.0000   1.0000
     0.0000   0.0000   0.0000   0.0000

          k = 0.0833 0.5292 0.0000 ( 16379 PWs)   bands (ev):

   -17.0855 -16.9947 -11.1365 -11.0408  -7.0093  -6.9243  -3.6347  -3.2533
     2.3235   2.8095   7.5818   7.9449

     occupation numbers 
     1.0000   1.0000   1.0000   1.0000   1.0000   1.0000   1.0000   1.0000
     0.0000   0.0000   0.0000   0.0000

          k = 0.1667 0.2887 0.0000 ( 16366 PWs)   bands (ev):

   -18.6316 -18.5056  -8.0195  -7.9409  -6.4358  -6.3559  -6.0580  -5.2424
     4.6037   4.8148   5.4086   6.4101

     occupation numbers 
     1.0000   1.0000   1.0000   1.0000   1.0000   1.0000   1.0000   1.0000
     0.0000   0.0000   0.0000   0.0000

          k = 0.1667 0.3849 0.0000 ( 16360 PWs)   bands (ev):

   -17.8774 -17.7640  -9.3635  -9.2803  -7.2976  -7.2142  -4.9573  -4.2503
     4.2283   4.4086   6.0533   6.8563

     occupation numbers 
     1.0000   1.0000   1.0000   1.0000   1.0000   1.0000   1.0000   1.0000
     0.0000   0.0000   0.0000   0.0000

          k = 0.1667 0.4811 0.0000 ( 16379 PWs)   bands (ev):

   -17.1481 -17.0514 -10.5464 -10.4556  -7.8175  -7.7312  -3.7963  -3.2952
     2.8603   3.1916   7.7442   8.4246

     occupation numbers 
     1.0000   1.0000   1.0000   1.0000   1.0000   1.0000   1.0000   1.0000
     0.0000   0.0000   0.0000   0.0000

          k = 0.1667 0.5774 0.0000 ( 16386 PWs)   bands (ev):

   -16.8109 -16.7253 -11.0497 -10.9560  -7.9888  -7.9014  -3.1537  -2.8995
     2.2037   2.5916   8.9476   9.1443

     occupation numbers 
     1.0000   1.0000   1.0000   1.0000   1.0000   1.0000   1.0000   1.0000
     0.0000   0.0000   0.0000   0.0000

          k = 0.2500 0.4330 0.0000 ( 16348 PWs)   bands (ev):

   -17.1781 -17.0788 -10.0853 -10.0059  -8.3736  -8.2905  -3.8663  -3.3219
     3.2186   3.3337   7.6713   8.2773

     occupation numbers 
     1.0000   1.0000   1.0000   1.0000   1.0000   1.0000   1.0000   1.0000
     0.0000   0.0000   0.0000   0.0000

          k = 0.2500 0.5292 0.0000 ( 16377 PWs)   bands (ev):

   -16.6684 -16.5824 -10.6004 -10.5137  -8.9794  -8.8927  -2.9471  -2.6663
     2.3637   2.5612   9.3562   9.6256

     occupation numbers 
     1.0000   1.0000   1.0000   1.0000   1.0000   1.0000   1.0000   1.0000
     0.0000   0.0000   0.0000   0.0000

          k = 0.3333 0.5774 0.0000 ( 16404 PWs)   bands (ev):

   -16.4747 -16.3929 -10.3859 -10.3116  -9.6453  -9.5697  -2.5357  -2.4418
     2.1746   2.3065   9.5516   9.7279

     occupation numbers 
     1.0000   1.0000   1.0000   1.0000   1.0000   1.0000   1.0000   1.0000
     0.0000   0.0000   0.0000   0.0000

     the Fermi energy is    -1.3039 ev

!    total energy              =     -53.70376665 Ry
     estimated scf accuracy    <       0.00000007 Ry
     smearing contrib. (-TS)   =       0.00000000 Ry
     internal energy E=F+TS    =     -53.70376665 Ry

     The total energy is F=E-TS. E is the sum of the following terms:
     one-electron contribution =    -523.49549663 Ry
     hartree contribution      =     265.91684586 Ry
     xc contribution           =     -17.38645890 Ry
     ewald contribution        =     221.26134302 Ry

     convergence has been achieved in   6 iterations


     -----------------------------------------------
     Non-local corr. energy    =       0.20222691 Ry
     -----------------------------------------------


     Forces acting on atoms (cartesian axes, Ry/au):

     atom    1 type  1   force =     0.00000000    0.00000000    0.00135816
     atom    2 type  2   force =     0.00000000    0.00000000   -0.00021688
     atom    3 type  2   force =     0.00000000    0.00000000   -0.00039574
     atom    4 type  1   force =     0.00000000   -0.00000000   -0.00074554
     The non-local contrib.  to forces
     atom    1 type  1   force =     0.00000000   -0.00000000    0.00051595
     atom    2 type  2   force =    -0.00000000   -0.00000000   -0.00016964
     atom    3 type  2   force =    -0.00000000   -0.00000000   -0.00005514
     atom    4 type  1   force =     0.00000000   -0.00000000    0.00007484
     The ionic contribution  to forces
     atom    1 type  1   force =    -0.00000464   -0.00000089  -10.23263870
     atom    2 type  2   force =     0.00000464    0.00000089  -17.04683671
     atom    3 type  2   force =     0.00000773   -0.00000446   17.05426330
     atom    4 type  1   force =    -0.00000773    0.00000446   10.22521211
     The local contribution  to forces
     atom    1 type  1   force =    -0.00000000   -0.00000000   10.23323320
     atom    2 type  2   force =     0.00002008    0.00000387   17.04622711
     atom    3 type  2   force =    -0.00000000    0.00000000  -17.05394806
     atom    4 type  1   force =     0.00000419   -0.00000242  -10.22572838
     The core correction contribution to forces
     atom    1 type  1   force =    -0.00000000   -0.00000000   -0.00005411
     atom    2 type  2   force =    -0.00000083   -0.00000016   -0.00002605
     atom    3 type  2   force =     0.00000000   -0.00000000    0.00003818
     atom    4 type  1   force =     0.00000025   -0.00000015    0.00005174
     The Hubbard contrib.    to forces
     atom    1 type  1   force =     0.00000000    0.00000000    0.00000000
     atom    2 type  2   force =     0.00000000    0.00000000    0.00000000
     atom    3 type  2   force =     0.00000000    0.00000000    0.00000000
     atom    4 type  1   force =     0.00000000    0.00000000    0.00000000
     The SCF correction term to forces
     atom    1 type  1   force =    -0.00000000   -0.00000000    0.00000000
     atom    2 type  2   force =     0.00000000    0.00000000    0.00000000
     atom    3 type  2   force =     0.00000000    0.00000000   -0.00068906
     atom    4 type  1   force =     0.00000000   -0.00000000   -0.00035090

     Total force =     0.000844     Total SCF correction =     0.000773
     SCF correction compared to forces is large: reduce conv_thr to get better values


     Computing stress (Cartesian axis) and pressure



     -----------------------------------------------
     Non-local corr. energy    =       0.20222691 Ry
     -----------------------------------------------

          total   stress  (Ry/bohr**3)                   (kbar)     P=        3.55
   0.00004221   0.00000000   0.00000000            6.21        0.00        0.00
   0.00000000   0.00004221   0.00000000            0.00        6.21        0.00
   0.00000000   0.00000000  -0.00001211            0.00        0.00       -1.78

     kinetic stress (kbar)   4830.71      0.00      0.00
                                0.00   4830.71     -0.00
                                0.00      0.00   5251.90

     local   stress (kbar)-107306.23      0.00      0.00
                                0.00-107306.22     -0.00
                                0.00     -0.00 107994.91

     nonloc. stress (kbar)   -797.29      0.00      0.00
                                0.00   -797.29     -0.00
                                0.00     -0.00   -769.09

     hartree stress (kbar)  52199.63      0.00      0.00
                                0.00  52199.63      0.00
                                0.00      0.00 -51366.82

     exc-cor stress (kbar)   -485.18     -0.00      0.00
                               -0.00   -485.18     -0.00
                                0.00     -0.00   -532.97

     corecor stress (kbar)   -541.88      0.00     -0.00
                                0.00   -541.88      0.00
                               -0.00      0.00   -530.00

     ewald   stress (kbar)  52102.10     -0.01     -0.00
                               -0.01  52102.10      0.00
                               -0.00      0.00 -60077.50

     hubbard stress (kbar)      0.00      0.00      0.00
                                0.00      0.00      0.00
                                0.00      0.00      0.00

     DFT-D   stress (kbar)      0.00      0.00      0.00
                                0.00      0.00      0.00
                                0.00      0.00      0.00

     XDM     stress (kbar)      0.00      0.00      0.00
                                0.00      0.00      0.00
                                0.00      0.00      0.00

     dft-nl  stress (kbar)      4.34      0.00      0.00
                                0.00      4.34     -0.00
                                0.00     -0.00     27.79

     TS-vdW  stress (kbar)      0.00      0.00      0.00
                                0.00      0.00      0.00
                                0.00      0.00      0.00

     MDB     stress (kbar)      0.00      0.00      0.00
                                0.00      0.00      0.00
                                0.00      0.00      0.00

     3D-RISM stress (kbar)      0.00      0.00      0.00
                                0.00      0.00      0.00
                                0.00      0.00      0.00

     Energy error            =      3.3E-06 Ry
     Gradient error          =      7.5E-04 Ry/Bohr
     Cell gradient error     =      1.8E+00 kbar

     number of scf cycles    =   2
     number of bfgs steps    =   1

     enthalpy           old  =     -53.7037633376 Ry
     enthalpy           new  =     -53.7037666533 Ry

     CASE: enthalpy          _new < enthalpy          _old


     WARNING: bfgs curvature condition failed, Theta= 0.797
     new trust radius        =       0.0017032378 bohr
     new conv_thr            =       0.0000000100 Ry

     new unit-cell volume =    737.38731 a.u.^3 (   109.26953 Ang^3 )
     density =      0.72978 g/cm^3

CELL_PARAMETERS (alat=  4.74000000)
   1.000000000   0.000000000   0.000000000
  -0.500000000   0.866025404   0.000000000
   0.000000000   0.000000000   7.995212353

ATOMIC_POSITIONS (crystal)
B             0.0000000000        0.0000000000        0.0000000000    0   0   0
N             0.3333330000        0.6666666000        0.0000000000    0   0   0
N             0.0000000000        0.0000000000        0.1699790973
B             0.6666670000        0.3333330000        0.1699495411



     Writing config-only to output data dir ./tmp/BN2L_AB1_PBE_vdW.save/
     NEW-OLD atomic charge density approx. for the potential

     negative rho (up, down):  2.921E-08 0.000E+00


     -----------------------------------------------
     Non-local corr. energy    =       0.20216652 Ry
     -----------------------------------------------

     extrapolated charge   15.99498, renormalised to   16.00000

     total cpu time spent up to now is       41.1 secs

     Self-consistent Calculation

     iteration #  1     ecut=   120.00 Ry     beta= 0.70
     Davidson diagonalization with overlap

---- Real-time Memory Report at c_bands before calling an iterative solver
             0 MiB given to the printing process from OS
             0 MiB allocation reported by mallinfo(arena+hblkhd)
             0 MiB available memory on the node where the printing process lives
------------------
     ethr =  1.00E-06,  avg # of iterations =  4.4


     -----------------------------------------------
     Non-local corr. energy    =       0.20228349 Ry
     -----------------------------------------------


     total cpu time spent up to now is       42.5 secs

     total energy              =     -53.70373194 Ry
     estimated scf accuracy    <       0.00003056 Ry

     iteration #  2     ecut=   120.00 Ry     beta= 0.70
     Davidson diagonalization with overlap

---- Real-time Memory Report at c_bands before calling an iterative solver
             0 MiB given to the printing process from OS
             0 MiB allocation reported by mallinfo(arena+hblkhd)
             0 MiB available memory on the node where the printing process lives
------------------
     ethr =  1.91E-07,  avg # of iterations =  5.9


     -----------------------------------------------
     Non-local corr. energy    =       0.20225240 Ry
     -----------------------------------------------


     total cpu time spent up to now is       44.0 secs

     total energy              =     -53.70376295 Ry
     estimated scf accuracy    <       0.00011297 Ry

     iteration #  3     ecut=   120.00 Ry     beta= 0.70
     Davidson diagonalization with overlap

---- Real-time Memory Report at c_bands before calling an iterative solver
             0 MiB given to the printing process from OS
             0 MiB allocation reported by mallinfo(arena+hblkhd)
             0 MiB available memory on the node where the printing process lives
------------------
     ethr =  1.91E-07,  avg # of iterations =  2.0


     -----------------------------------------------
     Non-local corr. energy    =       0.20224038 Ry
     -----------------------------------------------


     total cpu time spent up to now is       45.1 secs

     total energy              =     -53.70377186 Ry
     estimated scf accuracy    <       0.00001192 Ry

     iteration #  4     ecut=   120.00 Ry     beta= 0.70
     Davidson diagonalization with overlap

---- Real-time Memory Report at c_bands before calling an iterative solver
             0 MiB given to the printing process from OS
             0 MiB allocation reported by mallinfo(arena+hblkhd)
             0 MiB available memory on the node where the printing process lives
------------------
     ethr =  7.45E-08,  avg # of iterations =  1.0


     -----------------------------------------------
     Non-local corr. energy    =       0.20222819 Ry
     -----------------------------------------------


     total cpu time spent up to now is       46.1 secs

     total energy              =     -53.70377044 Ry
     estimated scf accuracy    <       0.00000649 Ry

     iteration #  5     ecut=   120.00 Ry     beta= 0.70
     Davidson diagonalization with overlap

---- Real-time Memory Report at c_bands before calling an iterative solver
             0 MiB given to the printing process from OS
             0 MiB allocation reported by mallinfo(arena+hblkhd)
             0 MiB available memory on the node where the printing process lives
------------------
     ethr =  4.06E-08,  avg # of iterations =  1.1


     -----------------------------------------------
     Non-local corr. energy    =       0.20221419 Ry
     -----------------------------------------------


     total cpu time spent up to now is       47.1 secs

     total energy              =     -53.70376993 Ry
     estimated scf accuracy    <       0.00000192 Ry

     iteration #  6     ecut=   120.00 Ry     beta= 0.70
     Davidson diagonalization with overlap

---- Real-time Memory Report at c_bands before calling an iterative solver
             0 MiB given to the printing process from OS
             0 MiB allocation reported by mallinfo(arena+hblkhd)
             0 MiB available memory on the node where the printing process lives
------------------
     ethr =  1.20E-08,  avg # of iterations =  2.0


     -----------------------------------------------
     Non-local corr. energy    =       0.20221258 Ry
     -----------------------------------------------


     total cpu time spent up to now is       48.2 secs

     total energy              =     -53.70377025 Ry
     estimated scf accuracy    <       0.00000004 Ry

     iteration #  7     ecut=   120.00 Ry     beta= 0.70
     Davidson diagonalization with overlap

---- Real-time Memory Report at c_bands before calling an iterative solver
             0 MiB given to the printing process from OS
             0 MiB allocation reported by mallinfo(arena+hblkhd)
             0 MiB available memory on the node where the printing process lives
------------------
     ethr =  2.69E-10,  avg # of iterations =  4.0


     -----------------------------------------------
     Non-local corr. energy    =       0.20221257 Ry
     -----------------------------------------------


     total cpu time spent up to now is       49.7 secs

     End of self-consistent calculation

          k = 0.0000 0.0000 0.0000 ( 16399 PWs)   bands (ev):

   -20.1444 -19.9981  -8.1767  -7.2240  -3.8812  -3.8812  -3.8005  -3.8005
     2.0144   2.5662   3.7286   4.7568

     occupation numbers 
     1.0000   1.0000   1.0000   1.0000   1.0000   1.0000   1.0000   1.0000
     0.0000   0.0000   0.0000   0.0000

          k = 0.0000 0.0962 0.0000 ( 16391 PWs)   bands (ev):

   -20.0107 -19.8662  -7.9935  -7.0500  -4.4329  -4.3523  -4.1370  -4.0560
     2.2466   2.7799   3.9509   4.9547

     occupation numbers 
     1.0000   1.0000   1.0000   1.0000   1.0000   1.0000   1.0000   1.0000
     0.0000   0.0000   0.0000   0.0000

          k = 0.0000 0.1925 0.0000 ( 16390 PWs)   bands (ev):

   -19.6172 -19.4777  -7.4522  -6.5409  -5.8253  -5.7426  -4.7611  -4.6793
     2.9065   3.4019   4.6032   5.4612

     occupation numbers 
     1.0000   1.0000   1.0000   1.0000   1.0000   1.0000   1.0000   1.0000
     0.0000   0.0000   0.0000   0.0000

          k = 0.0000 0.2887 0.0000 ( 16370 PWs)   bands (ev):

   -18.9909 -18.8601  -7.6045  -7.5206  -6.5670  -5.7126  -5.4859  -5.4035
     3.9486   4.3499   5.4917   5.8942

     occupation numbers 
     1.0000   1.0000   1.0000   1.0000   1.0000   1.0000   1.0000   1.0000
     0.0000   0.0000   0.0000   0.0000

          k = 0.0000 0.3849 0.0000 ( 16376 PWs)   bands (ev):

   -18.2004 -18.0826  -9.3689  -9.2782  -6.1096  -6.0267  -5.4311  -4.6780
     4.3877   4.7052   5.3244   6.3515

     occupation numbers 
     1.0000   1.0000   1.0000   1.0000   1.0000   1.0000   1.0000   1.0000
     0.0000   0.0000   0.0000   0.0000

          k = 0.0000 0.4811 0.0000 ( 16402 PWs)   bands (ev):

   -17.4214 -17.3219 -10.7823 -10.6872  -6.5190  -6.4359  -4.2173  -3.6694
     2.8341   3.3271   6.7154   7.3576

     occupation numbers 
     1.0000   1.0000   1.0000   1.0000   1.0000   1.0000   1.0000   1.0000
     0.0000   0.0000   0.0000   0.0000

          k = 0.0000-0.5774 0.0000 ( 16394 PWs)   bands (ev):

   -17.0528 -16.9665 -11.3666 -11.2707  -6.6608  -6.5775  -3.5353  -3.2466
     2.0886   2.6146   7.2946   7.3838

     occupation numbers 
     1.0000   1.0000   1.0000   1.0000   1.0000   1.0000   1.0000   1.0000
     0.0000   0.0000   0.0000   0.0000

          k = 0.0833 0.1443 0.0000 ( 16405 PWs)   bands (ev):

   -19.7470 -19.6058  -7.6309  -6.7075  -5.3385  -5.2586  -4.6426  -4.5621
     2.6934   3.1986   4.3896   5.3135

     occupation numbers 
     1.0000   1.0000   1.0000   1.0000   1.0000   1.0000   1.0000   1.0000
     0.0000   0.0000   0.0000   0.0000

          k = 0.0833 0.2406 0.0000 ( 16381 PWs)   bands (ev):

   -19.2358 -19.1015  -6.9511  -6.8057  -6.7166  -6.0292  -5.4272  -5.3458
     3.5512   3.9978   5.2291   5.7946

     occupation numbers 
     1.0000   1.0000   1.0000   1.0000   1.0000   1.0000   1.0000   1.0000
     0.0000   0.0000   0.0000   0.0000

          k = 0.0833 0.3368 0.0000 ( 16367 PWs)   bands (ev):

   -18.5210 -18.3974  -8.5217  -8.4361  -6.1714  -6.0901  -5.8991  -5.0973
     4.7594   4.8422   5.1871   6.2841

     occupation numbers 
     1.0000   1.0000   1.0000   1.0000   1.0000   1.0000   1.0000   1.0000
     0.0000   0.0000   0.0000   0.0000

          k = 0.0833 0.4330 0.0000 ( 16378 PWs)   bands (ev):

   -17.7126 -17.6044 -10.1001 -10.0083  -6.7211  -6.6375  -4.6959  -4.0382
     3.5858   3.9766   6.3035   7.1385

     occupation numbers 
     1.0000   1.0000   1.0000   1.0000   1.0000   1.0000   1.0000   1.0000
     0.0000   0.0000   0.0000   0.0000

          k = 0.0833 0.5292 0.0000 ( 16379 PWs)   bands (ev):

   -17.0856 -16.9958 -11.1367 -11.0417  -7.0094  -6.9254  -3.6356  -3.2536
     2.3227   2.8097   7.5819   7.9446

     occupation numbers 
     1.0000   1.0000   1.0000   1.0000   1.0000   1.0000   1.0000   1.0000
     0.0000   0.0000   0.0000   0.0000

          k = 0.1667 0.2887 0.0000 ( 16366 PWs)   bands (ev):

   -18.6320 -18.5064  -8.0196  -7.9420  -6.4359  -6.3571  -6.0593  -5.2420
     4.6055   4.8158   5.4079   6.4128

     occupation numbers 
     1.0000   1.0000   1.0000   1.0000   1.0000   1.0000   1.0000   1.0000
     0.0000   0.0000   0.0000   0.0000

          k = 0.1667 0.3849 0.0000 ( 16360 PWs)   bands (ev):

   -17.8777 -17.7649  -9.3636  -9.2814  -7.2977  -7.2153  -4.9586  -4.2501
     4.2280   4.4084   6.0544   6.8574

     occupation numbers 
     1.0000   1.0000   1.0000   1.0000   1.0000   1.0000   1.0000   1.0000
     0.0000   0.0000   0.0000   0.0000

          k = 0.1667 0.4811 0.0000 ( 16379 PWs)   bands (ev):

   -17.1483 -17.0524 -10.5465 -10.4567  -7.8176  -7.7322  -3.7973  -3.2953
     2.8596   3.1915   7.7451   8.4256

     occupation numbers 
     1.0000   1.0000   1.0000   1.0000   1.0000   1.0000   1.0000   1.0000
     0.0000   0.0000   0.0000   0.0000

          k = 0.1667 0.5774 0.0000 ( 16386 PWs)   bands (ev):

   -16.8110 -16.7264 -11.0499 -10.9569  -7.9889  -7.9025  -3.1544  -2.9001
     2.2030   2.5916   8.9478   9.1439

     occupation numbers 
     1.0000   1.0000   1.0000   1.0000   1.0000   1.0000   1.0000   1.0000
     0.0000   0.0000   0.0000   0.0000

          k = 0.2500 0.4330 0.0000 ( 16348 PWs)   bands (ev):

   -17.1783 -17.0798 -10.0853 -10.0071  -8.3737  -8.2916  -3.8674  -3.3220
     3.2185   3.3329   7.6724   8.2784

     occupation numbers 
     1.0000   1.0000   1.0000   1.0000   1.0000   1.0000   1.0000   1.0000
     0.0000   0.0000   0.0000   0.0000

          k = 0.2500 0.5292 0.0000 ( 16377 PWs)   bands (ev):

   -16.6685 -16.5836 -10.6005 -10.5148  -8.9795  -8.8938  -2.9479  -2.6668
     2.3633   2.5607   9.3567   9.6254

     occupation numbers 
     1.0000   1.0000   1.0000   1.0000   1.0000   1.0000   1.0000   1.0000
     0.0000   0.0000   0.0000   0.0000

          k = 0.3333 0.5774 0.0000 ( 16404 PWs)   bands (ev):

   -16.4747 -16.3941 -10.3859 -10.3127  -9.6453  -9.5708  -2.5359  -2.4430
     2.1746   2.3057   9.5514   9.7287

     occupation numbers 
     1.0000   1.0000   1.0000   1.0000   1.0000   1.0000   1.0000   1.0000
     0.0000   0.0000   0.0000   0.0000

     the Fermi energy is    -1.3036 ev

!    total energy              =     -53.70377029 Ry
     estimated scf accuracy    <          7.5E-09 Ry
     smearing contrib. (-TS)   =       0.00000000 Ry
     internal energy E=F+TS    =     -53.70377029 Ry

     The total energy is F=E-TS. E is the sum of the following terms:
     one-electron contribution =    -523.34476342 Ry
     hartree contribution      =     265.84339405 Ry
     xc contribution           =     -17.38669255 Ry
     ewald contribution        =     221.18429164 Ry

     convergence has been achieved in   7 iterations


     -----------------------------------------------
     Non-local corr. energy    =       0.20221257 Ry
     -----------------------------------------------


     Forces acting on atoms (cartesian axes, Ry/au):

     atom    1 type  1   force =     0.00000000    0.00000000    0.00136988
     atom    2 type  2   force =     0.00000000    0.00000000   -0.00011423
     atom    3 type  2   force =     0.00000000    0.00000000   -0.00067448
     atom    4 type  1   force =     0.00000000    0.00000000   -0.00058116
     The non-local contrib.  to forces
     atom    1 type  1   force =     0.00000000   -0.00000000    0.00048606
     atom    2 type  2   force =    -0.00000000   -0.00000000   -0.00010337
     atom    3 type  2   force =     0.00000000    0.00000000   -0.00106151
     atom    4 type  1   force =     0.00000000    0.00000000    0.00007324
     The ionic contribution  to forces
     atom    1 type  1   force =    -0.00000464   -0.00000089  -10.23316789
     atom    2 type  2   force =     0.00000464    0.00000089  -17.04769046
     atom    3 type  2   force =     0.00000773   -0.00000446   17.05840609
     atom    4 type  1   force =    -0.00000773    0.00000446   10.22245226
     The local contribution  to forces
     atom    1 type  1   force =     0.00000000   -0.00000000   10.23406216
     atom    2 type  2   force =     0.00002009    0.00000387   17.04764206
     atom    3 type  2   force =    -0.00000000    0.00000000  -17.05802748
     atom    4 type  1   force =     0.00000420   -0.00000242  -10.22312779
     The core correction contribution to forces
     atom    1 type  1   force =    -0.00000000   -0.00000000   -0.00005120
     atom    2 type  2   force =    -0.00000083   -0.00000016   -0.00002392
     atom    3 type  2   force =     0.00000000   -0.00000000    0.00006018
     atom    4 type  1   force =     0.00000025   -0.00000015    0.00005621
     The Hubbard contrib.    to forces
     atom    1 type  1   force =     0.00000000    0.00000000    0.00000000
     atom    2 type  2   force =     0.00000000    0.00000000    0.00000000
     atom    3 type  2   force =     0.00000000    0.00000000    0.00000000
     atom    4 type  1   force =     0.00000000    0.00000000    0.00000000
     The SCF correction term to forces
     atom    1 type  1   force =     0.00000000    0.00000000    0.00000000
     atom    2 type  2   force =     0.00000000    0.00000000    0.00000000
     atom    3 type  2   force =     0.00000000    0.00000000   -0.00005078
     atom    4 type  1   force =    -0.00000000    0.00000000   -0.00003410

     Total force =     0.000890     Total SCF correction =     0.000061


     Computing stress (Cartesian axis) and pressure



     -----------------------------------------------
     Non-local corr. energy    =       0.20221257 Ry
     -----------------------------------------------

          total   stress  (Ry/bohr**3)                   (kbar)     P=        3.63
   0.00004265   0.00000000   0.00000000            6.27        0.00        0.00
   0.00000000   0.00004265   0.00000000            0.00        6.27        0.00
   0.00000000   0.00000000  -0.00001119            0.00        0.00       -1.65

     kinetic stress (kbar)   4832.37      0.00      0.00
                                0.00   4832.37      0.00
                                0.00      0.00   5253.72

     local   stress (kbar)-107309.77      0.00      0.00
                                0.00-107309.77     -0.00
                                0.00     -0.00 107998.66

     nonloc. stress (kbar)   -797.61     -0.00      0.00
                               -0.00   -797.61      0.00
                                0.00      0.00   -769.41

     hartree stress (kbar)  52201.27      0.00     -0.00
                                0.00  52201.27      0.00
                               -0.00      0.00 -51368.11

     exc-cor stress (kbar)   -485.35     -0.00      0.00
                               -0.00   -485.35     -0.00
                                0.00     -0.00   -533.15

     corecor stress (kbar)   -542.05      0.00     -0.00
                                0.00   -542.05      0.00
                               -0.00      0.00   -530.17

     ewald   stress (kbar)  52103.07     -0.01     -0.00
                               -0.01  52103.07      0.00
                               -0.00      0.00 -60080.98

     hubbard stress (kbar)      0.00      0.00      0.00
                                0.00      0.00      0.00
                                0.00      0.00      0.00

     DFT-D   stress (kbar)      0.00      0.00      0.00
                                0.00      0.00      0.00
                                0.00      0.00      0.00

     XDM     stress (kbar)      0.00      0.00      0.00
                                0.00      0.00      0.00
                                0.00      0.00      0.00

     dft-nl  stress (kbar)      4.35      0.00      0.00
                                0.00      4.35     -0.00
                                0.00     -0.00     27.80

     TS-vdW  stress (kbar)      0.00      0.00      0.00
                                0.00      0.00      0.00
                                0.00      0.00      0.00

     MDB     stress (kbar)      0.00      0.00      0.00
                                0.00      0.00      0.00
                                0.00      0.00      0.00

     3D-RISM stress (kbar)      0.00      0.00      0.00
                                0.00      0.00      0.00
                                0.00      0.00      0.00

     Energy error            =      3.6E-06 Ry
     Gradient error          =      6.7E-04 Ry/Bohr
     Cell gradient error     =      1.6E+00 kbar

     number of scf cycles    =   3
     number of bfgs steps    =   2

     enthalpy           old  =     -53.7037666533 Ry
     enthalpy           new  =     -53.7037702892 Ry

     CASE: enthalpy          _new < enthalpy          _old

     new trust radius        =       0.0025552573 bohr
     new conv_thr            =       0.0000000100 Ry

     new unit-cell volume =    737.04037 a.u.^3 (   109.21811 Ang^3 )
     density =      0.73012 g/cm^3

CELL_PARAMETERS (alat=  4.74000000)
   1.000000000   0.000000000   0.000000000
  -0.500000000   0.866025404   0.000000000
   0.000000000   0.000000000   7.991450630

ATOMIC_POSITIONS (crystal)
B             0.0000000000        0.0000000000        0.0000000000    0   0   0
N             0.3333330000        0.6666666000        0.0000000000    0   0   0
N             0.0000000000        0.0000000000        0.1699533310
B             0.6666670000        0.3333330000        0.1699121588



     Writing config-only to output data dir ./tmp/BN2L_AB1_PBE_vdW.save/
     NEW-OLD atomic charge density approx. for the potential

     negative rho (up, down):  4.982E-08 0.000E+00


     -----------------------------------------------
     Non-local corr. energy    =       0.20212135 Ry
     -----------------------------------------------

     extrapolated charge   15.99247, renormalised to   16.00000

     total cpu time spent up to now is       55.3 secs

     Self-consistent Calculation

     iteration #  1     ecut=   120.00 Ry     beta= 0.70
     Davidson diagonalization with overlap

---- Real-time Memory Report at c_bands before calling an iterative solver
             0 MiB given to the printing process from OS
             0 MiB allocation reported by mallinfo(arena+hblkhd)
             0 MiB available memory on the node where the printing process lives
------------------
     ethr =  1.00E-06,  avg # of iterations =  6.1

     negative rho (up, down):  1.173E-08 0.000E+00


     -----------------------------------------------
     Non-local corr. energy    =       0.20229029 Ry
     -----------------------------------------------


     total cpu time spent up to now is       56.9 secs

     total energy              =     -53.70369688 Ry
     estimated scf accuracy    <       0.00005914 Ry

     iteration #  2     ecut=   120.00 Ry     beta= 0.70
     Davidson diagonalization with overlap

---- Real-time Memory Report at c_bands before calling an iterative solver
             0 MiB given to the printing process from OS
             0 MiB allocation reported by mallinfo(arena+hblkhd)
             0 MiB available memory on the node where the printing process lives
------------------
     c_bands:  1 eigenvalues not converged
     ethr =  3.70E-07,  avg # of iterations =  7.4


     -----------------------------------------------
     Non-local corr. energy    =       0.20224565 Ry
     -----------------------------------------------


     total cpu time spent up to now is       58.7 secs

     total energy              =     -53.70376216 Ry
     estimated scf accuracy    <       0.00023871 Ry

     iteration #  3     ecut=   120.00 Ry     beta= 0.70
     Davidson diagonalization with overlap

---- Real-time Memory Report at c_bands before calling an iterative solver
             0 MiB given to the printing process from OS
             0 MiB allocation reported by mallinfo(arena+hblkhd)
             0 MiB available memory on the node where the printing process lives
------------------
     ethr =  3.70E-07,  avg # of iterations =  2.0


     -----------------------------------------------
     Non-local corr. energy    =       0.20222954 Ry
     -----------------------------------------------


     total cpu time spent up to now is       59.9 secs

     total energy              =     -53.70377978 Ry
     estimated scf accuracy    <       0.00002799 Ry

     iteration #  4     ecut=   120.00 Ry     beta= 0.70
     Davidson diagonalization with overlap

---- Real-time Memory Report at c_bands before calling an iterative solver
             0 MiB given to the printing process from OS
             0 MiB allocation reported by mallinfo(arena+hblkhd)
             0 MiB available memory on the node where the printing process lives
------------------
     ethr =  1.75E-07,  avg # of iterations =  1.0


     -----------------------------------------------
     Non-local corr. energy    =       0.20220849 Ry
     -----------------------------------------------


     total cpu time spent up to now is       60.9 secs

     total energy              =     -53.70377567 Ry
     estimated scf accuracy    <       0.00001635 Ry

     iteration #  5     ecut=   120.00 Ry     beta= 0.70
     Davidson diagonalization with overlap

---- Real-time Memory Report at c_bands before calling an iterative solver
             0 MiB given to the printing process from OS
             0 MiB allocation reported by mallinfo(arena+hblkhd)
             0 MiB available memory on the node where the printing process lives
------------------
     ethr =  1.02E-07,  avg # of iterations =  1.1


     -----------------------------------------------
     Non-local corr. energy    =       0.20218908 Ry
     -----------------------------------------------


     total cpu time spent up to now is       61.9 secs

     total energy              =     -53.70377492 Ry
     estimated scf accuracy    <       0.00000398 Ry

     iteration #  6     ecut=   120.00 Ry     beta= 0.70
     Davidson diagonalization with overlap

---- Real-time Memory Report at c_bands before calling an iterative solver
             0 MiB given to the printing process from OS
             0 MiB allocation reported by mallinfo(arena+hblkhd)
             0 MiB available memory on the node where the printing process lives
------------------
     ethr =  2.49E-08,  avg # of iterations =  2.0


     -----------------------------------------------
     Non-local corr. energy    =       0.20218576 Ry
     -----------------------------------------------


     total cpu time spent up to now is       63.0 secs

     total energy              =     -53.70377558 Ry
     estimated scf accuracy    <       0.00000010 Ry

     iteration #  7     ecut=   120.00 Ry     beta= 0.70
     Davidson diagonalization with overlap

---- Real-time Memory Report at c_bands before calling an iterative solver
             0 MiB given to the printing process from OS
             0 MiB allocation reported by mallinfo(arena+hblkhd)
             0 MiB available memory on the node where the printing process lives
------------------
     ethr =  6.32E-10,  avg # of iterations =  4.1


     -----------------------------------------------
     Non-local corr. energy    =       0.20218552 Ry
     -----------------------------------------------


     total cpu time spent up to now is       64.4 secs

     total energy              =     -53.70377567 Ry
     estimated scf accuracy    <       0.00000002 Ry

     iteration #  8     ecut=   120.00 Ry     beta= 0.70
[...]

     total energy              =     -53.70381280 Ry
     estimated scf accuracy    <       0.00009979 Ry

     iteration #  6     ecut=   120.00 Ry     beta= 0.70
     Davidson diagonalization with overlap

---- Real-time Memory Report at c_bands before calling an iterative solver
             0 MiB given to the printing process from OS
             0 MiB allocation reported by mallinfo(arena+hblkhd)
             0 MiB available memory on the node where the printing process lives
------------------
     ethr =  6.24E-07,  avg # of iterations =  3.2


     -----------------------------------------------
     Non-local corr. energy    =       0.20187673 Ry
     -----------------------------------------------


     total cpu time spent up to now is      182.9 secs

     total energy              =     -53.70383402 Ry
     estimated scf accuracy    <       0.00000026 Ry

     iteration #  7     ecut=   120.00 Ry     beta= 0.70
     Davidson diagonalization with overlap

---- Real-time Memory Report at c_bands before calling an iterative solver
             0 MiB given to the printing process from OS
             0 MiB allocation reported by mallinfo(arena+hblkhd)
             0 MiB available memory on the node where the printing process lives
------------------
     ethr =  1.65E-09,  avg # of iterations =  4.9


     -----------------------------------------------
     Non-local corr. energy    =       0.20187699 Ry
     -----------------------------------------------


     total cpu time spent up to now is      185.8 secs

     total energy              =     -53.70383468 Ry
     estimated scf accuracy    <       0.00000039 Ry

     iteration #  8     ecut=   120.00 Ry     beta= 0.70
     Davidson diagonalization with overlap

---- Real-time Memory Report at c_bands before calling an iterative solver
             0 MiB given to the printing process from OS
             0 MiB allocation reported by mallinfo(arena+hblkhd)
             0 MiB available memory on the node where the printing process lives
------------------
     ethr =  1.65E-09,  avg # of iterations =  1.0


     -----------------------------------------------
     Non-local corr. energy    =       0.20186599 Ry
     -----------------------------------------------


     total cpu time spent up to now is      188.2 secs

     total energy              =     -53.70383451 Ry
     estimated scf accuracy    <       0.00000042 Ry

     iteration #  9     ecut=   120.00 Ry     beta= 0.70
     Davidson diagonalization with overlap

---- Real-time Memory Report at c_bands before calling an iterative solver
             0 MiB given to the printing process from OS
             0 MiB allocation reported by mallinfo(arena+hblkhd)
             0 MiB available memory on the node where the printing process lives
------------------
     ethr =  1.65E-09,  avg # of iterations =  2.0


     -----------------------------------------------
     Non-local corr. energy    =       0.20186548 Ry
     -----------------------------------------------


     total cpu time spent up to now is      190.8 secs

     total energy              =     -53.70383455 Ry
     estimated scf accuracy    <       0.00000001 Ry

     iteration # 10     ecut=   120.00 Ry     beta= 0.70
     Davidson diagonalization with overlap

---- Real-time Memory Report at c_bands before calling an iterative solver
             0 MiB given to the printing process from OS
             0 MiB allocation reported by mallinfo(arena+hblkhd)
             0 MiB available memory on the node where the printing process lives
------------------
     ethr =  9.37E-11,  avg # of iterations =  3.4


     -----------------------------------------------
     Non-local corr. energy    =       0.20186430 Ry
     -----------------------------------------------


     total cpu time spent up to now is      193.9 secs

     total energy              =     -53.70383455 Ry
     estimated scf accuracy    <       0.00000003 Ry

     iteration # 11     ecut=   120.00 Ry     beta= 0.70
     Davidson diagonalization with overlap

---- Real-time Memory Report at c_bands before calling an iterative solver
             0 MiB given to the printing process from OS
             0 MiB allocation reported by mallinfo(arena+hblkhd)
             0 MiB available memory on the node where the printing process lives
------------------
     ethr =  9.37E-11,  avg # of iterations =  2.0


     -----------------------------------------------
     Non-local corr. energy    =       0.20186399 Ry
     -----------------------------------------------


     total cpu time spent up to now is      196.5 secs

     End of self-consistent calculation

          k = 0.0000 0.0000 0.0000 ( 16399 PWs)   bands (ev):

   -20.1298 -19.9752  -8.1765  -7.1845  -3.8631  -3.8631  -3.7798  -3.7798
     2.0451   2.5933   3.7603   4.8447

     occupation numbers 
     1.0000   1.0000   1.0000   1.0000   1.0000   1.0000   1.0000   1.0000
     0.0000   0.0000   0.0000   0.0000

          k = 0.0000 0.0962 0.0000 ( 16391 PWs)   bands (ev):

   -19.9961 -19.8433  -7.9932  -7.0108  -4.4148  -4.3316  -4.1190  -4.0353
     2.2772   2.8068   3.9829   5.0608

     occupation numbers 
     1.0000   1.0000   1.0000   1.0000   1.0000   1.0000   1.0000   1.0000
     0.0000   0.0000   0.0000   0.0000

          k = 0.0000 0.1925 0.0000 ( 16390 PWs)   bands (ev):

   -19.6024 -19.4550  -7.4518  -6.5029  -5.8070  -5.7215  -4.7431  -4.6586
     2.9370   3.4284   4.6360   5.5267

     occupation numbers 
     1.0000   1.0000   1.0000   1.0000   1.0000   1.0000   1.0000   1.0000
     0.0000   0.0000   0.0000   0.0000

          k = 0.0000 0.2887 0.0000 ( 16370 PWs)   bands (ev):

   -18.9757 -18.8376  -7.5873  -7.5005  -6.5650  -5.6747  -5.4681  -5.3828
     3.9792   4.3749   5.5360   5.9262

     occupation numbers 
     1.0000   1.0000   1.0000   1.0000   1.0000   1.0000   1.0000   1.0000
     0.0000   0.0000   0.0000   0.0000

          k = 0.0000 0.3849 0.0000 ( 16376 PWs)   bands (ev):

   -18.1846 -18.0605  -9.3519  -9.2575  -6.0918  -6.0060  -5.4281  -4.6427
     4.4012   4.7347   5.3552   6.3793

     occupation numbers 
     1.0000   1.0000   1.0000   1.0000   1.0000   1.0000   1.0000   1.0000
     0.0000   0.0000   0.0000   0.0000

          k = 0.0000 0.4811 0.0000 ( 16402 PWs)   bands (ev):

   -17.4047 -17.3006 -10.7656 -10.6664  -6.5013  -6.4152  -4.2112  -3.6390
     2.8443   3.3570   6.7426   7.3813

     occupation numbers 
     1.0000   1.0000   1.0000   1.0000   1.0000   1.0000   1.0000   1.0000
     0.0000   0.0000   0.0000   0.0000

          k = 0.0000-0.5774 0.0000 ( 16394 PWs)   bands (ev):

   -17.0353 -16.9458 -11.3499 -11.2500  -6.6430  -6.5568  -3.5247  -3.2225
     2.0999   2.6445   7.3169   7.4033

     occupation numbers 
     1.0000   1.0000   1.0000   1.0000   1.0000   1.0000   1.0000   1.0000
     0.0000   0.0000   0.0000   0.0000

          k = 0.0833 0.1443 0.0000 ( 16405 PWs)   bands (ev):

   -19.7323 -19.5830  -7.6306  -6.6688  -5.3202  -5.2379  -4.6245  -4.5415
     2.7239   3.2252   4.4219   5.3805

     occupation numbers 
     1.0000   1.0000   1.0000   1.0000   1.0000   1.0000   1.0000   1.0000
     0.0000   0.0000   0.0000   0.0000

          k = 0.0833 0.2406 0.0000 ( 16381 PWs)   bands (ev):

   -19.2207 -19.0789  -6.9492  -6.7890  -6.6964  -5.9906  -5.4092  -5.3251
     3.5817   4.0237   5.2652   5.8482

     occupation numbers 
     1.0000   1.0000   1.0000   1.0000   1.0000   1.0000   1.0000   1.0000
     0.0000   0.0000   0.0000   0.0000

          k = 0.0833 0.3368 0.0000 ( 16367 PWs)   bands (ev):

   -18.5055 -18.3751  -8.5044  -8.4157  -6.1537  -6.0698  -5.8964  -5.0606
     4.7873   4.8635   5.2215   6.3082

     occupation numbers 
     1.0000   1.0000   1.0000   1.0000   1.0000   1.0000   1.0000   1.0000
     0.0000   0.0000   0.0000   0.0000

          k = 0.0833 0.4330 0.0000 ( 16378 PWs)   bands (ev):

   -17.6963 -17.5827 -10.0832  -9.9876  -6.7034  -6.6169  -4.6916  -4.0051
     3.5976   4.0047   6.3338   7.1662

     occupation numbers 
     1.0000   1.0000   1.0000   1.0000   1.0000   1.0000   1.0000   1.0000
     0.0000   0.0000   0.0000   0.0000

          k = 0.0833 0.5292 0.0000 ( 16379 PWs)   bands (ev):

   -17.0684 -16.9749 -11.1200 -11.0210  -6.9918  -6.9047  -3.6265  -3.2273
     2.3339   2.8389   7.6066   7.9654

     occupation numbers 
     1.0000   1.0000   1.0000   1.0000   1.0000   1.0000   1.0000   1.0000
     0.0000   0.0000   0.0000   0.0000

          k = 0.1667 0.2887 0.0000 ( 16366 PWs)   bands (ev):

   -18.6166 -18.4841  -8.0019  -7.9222  -6.4180  -6.3369  -6.0568  -5.2049
     4.6356   4.8383   5.4452   6.4428

     occupation numbers 
     1.0000   1.0000   1.0000   1.0000   1.0000   1.0000   1.0000   1.0000
     0.0000   0.0000   0.0000   0.0000

          k = 0.1667 0.3849 0.0000 ( 16360 PWs)   bands (ev):

   -17.8617 -17.7430  -9.3461  -9.2612  -7.2800  -7.1948  -4.9549  -4.2156
     4.2457   4.4308   6.0856   6.8840

     occupation numbers 
     1.0000   1.0000   1.0000   1.0000   1.0000   1.0000   1.0000   1.0000
     0.0000   0.0000   0.0000   0.0000

          k = 0.1667 0.4811 0.0000 ( 16379 PWs)   bands (ev):

   -17.1314 -17.0312 -10.5295 -10.4361  -7.8002  -7.7116  -3.7903  -3.2659
     2.8725   3.2170   7.7756   8.4505

     occupation numbers 
     1.0000   1.0000   1.0000   1.0000   1.0000   1.0000   1.0000   1.0000
     0.0000   0.0000   0.0000   0.0000

          k = 0.1667 0.5774 0.0000 ( 16386 PWs)   bands (ev):

   -16.7935 -16.7058 -11.0331 -10.9363  -7.9716  -7.8818  -3.1428  -2.8767
     2.2158   2.6180   8.9710   9.1669

     occupation numbers 
     1.0000   1.0000   1.0000   1.0000   1.0000   1.0000   1.0000   1.0000
     0.0000   0.0000   0.0000   0.0000

          k = 0.2500 0.4330 0.0000 ( 16348 PWs)   bands (ev):

   -17.1616 -17.0585 -10.0677  -9.9872  -8.3561  -8.2712  -3.8611  -3.2914
     3.2358   3.3527   7.7035   8.3024

     occupation numbers 
     1.0000   1.0000   1.0000   1.0000   1.0000   1.0000   1.0000   1.0000
     0.0000   0.0000   0.0000   0.0000

          k = 0.2500 0.5292 0.0000 ( 16377 PWs)   bands (ev):

   -16.6509 -16.5629 -10.5833 -10.4945  -8.9622  -8.8733  -2.9366  -2.6428
     2.3781   2.5828   9.3817   9.6500

     occupation numbers 
     1.0000   1.0000   1.0000   1.0000   1.0000   1.0000   1.0000   1.0000
     0.0000   0.0000   0.0000   0.0000

          k = 0.3333 0.5774 0.0000 ( 16404 PWs)   bands (ev):

   -16.4569 -16.3737 -10.3682 -10.2933  -9.6272  -9.5509  -2.5202  -2.4237
     2.1890   2.3273   9.5718   9.7549

     occupation numbers 
     1.0000   1.0000   1.0000   1.0000   1.0000   1.0000   1.0000   1.0000
     0.0000   0.0000   0.0000   0.0000

     the Fermi energy is    -1.2818 ev

!    total energy              =     -53.70383455 Ry
     estimated scf accuracy    <          8.9E-10 Ry
     smearing contrib. (-TS)   =       0.00000000 Ry
     internal energy E=F+TS    =     -53.70383455 Ry

     The total energy is F=E-TS. E is the sum of the following terms:
     one-electron contribution =    -520.45902239 Ry
     hartree contribution      =     264.41214740 Ry
     xc contribution           =     -17.38743472 Ry
     ewald contribution        =     219.73047515 Ry

     convergence has been achieved in  11 iterations


     -----------------------------------------------
     Non-local corr. energy    =       0.20186399 Ry
     -----------------------------------------------


     Forces acting on atoms (cartesian axes, Ry/au):

     atom    1 type  1   force =     0.00000000    0.00000000    0.00126322
     atom    2 type  2   force =     0.00000000    0.00000000   -0.00025059
     atom    3 type  2   force =     0.00000000    0.00000000   -0.00118730
     atom    4 type  1   force =     0.00000000    0.00000000    0.00017467
     The non-local contrib.  to forces
     atom    1 type  1   force =     0.00000000    0.00000000    0.00043649
     atom    2 type  2   force =    -0.00000000   -0.00000000   -0.00015281
     atom    3 type  2   force =    -0.00000000   -0.00000000   -0.00409950
     atom    4 type  1   force =     0.00000000    0.00000000    0.00008448
     The ionic contribution  to forces
     atom    1 type  1   force =    -0.00000463   -0.00000089  -10.24585873
     atom    2 type  2   force =     0.00000464    0.00000089  -17.06818309
     atom    3 type  2   force =     0.00000772   -0.00000446   17.09079104
     atom    4 type  1   force =    -0.00000773    0.00000446   10.22325079
     The local contribution  to forces
     atom    1 type  1   force =     0.00000000   -0.00000000   10.24671919
     atom    2 type  2   force =     0.00002009    0.00000387   17.06807183
     atom    3 type  2   force =     0.00000000    0.00000000  -17.08796822
     atom    4 type  1   force =     0.00000420   -0.00000242  -10.22322037
     The core correction contribution to forces
     atom    1 type  1   force =    -0.00000000   -0.00000000   -0.00004773
     atom    2 type  2   force =    -0.00000083   -0.00000016   -0.00001839
     atom    3 type  2   force =     0.00000000   -0.00000000    0.00013396
     atom    4 type  1   force =     0.00000025   -0.00000015    0.00007910
     The Hubbard contrib.    to forces
     atom    1 type  1   force =     0.00000000    0.00000000    0.00000000
     atom    2 type  2   force =     0.00000000    0.00000000    0.00000000
     atom    3 type  2   force =     0.00000000    0.00000000    0.00000000
     atom    4 type  1   force =     0.00000000    0.00000000    0.00000000
     The SCF correction term to forces
     atom    1 type  1   force =     0.00000000    0.00000000    0.00000000
     atom    2 type  2   force =     0.00000000    0.00000000    0.00000000
     atom    3 type  2   force =    -0.00000000   -0.00000000   -0.00004475
     atom    4 type  1   force =     0.00000000   -0.00000000   -0.00001950

     Total force =     0.001200     Total SCF correction =     0.000049


     Computing stress (Cartesian axis) and pressure



     -----------------------------------------------
     Non-local corr. energy    =       0.20186399 Ry
     -----------------------------------------------

          total   stress  (Ry/bohr**3)                   (kbar)     P=        3.73
   0.00004264   0.00000000   0.00000000            6.27        0.00        0.00
   0.00000000   0.00004264   0.00000000            0.00        6.27        0.00
   0.00000000   0.00000000  -0.00000926            0.00        0.00       -1.36

     kinetic stress (kbar)   4862.54      0.00      0.00
                                0.00   4862.54     -0.00
                                0.00     -0.00   5286.87

     local   stress (kbar)-107400.87      0.00      0.00
                                0.00-107400.87     -0.00
                                0.00     -0.00 108094.25

     nonloc. stress (kbar)   -802.56      0.00      0.00
                                0.00   -802.56     -0.00
                                0.00     -0.00   -774.25

     hartree stress (kbar)  52239.99      0.00     -0.00
                                0.00  52239.99      0.00
                               -0.00      0.00 -51401.75

     exc-cor stress (kbar)   -488.42     -0.00      0.00
                               -0.00   -488.42     -0.00
                                0.00     -0.00   -536.42

     corecor stress (kbar)   -545.43      0.00     -0.00
                                0.00   -545.43      0.00
                               -0.00      0.00   -533.48

     ewald   stress (kbar)  52136.64     -0.01     -0.00
                               -0.01  52136.64     -0.00
                               -0.00     -0.00 -60164.47

     hubbard stress (kbar)      0.00      0.00      0.00
                                0.00      0.00      0.00
                                0.00      0.00      0.00

     DFT-D   stress (kbar)      0.00      0.00      0.00
                                0.00      0.00      0.00
                                0.00      0.00      0.00

     XDM     stress (kbar)      0.00      0.00      0.00
                                0.00      0.00      0.00
                                0.00      0.00      0.00

     dft-nl  stress (kbar)      4.38      0.00      0.00
                                0.00      4.38     -0.00
                                0.00     -0.00     27.89

     TS-vdW  stress (kbar)      0.00      0.00      0.00
                                0.00      0.00      0.00
                                0.00      0.00      0.00

     MDB     stress (kbar)      0.00      0.00      0.00
                                0.00      0.00      0.00
                                0.00      0.00      0.00

     3D-RISM stress (kbar)      0.00      0.00      0.00
                                0.00      0.00      0.00
                                0.00      0.00      0.00

     Energy error            =      2.3E-05 Ry
     Gradient error          =      1.2E-03 Ry/Bohr
     Cell gradient error     =      1.4E+00 kbar

     number of scf cycles    =   8
     number of bfgs steps    =   7

     enthalpy           old  =     -53.7038114931 Ry
     enthalpy           new  =     -53.7038345505 Ry

     CASE: enthalpy          _new < enthalpy          _old

     new trust radius        =       0.0194644644 bohr
     new conv_thr            =       0.0000000100 Ry

     new unit-cell volume =    730.17750 a.u.^3 (   108.20114 Ang^3 )
     density =      0.73698 g/cm^3

CELL_PARAMETERS (alat=  4.74000000)
   1.000000000   0.000000000   0.000000000
  -0.500000000   0.866025404   0.000000000
   0.000000000   0.000000000   7.917039046

ATOMIC_POSITIONS (crystal)
B             0.0000000000        0.0000000000        0.0000000000    0   0   0
N             0.3333330000        0.6666666000        0.0000000000    0   0   0
N             0.0000000000        0.0000000000        0.1693656680
B             0.6666670000        0.3333330000        0.1692719181



     Writing config-only to output data dir ./tmp/BN2L_AB1_PBE_vdW.save/
     NEW-OLD atomic charge density approx. for the potential

     negative rho (up, down):  5.172E-07 0.000E+00


     -----------------------------------------------
     Non-local corr. energy    =       0.20116686 Ry
     -----------------------------------------------

     extrapolated charge   15.94227, renormalised to   16.00000

     total cpu time spent up to now is      208.1 secs

     Self-consistent Calculation

     iteration #  1     ecut=   120.00 Ry     beta= 0.70
     Davidson diagonalization with overlap

---- Real-time Memory Report at c_bands before calling an iterative solver
             0 MiB given to the printing process from OS
             0 MiB allocation reported by mallinfo(arena+hblkhd)
             0 MiB available memory on the node where the printing process lives
------------------
     c_bands:  1 eigenvalues not converged
     c_bands:  1 eigenvalues not converged
     c_bands:  1 eigenvalues not converged
     c_bands:  1 eigenvalues not converged
     ethr =  1.00E-06,  avg # of iterations = 13.2

     negative rho (up, down):  1.424E-07 0.000E+00


     -----------------------------------------------
     Non-local corr. energy    =       0.20245401 Ry
     -----------------------------------------------


     total cpu time spent up to now is      213.6 secs

     total energy              =     -53.69921132 Ry
     estimated scf accuracy    <       0.00355196 Ry

     iteration #  2     ecut=   120.00 Ry     beta= 0.70
     Davidson diagonalization with overlap

---- Real-time Memory Report at c_bands before calling an iterative solver
             0 MiB given to the printing process from OS
             0 MiB allocation reported by mallinfo(arena+hblkhd)
             0 MiB available memory on the node where the printing process lives
------------------
     c_bands:  1 eigenvalues not converged
