
     Program BANDS v.7.2 starts on 27Mar2024 at  6:30:59 

     This program is part of the open-source Quantum ESPRESSO suite
     for quantum simulation of materials; please cite
         "P. Giannozzi et al., J. Phys.:Condens. Matter 21 395502 (2009);
         "P. Giannozzi et al., J. Phys.:Condens. Matter 29 465901 (2017);
         "P. Giannozzi et al., J. Chem. Phys. 152 154105 (2020);
          URL http://www.quantum-espresso.org", 
     in publications or presentations arising from this work. More details at
     http://www.quantum-espresso.org/quote

     Parallel version (MPI & OpenMP), running on       1 processor cores
     Number of MPI processes:                 1
     Threads/MPI process:                     1

     MPI processes distributed on     1 nodes
     0 MiB available memory on the printing compute node when the environment starts


     Reading xml data from directory:

     ./tmp/graphene_LDA.save/

     IMPORTANT: XC functional enforced from input :
     Exchange-correlation= PZ
                           (   1   1   0   0   0   0   0)
     Any further DFT definition will be discarded
     Please, verify this is what you really want


     G-vector sticks info
     --------------------
     sticks:   dense  smooth     PW     G-vecs:    dense   smooth      PW
     Sum         361     361    109                32429    32429    5621

     Using Slab Decomposition

     Reading collected, re-writing distributed wavefunctions
     high-symmetry point:  0.0000 0.0000 0.0000   x coordinate   0.0000
     high-symmetry point: -0.3333 0.5774 0.0000   x coordinate   0.6667
     high-symmetry point:  0.0000 0.5774 0.0000   x coordinate   1.0000
     high-symmetry point:  0.0000 0.0000 0.0000   x coordinate   1.5773

     Plottable bands (eV) written to file graphene_LDA.dat.gnu
     Bands written to file graphene_LDA.dat

 **************************************************************************

                    xk=(   0.00000,   0.00000,   0.00000  )

     point group D_6h(6/mmm)
     there are 12 classes
     the character table:

       E     2C6   2C3   C2    3C2'  3C2'' i     2S3   2S6   s_h   3s_d  3s_v 
A_1g   1.00  1.00  1.00  1.00  1.00  1.00  1.00  1.00  1.00  1.00  1.00  1.00
A_2g   1.00  1.00  1.00  1.00 -1.00 -1.00  1.00  1.00  1.00  1.00 -1.00 -1.00
B_1g   1.00 -1.00  1.00 -1.00  1.00 -1.00  1.00 -1.00  1.00 -1.00  1.00 -1.00
B_2g   1.00 -1.00  1.00 -1.00 -1.00  1.00  1.00 -1.00  1.00 -1.00 -1.00  1.00
E_1g   2.00  1.00 -1.00 -2.00  0.00  0.00  2.00  1.00 -1.00 -2.00  0.00  0.00
E_2g   2.00 -1.00 -1.00  2.00  0.00  0.00  2.00 -1.00 -1.00  2.00  0.00  0.00
A_1u   1.00  1.00  1.00  1.00  1.00  1.00 -1.00 -1.00 -1.00 -1.00 -1.00 -1.00
A_2u   1.00  1.00  1.00  1.00 -1.00 -1.00 -1.00 -1.00 -1.00 -1.00  1.00  1.00
B_1u   1.00 -1.00  1.00 -1.00  1.00 -1.00 -1.00  1.00 -1.00  1.00 -1.00  1.00
B_2u   1.00 -1.00  1.00 -1.00 -1.00  1.00 -1.00  1.00 -1.00  1.00  1.00 -1.00
E_1u   2.00  1.00 -1.00 -2.00  0.00  0.00 -2.00 -1.00  1.00  2.00  0.00  0.00
E_2u   2.00 -1.00 -1.00  2.00  0.00  0.00 -2.00  1.00  1.00 -2.00  0.00  0.00

     the symmetry operations in each class and the name of the first element:

     E        1
                                                                 
     2C6      5    6
                                                                 
     2C3      7    8
                                                                 
     C2       2
                                                                 
     3C2'     4   12   11
                                                                 
     3C2''    3    9   10
                                                                 
     i       13
                                                                 
     2S3     17   18
                                                                 
     2S6     19   20
                                                                 
     s_h     14
                                                                 
     3s_d    16   24   23
                                                                 
     3s_v    15   21   22
                                                                 

     Band symmetry, D_6h(6/mmm) point group:

     e(  1 -  1) =    -21.37054  eV     1   --> A_1g           
     e(  2 -  2) =     -9.67401  eV     1   --> A_2u           
     e(  3 -  4) =     -4.89025  eV     2   --> E_2g           
     e(  5 -  5) =      1.45776  eV     1   --> A_1g           
     e(  6 -  6) =      2.51692  eV     1   --> A_2u           
     e(  7 -  7) =      3.01278  eV     1   --> A_1g           
     e(  8 -  8) =      4.94587  eV     1   --> A_2u           

 **************************************************************************

 **************************************************************************

                    xk=(  -0.01587,   0.02749,   0.00000  )

     point group C_2v (mm2) 
     there are  4 classes
     the character table:

       E     C2    s_v   s_v' 
A_1    1.00  1.00  1.00  1.00
A_2    1.00  1.00 -1.00 -1.00
B_1    1.00 -1.00  1.00 -1.00
B_2    1.00 -1.00 -1.00  1.00

     the symmetry operations in each class and the name of the first element:

     E        1
                                                                 
     C2       2
                                                                 
     s_v      4
                                                                 
     s_v'     3
                                                                 

     Band symmetry, C_2v (mm2)  point group:

     e(  1 -  1) =    -21.35261  eV     1   --> A_1  D_1  S_1  
     e(  2 -  2) =     -9.65211  eV     1   --> B_1  D_3  S_3  
     e(  3 -  3) =     -4.96248  eV     1   --> B_2  D_4  S_4  
     e(  4 -  4) =     -4.92998  eV     1   --> A_1  D_1  S_1  
     e(  5 -  5) =      1.48216  eV     1   --> A_1  D_1  S_1  
     e(  6 -  6) =      2.54165  eV     1   --> B_1  D_3  S_3  
     e(  7 -  7) =      3.03779  eV     1   --> A_1  D_1  S_1  
     e(  8 -  8) =      4.97042  eV     1   --> B_1  D_3  S_3  

 **************************************************************************

 **************************************************************************

                    xk=(  -0.03174,   0.05499,   0.00000  )

     Band symmetry, C_2v (mm2)  point group:

     e(  1 -  1) =    -21.29867  eV     1   --> A_1  D_1  S_1  
     e(  2 -  2) =     -9.58614  eV     1   --> B_1  D_3  S_3  
     e(  3 -  3) =     -5.17485  eV     1   --> B_2  D_4  S_4  
     e(  4 -  4) =     -5.05069  eV     1   --> A_1  D_1  S_1  
     e(  5 -  5) =      1.55538  eV     1   --> A_1  D_1  S_1  
     e(  6 -  6) =      2.61585  eV     1   --> B_1  D_3  S_3  
     e(  7 -  7) =      3.11286  eV     1   --> A_1  D_1  S_1  
     e(  8 -  8) =      5.04409  eV     1   --> B_1  D_3  S_3  

 **************************************************************************

 **************************************************************************

                    xk=(  -0.04761,   0.08248,   0.00000  )

     Band symmetry, C_2v (mm2)  point group:

     e(  1 -  1) =    -21.20904  eV     1   --> A_1  D_1  S_1  
     e(  2 -  2) =     -9.47732  eV     1   --> B_1  D_3  S_3  
     e(  3 -  3) =     -5.50740  eV     1   --> B_2  D_4  S_4  
     e(  4 -  4) =     -5.24757  eV     1   --> A_1  D_1  S_1  
     e(  5 -  5) =      1.67745  eV     1   --> A_1  D_1  S_1  
     e(  6 -  6) =      2.73932  eV     1   --> B_1  D_3  S_3  
     e(  7 -  7) =      3.23798  eV     1   --> A_1  D_1  S_1  
     e(  8 -  8) =      5.16665  eV     1   --> B_1  D_3  S_3  

 **************************************************************************

 **************************************************************************

                    xk=(  -0.06349,   0.10998,   0.00000  )

     point group C_s (m)    
     there are  2 classes
     the character table:

       E     s    
A'     1.00  1.00
A''    1.00 -1.00

     the symmetry operations in each class and the name of the first element:

     E        1
                                                                 
     s        2
                                                                 

     Band symmetry, C_s (m)     point group:

     e(  1 -  1) =    -21.08368  eV     1   --> A'             
     e(  2 -  2) =     -9.32556  eV     1   --> A''            
     e(  3 -  3) =     -5.93366  eV     1   --> A'             
     e(  4 -  4) =     -5.51439  eV     1   --> A'             
     e(  5 -  5) =      1.84840  eV     1   --> A'             
     e(  6 -  6) =      2.91203  eV     1   --> A''            
     e(  7 -  7) =      3.41319  eV     1   --> A'             
     e(  8 -  8) =      5.33799  eV     1   --> A''            

 **************************************************************************

 **************************************************************************

                    xk=(  -0.07936,   0.13747,   0.00000  )

     Band symmetry, C_s (m)     point group:

     e(  1 -  1) =    -20.92263  eV     1   --> A'             
     e(  2 -  2) =     -9.13072  eV     1   --> A''            
     e(  3 -  3) =     -6.42841  eV     1   --> A'             
     e(  4 -  4) =     -5.84375  eV     1   --> A'             
     e(  5 -  5) =      2.06827  eV     1   --> A'             
     e(  6 -  6) =      3.13389  eV     1   --> A''            
     e(  7 -  7) =      3.63851  eV     1   --> A'             
     e(  8 -  8) =      5.55800  eV     1   --> A''            

 **************************************************************************

 **************************************************************************

                    xk=(  -0.09523,   0.16496,   0.00000  )

     Band symmetry, C_s (m)     point group:

     e(  1 -  1) =    -20.72624  eV     1   --> A'             
     e(  2 -  2) =     -8.89404  eV     1   --> A''            
     e(  3 -  3) =     -6.96900  eV     1   --> A'             
     e(  4 -  4) =     -6.22557  eV     1   --> A'             
     e(  5 -  5) =      2.33701  eV     1   --> A'             
     e(  6 -  6) =      3.40459  eV     1   --> A''            
     e(  7 -  7) =      3.91394  eV     1   --> A'             
     e(  8 -  8) =      5.82621  eV     1   --> A''            

 **************************************************************************

 **************************************************************************

                    xk=(  -0.11110,   0.19246,   0.00000  )

     Band symmetry, C_s (m)     point group:

     e(  1 -  1) =    -20.49479  eV     1   --> A'             
     e(  2 -  2) =     -8.61651  eV     1   --> A''            
     e(  3 -  3) =     -7.53772  eV     1   --> A'             
     e(  4 -  4) =     -6.65144  eV     1   --> A'             
     e(  5 -  5) =      2.65456  eV     1   --> A'             
     e(  6 -  6) =      3.72377  eV     1   --> A''            
     e(  7 -  7) =      4.23951  eV     1   --> A'             
     e(  8 -  8) =      6.14210  eV     1   --> A''            

 **************************************************************************

 **************************************************************************

                    xk=(  -0.12697,   0.21995,   0.00000  )

     Band symmetry, C_s (m)     point group:

     e(  1 -  1) =    -20.22826  eV     1   --> A'             
     e(  2 -  2) =     -8.29780  eV     1   --> A''            
     e(  3 -  3) =     -8.11983  eV     1   --> A'             
     e(  4 -  4) =     -7.11026  eV     1   --> A'             
     e(  5 -  5) =      3.02081  eV     1   --> A'             
     e(  6 -  6) =      4.09112  eV     1   --> A''            
     e(  7 -  7) =      4.61518  eV     1   --> A'             
     e(  8 -  8) =      6.36230  eV     1   --> A''            

 **************************************************************************

 **************************************************************************

                    xk=(  -0.14284,   0.24744,   0.00000  )

     Band symmetry, C_s (m)     point group:

     e(  1 -  1) =    -19.92743  eV     1   --> A'             
     e(  2 -  2) =     -8.70587  eV     1   --> A'             
     e(  3 -  3) =     -7.94003  eV     1   --> A''            
     e(  4 -  4) =     -7.59427  eV     1   --> A'             
     e(  5 -  5) =      3.43551  eV     1   --> A'             
     e(  6 -  6) =      4.50584  eV     1   --> A''            
     e(  7 -  7) =      5.04093  eV     1   --> A'             
     e(  8 -  8) =      5.66562  eV     1   --> A''            

 **************************************************************************

 **************************************************************************

                    xk=(  -0.15871,   0.27494,   0.00000  )

     Band symmetry, C_s (m)     point group:

     e(  1 -  1) =    -19.59292  eV     1   --> A'             
     e(  2 -  2) =     -9.28787  eV     1   --> A'             
     e(  3 -  3) =     -8.09571  eV     1   --> A'             
     e(  4 -  4) =     -7.54526  eV     1   --> A''            
     e(  5 -  5) =      3.89836  eV     1   --> A'             
     e(  6 -  6) =      4.95154  eV     1   --> A''            
     e(  7 -  7) =      4.96675  eV     1   --> A''            
     e(  8 -  8) =      5.51668  eV     1   --> A'             

 **************************************************************************

 **************************************************************************

                    xk=(  -0.17459,   0.30243,   0.00000  )

     Band symmetry, C_s (m)     point group:

     e(  1 -  1) =    -19.22489  eV     1   --> A'             
     e(  2 -  2) =     -9.85894  eV     1   --> A'             
     e(  3 -  3) =     -8.60469  eV     1   --> A'             
     e(  4 -  4) =     -7.11461  eV     1   --> A''            
     e(  5 -  5) =      4.23373  eV     1   --> A''            
     e(  6 -  6) =      4.40901  eV     1   --> A'             
     e(  7 -  7) =      5.47225  eV     1   --> A''            
     e(  8 -  8) =      6.04238  eV     1   --> A'             

 **************************************************************************

 **************************************************************************

                    xk=(  -0.19046,   0.32993,   0.00000  )

     Band symmetry, C_s (m)     point group:

     e(  1 -  1) =    -18.82444  eV     1   --> A'             
     e(  2 -  2) =    -10.41432  eV     1   --> A'             
     e(  3 -  3) =     -9.11575  eV     1   --> A'             
     e(  4 -  4) =     -6.65079  eV     1   --> A''            
     e(  5 -  5) =      3.51928  eV     1   --> A''            
     e(  6 -  6) =      4.96686  eV     1   --> A'             
     e(  7 -  7) =      6.01931  eV     1   --> A''            
     e(  8 -  8) =      6.61788  eV     1   --> A'             

 **************************************************************************

 **************************************************************************

                    xk=(  -0.20633,   0.35742,   0.00000  )

     Band symmetry, C_s (m)     point group:

     e(  1 -  1) =    -18.39237  eV     1   --> A'             
     e(  2 -  2) =    -10.95114  eV     1   --> A'             
     e(  3 -  3) =     -9.62171  eV     1   --> A'             
     e(  4 -  4) =     -6.15673  eV     1   --> A''            
     e(  5 -  5) =      2.81656  eV     1   --> A''            
     e(  6 -  6) =      5.57112  eV     1   --> A'             
     e(  7 -  7) =      6.60246  eV     1   --> A''            
     e(  8 -  8) =      7.24301  eV     1   --> A'             

 **************************************************************************

 **************************************************************************

                    xk=(  -0.22220,   0.38491,   0.00000  )

     Band symmetry, C_s (m)     point group:

     e(  1 -  1) =    -17.93027  eV     1   --> A'             
     e(  2 -  2) =    -11.46688  eV     1   --> A'             
     e(  3 -  3) =    -10.11762  eV     1   --> A'             
     e(  4 -  4) =     -5.63625  eV     1   --> A''            
     e(  5 -  5) =      2.12995  eV     1   --> A''            
     e(  6 -  6) =      6.22056  eV     1   --> A'             
     e(  7 -  7) =      7.21045  eV     1   --> A''            
     e(  8 -  8) =      7.91748  eV     1   --> A'             

 **************************************************************************

 **************************************************************************

                    xk=(  -0.23807,   0.41241,   0.00000  )

     Band symmetry, C_s (m)     point group:

     e(  1 -  1) =    -17.44027  eV     1   --> A'             
     e(  2 -  2) =    -11.95881  eV     1   --> A'             
     e(  3 -  3) =    -10.59869  eV     1   --> A'             
     e(  4 -  4) =     -5.09530  eV     1   --> A''            
     e(  5 -  5) =      1.46525  eV     1   --> A''            
     e(  6 -  6) =      6.91314  eV     1   --> A'             
     e(  7 -  7) =      7.81722  eV     1   --> A''            
     e(  8 -  8) =      8.64074  eV     1   --> A'             

 **************************************************************************

 **************************************************************************

                    xk=(  -0.25394,   0.43990,   0.00000  )

     Band symmetry, C_s (m)     point group:

     e(  1 -  1) =    -16.92449  eV     1   --> A'             
     e(  2 -  2) =    -12.42555  eV     1   --> A'             
     e(  3 -  3) =    -11.05914  eV     1   --> A'             
     e(  4 -  4) =     -4.53916  eV     1   --> A''            
     e(  5 -  5) =      0.82665  eV     1   --> A''            
     e(  6 -  6) =      7.64589  eV     1   --> A'             
     e(  7 -  7) =      8.35855  eV     1   --> A''            
     e(  8 -  8) =      9.41189  eV     1   --> A'             

 **************************************************************************

 **************************************************************************

                    xk=(  -0.26981,   0.46739,   0.00000  )

     Band symmetry, C_s (m)     point group:

     e(  1 -  1) =    -16.38719  eV     1   --> A'             
     e(  2 -  2) =    -12.86648  eV     1   --> A'             
     e(  3 -  3) =    -11.49361  eV     1   --> A'             
     e(  4 -  4) =     -3.97668  eV     1   --> A''            
     e(  5 -  5) =      0.21660  eV     1   --> A''            
     e(  6 -  6) =      8.41308  eV     1   --> A'             
     e(  7 -  7) =      8.70451  eV     1   --> A''            
     e(  8 -  8) =     10.22848  eV     1   --> A'             

 **************************************************************************

 **************************************************************************

                    xk=(  -0.28569,   0.49489,   0.00000  )

     Band symmetry, C_s (m)     point group:

     e(  1 -  1) =    -15.83552  eV     1   --> A'             
     e(  2 -  2) =    -13.27992  eV     1   --> A'             
     e(  3 -  3) =    -11.89334  eV     1   --> A'             
     e(  4 -  4) =     -3.41595  eV     1   --> A''            
     e(  5 -  5) =     -0.36011  eV     1   --> A''            
     e(  6 -  6) =      8.77963  eV     1   --> A''            
     e(  7 -  7) =      9.20337  eV     1   --> A'             
     e(  8 -  8) =     11.07538  eV     1   --> A'             

 **************************************************************************

 **************************************************************************

                    xk=(  -0.30156,   0.52238,   0.00000  )

     Band symmetry, C_s (m)     point group:

     e(  1 -  1) =    -15.28394  eV     1   --> A'             
     e(  2 -  2) =    -13.66570  eV     1   --> A'             
     e(  3 -  3) =    -12.24557  eV     1   --> A'             
     e(  4 -  4) =     -2.87058  eV     1   --> A''            
     e(  5 -  5) =     -0.90277  eV     1   --> A''            
     e(  6 -  6) =      8.70271  eV     1   --> A''            
     e(  7 -  7) =      9.99140  eV     1   --> A'             
     e(  8 -  8) =     11.35353  eV     1   --> A'             

 **************************************************************************

 **************************************************************************

                    xk=(  -0.31743,   0.54988,   0.00000  )

     Band symmetry, C_s (m)     point group:

     e(  1 -  1) =    -14.76294  eV     1   --> A'             
     e(  2 -  2) =    -14.02285  eV     1   --> A'             
     e(  3 -  3) =    -12.51887  eV     1   --> A'             
     e(  4 -  4) =     -2.35275  eV     1   --> A''            
     e(  5 -  5) =     -1.40883  eV     1   --> A''            
     e(  6 -  6) =      8.60906  eV     1   --> A''            
     e(  7 -  7) =     10.71053  eV     1   --> A'             
     e(  8 -  8) =     11.29423  eV     1   --> A'             

 **************************************************************************

 **************************************************************************

                    xk=(  -0.33330,   0.57737,   0.00000  )

     Band symmetry, C_s (m)     point group:

     e(  1 -  1) =    -14.35201  eV     1   --> A'             
     e(  2 -  2) =    -14.35124  eV     1   --> A'             
     e(  3 -  3) =    -12.63898  eV     1   --> A'             
     e(  4 -  4) =     -1.87927  eV     1   --> A''            
     e(  5 -  5) =     -1.87817  eV     1   --> A''            
     e(  6 -  6) =      8.56918  eV     1   --> A''            
     e(  7 -  7) =     11.15260  eV     1   --> A'             
     e(  8 -  8) =     11.15303  eV     1   --> A'             

 **************************************************************************

 **************************************************************************

                    xk=(  -0.30300,   0.57737,   0.00000  )

     Band symmetry, C_s (m)     point group:

     e(  1 -  1) =    -14.63781  eV     1   --> A'             
     e(  2 -  2) =    -14.17521  eV     1   --> A'             
     e(  3 -  3) =    -12.49621  eV     1   --> A'             
     e(  4 -  4) =     -2.28931  eV     1   --> A''            
     e(  5 -  5) =     -1.47549  eV     1   --> A''            
     e(  6 -  6) =      8.61182  eV     1   --> A''            
     e(  7 -  7) =     10.95965  eV     1   --> A'             
     e(  8 -  8) =     11.10152  eV     1   --> A'             

 **************************************************************************

 **************************************************************************

                    xk=(  -0.27270,   0.57737,   0.00000  )

     Band symmetry, C_s (m)     point group:

     e(  1 -  1) =    -14.89745  eV     1   --> A'             
     e(  2 -  2) =    -14.21479  eV     1   --> A'             
     e(  3 -  3) =    -12.10545  eV     1   --> A'             
     e(  4 -  4) =     -2.66299  eV     1   --> A''            
     e(  5 -  5) =     -1.13519  eV     1   --> A''            
     e(  6 -  6) =      8.74386  eV     1   --> A''            
     e(  7 -  7) =     10.73138  eV     1   --> A'             
     e(  8 -  8) =     10.83325  eV     1   --> A'             

 **************************************************************************

 **************************************************************************

                    xk=(  -0.24240,   0.57736,   0.00000  )

     Band symmetry, C_s (m)     point group:

     e(  1 -  1) =    -15.13018  eV     1   --> A'             
     e(  2 -  2) =    -14.35559  eV     1   --> A'             
     e(  3 -  3) =    -11.58550  eV     1   --> A'             
     e(  4 -  4) =     -2.99890  eV     1   --> A''            
     e(  5 -  5) =     -0.85883  eV     1   --> A''            
     e(  6 -  6) =      8.96078  eV     1   --> A''            
     e(  7 -  7) =     10.31321  eV     1   --> A'             
     e(  8 -  8) =     10.49109  eV     1   --> A'             

 **************************************************************************

 **************************************************************************

                    xk=(  -0.21210,   0.57736,   0.00000  )

     Band symmetry, C_s (m)     point group:

     e(  1 -  1) =    -15.33562  eV     1   --> A'             
     e(  2 -  2) =    -14.52294  eV     1   --> A'             
     e(  3 -  3) =    -11.01970  eV     1   --> A'             
     e(  4 -  4) =     -3.29695  eV     1   --> A''            
     e(  5 -  5) =     -0.64624  eV     1   --> A''            
     e(  6 -  6) =      9.24240  eV     1   --> A''            
     e(  7 -  7) =      9.55030  eV     1   --> A'             
     e(  8 -  8) =     10.25644  eV     1   --> A'             

 **************************************************************************

 **************************************************************************

                    xk=(  -0.18180,   0.57736,   0.00000  )

     Band symmetry, C_s (m)     point group:

     e(  1 -  1) =    -15.51370  eV     1   --> A'             
     e(  2 -  2) =    -14.68638  eV     1   --> A'             
     e(  3 -  3) =    -10.44988  eV     1   --> A'             
     e(  4 -  4) =     -3.55596  eV     1   --> A''            
     e(  5 -  5) =     -0.49086  eV     1   --> A''            
     e(  6 -  6) =      8.74426  eV     1   --> A'             
     e(  7 -  7) =      9.55246  eV     1   --> A''            
     e(  8 -  8) =     10.03914  eV     1   --> A'             

 **************************************************************************

 **************************************************************************

                    xk=(  -0.15150,   0.57736,   0.00000  )

     Band symmetry, C_s (m)     point group:

     e(  1 -  1) =    -15.66453  eV     1   --> A'             
     e(  2 -  2) =    -14.83339  eV     1   --> A'             
     e(  3 -  3) =     -9.90257  eV     1   --> A'             
     e(  4 -  4) =     -3.77602  eV     1   --> A''            
     e(  5 -  5) =     -0.38341  eV     1   --> A''            
     e(  6 -  6) =      7.96818  eV     1   --> A'             
     e(  7 -  7) =      9.84258  eV     1   --> A''            
     e(  8 -  8) =      9.84706  eV     1   --> A'             

 **************************************************************************

 **************************************************************************

                    xk=(  -0.12120,   0.57736,   0.00000  )

     Band symmetry, C_s (m)     point group:

     e(  1 -  1) =    -15.78817  eV     1   --> A'             
     e(  2 -  2) =    -14.95821  eV     1   --> A'             
     e(  3 -  3) =     -9.40231  eV     1   --> A'             
     e(  4 -  4) =     -3.95677  eV     1   --> A''            
     e(  5 -  5) =     -0.31309  eV     1   --> A''            
     e(  6 -  6) =      7.26544  eV     1   --> A'             
     e(  7 -  7) =      9.68494  eV     1   --> A'             
     e(  8 -  8) =      9.79111  eV     1   --> A'             

 **************************************************************************

 **************************************************************************

                    xk=(  -0.09090,   0.57736,   0.00000  )

     zone border point and non-symmorphic group 
     symmetry decomposition not available

 **************************************************************************

 **************************************************************************

                    xk=(  -0.06060,   0.57735,   0.00000  )

     zone border point and non-symmorphic group 
     symmetry decomposition not available

 **************************************************************************

 **************************************************************************

                    xk=(  -0.03030,   0.57735,   0.00000  )

     zone border point and non-symmorphic group 
     symmetry decomposition not available

 **************************************************************************

 **************************************************************************

                    xk=(   0.00000,   0.57735,   0.00000  )

     zone border point and non-symmorphic group 
     symmetry decomposition not available

 **************************************************************************

 **************************************************************************

                    xk=(   0.00000,   0.54528,   0.00000  )

     point group C_2v (mm2) 
     there are  4 classes
     the character table:

       E     C2    s_v   s_v' 
A_1    1.00  1.00  1.00  1.00
A_2    1.00  1.00 -1.00 -1.00
B_1    1.00 -1.00  1.00 -1.00
B_2    1.00 -1.00 -1.00  1.00

     the symmetry operations in each class and the name of the first element:

     E        1
                                                                 
     C2       2
                                                                 
     s_v      3
                                                                 
     s_v'     4
                                                                 

     Band symmetry, C_2v (mm2)  point group:

     e(  1 -  1) =    -16.32227  eV     1   --> A_1  D_1  S_1  
     e(  2 -  2) =    -14.84463  eV     1   --> A_1  D_1  S_1  
     e(  3 -  3) =     -8.33910  eV     1   --> B_1  D_3  S_3  
     e(  4 -  4) =     -4.39968  eV     1   --> B_2  D_4  S_4  
     e(  5 -  5) =     -0.07810  eV     1   --> B_2  D_4  S_4  
     e(  6 -  6) =      5.84301  eV     1   --> A_1  D_1  S_1  
     e(  7 -  7) =      8.59464  eV     1   --> A_1  D_1  S_1  
     e(  8 -  8) =      9.67096  eV     1   --> B_2  D_4  S_4  

 **************************************************************************

 **************************************************************************

                    xk=(   0.00000,   0.51320,   0.00000  )

     Band symmetry, C_2v (mm2)  point group:

     e(  1 -  1) =    -16.83649  eV     1   --> A_1  D_1  S_1  
     e(  2 -  2) =    -14.24893  eV     1   --> A_1  D_1  S_1  
     e(  3 -  3) =     -8.28310  eV     1   --> B_1  D_3  S_3  
     e(  4 -  4) =     -4.71842  eV     1   --> B_2  D_4  S_4  
     e(  5 -  5) =      0.32738  eV     1   --> B_2  D_4  S_4  
     e(  6 -  6) =      5.86722  eV     1   --> A_1  D_1  S_1  
     e(  7 -  7) =      7.80026  eV     1   --> A_1  D_1  S_1  
     e(  8 -  8) =      8.89228  eV     1   --> B_2  D_4  S_4  

 **************************************************************************

 **************************************************************************

                    xk=(   0.00000,   0.48113,   0.00000  )

     Band symmetry, C_2v (mm2)  point group:

     e(  1 -  1) =    -17.35694  eV     1   --> A_1  D_1  S_1  
     e(  2 -  2) =    -13.59354  eV     1   --> A_1  D_1  S_1  
     e(  3 -  3) =     -8.19068  eV     1   --> B_1  D_3  S_3  
     e(  4 -  4) =     -5.15061  eV     1   --> B_2  D_4  S_4  
     e(  5 -  5) =      0.90223  eV     1   --> B_2  D_4  S_4  
     e(  6 -  6) =      5.90452  eV     1   --> A_1  D_1  S_1  
     e(  7 -  7) =      7.05119  eV     1   --> A_1  D_1  S_1  
     e(  8 -  8) =      8.14335  eV     1   --> B_2  D_4  S_4  

 **************************************************************************

 **************************************************************************

                    xk=(   0.00000,   0.44905,   0.00000  )

     Band symmetry, C_2v (mm2)  point group:

     e(  1 -  1) =    -17.85695  eV     1   --> A_1  D_1  S_1  
     e(  2 -  2) =    -12.90784  eV     1   --> A_1  D_1  S_1  
     e(  3 -  3) =     -8.06351  eV     1   --> B_1  D_3  S_3  
     e(  4 -  4) =     -5.63318  eV     1   --> B_2  D_4  S_4  
     e(  5 -  5) =      1.57821  eV     1   --> B_2  D_4  S_4  
     e(  6 -  6) =      5.93440  eV     1   --> A_1  D_1  S_1  
     e(  7 -  7) =      6.36862  eV     1   --> A_1  D_1  S_1  
     e(  8 -  8) =      7.43428  eV     1   --> B_2  D_4  S_4  

 **************************************************************************

 **************************************************************************

                    xk=(   0.00000,   0.41698,   0.00000  )

     Band symmetry, C_2v (mm2)  point group:

     e(  1 -  1) =    -18.32887  eV     1   --> A_1  D_1  S_1  
     e(  2 -  2) =    -12.19956  eV     1   --> A_1  D_1  S_1  
     e(  3 -  3) =     -7.90140  eV     1   --> B_1  D_3  S_3  
     e(  4 -  4) =     -6.12661  eV     1   --> B_2  D_4  S_4  
     e(  5 -  5) =      2.31496  eV     1   --> B_2  D_4  S_4  
     e(  6 -  6) =      5.62136  eV     1   --> A_1  D_1  S_1  
     e(  7 -  7) =      6.08805  eV     1   --> A_1  D_1  S_1  
     e(  8 -  8) =      6.76977  eV     1   --> B_2  D_4  S_4  

 **************************************************************************

 **************************************************************************

                    xk=(   0.00000,   0.38490,   0.00000  )

     Band symmetry, C_2v (mm2)  point group:

     e(  1 -  1) =    -18.77022  eV     1   --> A_1  D_1  S_1  
     e(  2 -  2) =    -11.47500  eV     1   --> A_1  D_1  S_1  
     e(  3 -  3) =     -7.70644  eV     1   --> B_1  D_3  S_3  
     e(  4 -  4) =     -6.61013  eV     1   --> B_2  D_4  S_4  
     e(  5 -  5) =      3.08501  eV     1   --> B_2  D_4  S_4  
     e(  6 -  6) =      5.02794  eV     1   --> A_1  D_1  S_1  
     e(  7 -  7) =      6.14237  eV     1   --> A_1  D_1  S_1  
     e(  8 -  8) =      6.15290  eV     1   --> B_2  D_4  S_4  

 **************************************************************************

 **************************************************************************

                    xk=(   0.00000,   0.35283,   0.00000  )

     Band symmetry, C_2v (mm2)  point group:

     e(  1 -  1) =    -19.17946  eV     1   --> A_1  D_1  S_1  
     e(  2 -  2) =    -10.74061  eV     1   --> A_1  D_1  S_1  
     e(  3 -  3) =     -7.48164  eV     1   --> B_1  D_3  S_3  
     e(  4 -  4) =     -7.07296  eV     1   --> B_2  D_4  S_4  
     e(  5 -  5) =      3.86376  eV     1   --> B_2  D_4  S_4  
     e(  6 -  6) =      4.46393  eV     1   --> A_1  D_1  S_1  
     e(  7 -  7) =      5.58915  eV     1   --> B_2  D_4  S_4  
     e(  8 -  8) =      6.07285  eV     1   --> A_1  D_1  S_1  

 **************************************************************************

 **************************************************************************

                    xk=(   0.00000,   0.32075,   0.00000  )

     Band symmetry, C_2v (mm2)  point group:

     e(  1 -  1) =    -19.55528  eV     1   --> A_1  D_1  S_1  
     e(  2 -  2) =    -10.00103  eV     1   --> A_1  D_1  S_1  
     e(  3 -  3) =     -7.50679  eV     1   --> B_2  D_4  S_4  
     e(  4 -  4) =     -7.22971  eV     1   --> B_1  D_3  S_3  
     e(  5 -  5) =      3.94519  eV     1   --> A_1  D_1  S_1  
     e(  6 -  6) =      4.59141  eV     1   --> B_2  D_4  S_4  
     e(  7 -  7) =      5.12575  eV     1   --> B_2  D_4  S_4  
     e(  8 -  8) =      5.56338  eV     1   --> A_1  D_1  S_1  

 **************************************************************************

 **************************************************************************

                    xk=(   0.00000,   0.28868,   0.00000  )

     Band symmetry, C_2v (mm2)  point group:

     e(  1 -  1) =    -19.89731  eV     1   --> A_1  D_1  S_1  
     e(  2 -  2) =     -9.26452  eV     1   --> A_1  D_1  S_1  
     e(  3 -  3) =     -7.90720  eV     1   --> B_2  D_4  S_4  
     e(  4 -  4) =     -6.95541  eV     1   --> B_1  D_3  S_3  
     e(  5 -  5) =      3.47416  eV     1   --> A_1  D_1  S_1  
     e(  6 -  6) =      4.52367  eV     1   --> B_2  D_4  S_4  
     e(  7 -  7) =      5.08088  eV     1   --> A_1  D_1  S_1  
     e(  8 -  8) =      5.49009  eV     1   --> B_2  D_4  S_4  

 **************************************************************************

 **************************************************************************

                    xk=(   0.00000,   0.25660,   0.00000  )

     Band symmetry, C_2v (mm2)  point group:

     e(  1 -  1) =    -20.20451  eV     1   --> A_1  D_1  S_1  
     e(  2 -  2) =     -8.53879  eV     1   --> A_1  D_1  S_1  
     e(  3 -  3) =     -8.27060  eV     1   --> B_2  D_4  S_4  
     e(  4 -  4) =     -6.66261  eV     1   --> B_1  D_3  S_3  
     e(  5 -  5) =      3.05182  eV     1   --> A_1  D_1  S_1  
     e(  6 -  6) =      4.11901  eV     1   --> B_2  D_4  S_4  
     e(  7 -  7) =      4.64744  eV     1   --> A_1  D_1  S_1  
     e(  8 -  8) =      6.18963  eV     1   --> B_2  D_4  S_4  

 **************************************************************************

 **************************************************************************

                    xk=(   0.00000,   0.22453,   0.00000  )

     Band symmetry, C_2v (mm2)  point group:

     e(  1 -  1) =    -20.47639  eV     1   --> A_1  D_1  S_1  
     e(  2 -  2) =     -8.59483  eV     1   --> B_2  D_4  S_4  
     e(  3 -  3) =     -7.83482  eV     1   --> A_1  D_1  S_1  
     e(  4 -  4) =     -6.35860  eV     1   --> B_1  D_3  S_3  
     e(  5 -  5) =      2.67865  eV     1   --> A_1  D_1  S_1  
     e(  6 -  6) =      3.74755  eV     1   --> B_2  D_4  S_4  
     e(  7 -  7) =      4.26452  eV     1   --> A_1  D_1  S_1  
     e(  8 -  8) =      6.15721  eV     1   --> B_2  D_4  S_4  

 **************************************************************************

 **************************************************************************

                    xk=(   0.00000,   0.19245,   0.00000  )

     Band symmetry, C_2v (mm2)  point group:

     e(  1 -  1) =    -20.71286  eV     1   --> A_1  D_1  S_1  
     e(  2 -  2) =     -8.87845  eV     1   --> B_2  D_4  S_4  
     e(  3 -  3) =     -7.16611  eV     1   --> A_1  D_1  S_1  
     e(  4 -  4) =     -6.05290  eV     1   --> B_1  D_3  S_3  
     e(  5 -  5) =      2.35490  eV     1   --> A_1  D_1  S_1  
     e(  6 -  6) =      3.42261  eV     1   --> B_2  D_4  S_4  
     e(  7 -  7) =      3.93247  eV     1   --> A_1  D_1  S_1  
     e(  8 -  8) =      5.84281  eV     1   --> B_2  D_4  S_4  

 **************************************************************************

 **************************************************************************

                    xk=(   0.00000,   0.16038,   0.00000  )

     Band symmetry, C_2v (mm2)  point group:

     e(  1 -  1) =    -20.91332  eV     1   --> A_1  D_1  S_1  
     e(  2 -  2) =     -9.11978  eV     1   --> B_2  D_4  S_4  
     e(  3 -  3) =     -6.54711  eV     1   --> A_1  D_1  S_1  
     e(  4 -  4) =     -5.75499  eV     1   --> B_1  D_3  S_3  
     e(  5 -  5) =      2.08081  eV     1   --> A_1  D_1  S_1  
     e(  6 -  6) =      3.14659  eV     1   --> B_2  D_4  S_4  
     e(  7 -  7) =      3.65144  eV     1   --> A_1  D_1  S_1  
     e(  8 -  8) =      5.57033  eV     1   --> B_2  D_4  S_4  

 **************************************************************************

 **************************************************************************

                    xk=(   0.00000,   0.12830,   0.00000  )

     Band symmetry, C_2v (mm2)  point group:

     e(  1 -  1) =    -21.07764  eV     1   --> A_1  D_1  S_1  
     e(  2 -  2) =     -9.31822  eV     1   --> B_2  D_4  S_4  
     e(  3 -  3) =     -5.99586  eV     1   --> A_1  D_1  S_1  
     e(  4 -  4) =     -5.47739  eV     1   --> B_1  D_3  S_3  
     e(  5 -  5) =      1.85649  eV     1   --> A_1  D_1  S_1  
     e(  6 -  6) =      2.92025  eV     1   --> B_2  D_4  S_4  
     e(  7 -  7) =      3.42150  eV     1   --> A_1  D_1  S_1  
     e(  8 -  8) =      5.34610  eV     1   --> B_2  D_4  S_4  

 **************************************************************************

 **************************************************************************

                    xk=(   0.00000,   0.09623,   0.00000  )

     Band symmetry, C_2v (mm2)  point group:

     e(  1 -  1) =    -21.20565  eV     1   --> A_1  D_1  S_1  
     e(  2 -  2) =     -9.47311  eV     1   --> B_2  D_4  S_4  
     e(  3 -  3) =     -5.53501  eV     1   --> A_1  D_1  S_1  
     e(  4 -  4) =     -5.23743  eV     1   --> B_1  D_3  S_3  
     e(  5 -  5) =      1.68201  eV     1   --> A_1  D_1  S_1  
     e(  6 -  6) =      2.74397  eV     1   --> B_2  D_4  S_4  
     e(  7 -  7) =      3.24266  eV     1   --> A_1  D_1  S_1  
     e(  8 -  8) =      5.17125  eV     1   --> B_2  D_4  S_4  

 **************************************************************************

 **************************************************************************

                    xk=(   0.00000,   0.06415,   0.00000  )

     Band symmetry, C_2v (mm2)  point group:

     e(  1 -  1) =    -21.29724  eV     1   --> A_1  D_1  S_1  
     e(  2 -  2) =     -9.58468  eV     1   --> B_2  D_4  S_4  
     e(  3 -  3) =     -5.18405  eV     1   --> A_1  D_1  S_1  
     e(  4 -  4) =     -5.05075  eV     1   --> B_1  D_3  S_3  
     e(  5 -  5) =      1.55741  eV     1   --> A_1  D_1  S_1  
     e(  6 -  6) =      2.61786  eV     1   --> B_2  D_4  S_4  
     e(  7 -  7) =      3.11494  eV     1   --> A_1  D_1  S_1  
     e(  8 -  8) =      5.04608  eV     1   --> B_2  D_4  S_4  

 **************************************************************************

 **************************************************************************

                    xk=(   0.00000,   0.03208,   0.00000  )

     Band symmetry, C_2v (mm2)  point group:

     e(  1 -  1) =    -21.35226  eV     1   --> A_1  D_1  S_1  
     e(  2 -  2) =     -9.65189  eV     1   --> B_2  D_4  S_4  
     e(  3 -  3) =     -4.96433  eV     1   --> A_1  D_1  S_1  
     e(  4 -  4) =     -4.93101  eV     1   --> B_1  D_3  S_3  
     e(  5 -  5) =      1.48266  eV     1   --> A_1  D_1  S_1  
     e(  6 -  6) =      2.54213  eV     1   --> B_2  D_4  S_4  
     e(  7 -  7) =      3.03831  eV     1   --> A_1  D_1  S_1  
     e(  8 -  8) =      4.97089  eV     1   --> B_2  D_4  S_4  

 **************************************************************************

 **************************************************************************

                    xk=(   0.00000,   0.00000,   0.00000  )

     point group D_6h(6/mmm)
     there are 12 classes
     the character table:

       E     2C6   2C3   C2    3C2'  3C2'' i     2S3   2S6   s_h   3s_d  3s_v 
A_1g   1.00  1.00  1.00  1.00  1.00  1.00  1.00  1.00  1.00  1.00  1.00  1.00
A_2g   1.00  1.00  1.00  1.00 -1.00 -1.00  1.00  1.00  1.00  1.00 -1.00 -1.00
B_1g   1.00 -1.00  1.00 -1.00  1.00 -1.00  1.00 -1.00  1.00 -1.00  1.00 -1.00
B_2g   1.00 -1.00  1.00 -1.00 -1.00  1.00  1.00 -1.00  1.00 -1.00 -1.00  1.00
E_1g   2.00  1.00 -1.00 -2.00  0.00  0.00  2.00  1.00 -1.00 -2.00  0.00  0.00
E_2g   2.00 -1.00 -1.00  2.00  0.00  0.00  2.00 -1.00 -1.00  2.00  0.00  0.00
A_1u   1.00  1.00  1.00  1.00  1.00  1.00 -1.00 -1.00 -1.00 -1.00 -1.00 -1.00
A_2u   1.00  1.00  1.00  1.00 -1.00 -1.00 -1.00 -1.00 -1.00 -1.00  1.00  1.00
B_1u   1.00 -1.00  1.00 -1.00  1.00 -1.00 -1.00  1.00 -1.00  1.00 -1.00  1.00
B_2u   1.00 -1.00  1.00 -1.00 -1.00  1.00 -1.00  1.00 -1.00  1.00  1.00 -1.00
E_1u   2.00  1.00 -1.00 -2.00  0.00  0.00 -2.00 -1.00  1.00  2.00  0.00  0.00
E_2u   2.00 -1.00 -1.00  2.00  0.00  0.00 -2.00  1.00  1.00 -2.00  0.00  0.00

     the symmetry operations in each class and the name of the first element:

     E        1
                                                                 
     2C6      5    6
                                                                 
     2C3      7    8
                                                                 
     C2       2
                                                                 
     3C2'     4   12   11
                                                                 
     3C2''    3    9   10
                                                                 
     i       13
                                                                 
     2S3     17   18
                                                                 
     2S6     19   20
                                                                 
     s_h     14
                                                                 
     3s_d    16   24   23
                                                                 
     3s_v    15   21   22
                                                                 

     Band symmetry, D_6h(6/mmm) point group:

     e(  1 -  1) =    -21.37054  eV     1   --> A_1g           
     e(  2 -  2) =     -9.67401  eV     1   --> A_2u           
     e(  3 -  4) =     -4.89025  eV     2   --> E_2g           
     e(  5 -  5) =      1.45776  eV     1   --> A_1g           
     e(  6 -  6) =      2.51692  eV     1   --> A_2u           
     e(  7 -  7) =      3.01278  eV     1   --> A_1g           
     e(  8 -  8) =      4.94587  eV     1   --> A_2u           

 **************************************************************************

     BANDS        :      2.56s CPU      2.62s WALL


   This run was terminated on:   6:31: 1  27Mar2024            

=------------------------------------------------------------------------------=
   JOB DONE.
=------------------------------------------------------------------------------=
