MPI startup(): Warning: I_MPI_PMI_LIBRARY will be ignored since the hydra process manager was found

     Program PROJWFC v.6.8 starts on 15Apr2024 at 13:56: 6 

     This program is part of the open-source Quantum ESPRESSO suite
     for quantum simulation of materials; please cite
         "P. Giannozzi et al., J. Phys.:Condens. Matter 21 395502 (2009);
         "P. Giannozzi et al., J. Phys.:Condens. Matter 29 465901 (2017);
         "P. Giannozzi et al., J. Chem. Phys. 152 154105 (2020);
          URL http://www.quantum-espresso.org", 
     in publications or presentations arising from this work. More details at
     http://www.quantum-espresso.org/quote

     Parallel version (MPI), running on     1 processors

     MPI processes distributed on     1 nodes
     1362798 MiB available memory on the printing compute node when the environment starts
 

     Reading xml data from directory:

     ./tmp/2L-MoS2.save/

     IMPORTANT: XC functional enforced from input :
     Exchange-correlation= VDW-DF2-B86R
                           (   1   4  26   0   2   0   0)
     Any further DFT definition will be discarded
     Please, verify this is what you really want

 
     G-vector sticks info
     --------------------
     sticks:   dense  smooth     PW     G-vecs:    dense   smooth      PW
     Sum         583     583    169                94219    94219   15095
 
     Using Slab Decomposition
 


     %%%%%%%%%%%%%%%%%%%%%%%%%%%%%%%%%%%%%%%%%%%%%%%%%%%%%%%%%%%%%%%%%%%%%%%%
     %                                                                      %
     % You are using vdW-DF, which was implemented by the Thonhauser group. %
     % Please cite the following two papers that made this development      %
     % possible and the two reviews that describe the various versions:     %
     %                                                                      %
     %   T. Thonhauser et al., PRL 115, 136402 (2015).                      %
     %   T. Thonhauser et al., PRB 76, 125112 (2007).                       %
     %   K. Berland et al., Rep. Prog. Phys. 78, 066501 (2015).             %
     %   D.C. Langreth et al., J. Phys.: Condens. Matter 21, 084203 (2009). %
     %                                                                      %
     %                                                                      %
     % If you are calculating the stress with vdW-DF, please also cite:     %
     %                                                                      %
     %   R. Sabatini et al., J. Phys.: Condens. Matter 24, 424209 (2012).   %
     %                                                                      %
     %%%%%%%%%%%%%%%%%%%%%%%%%%%%%%%%%%%%%%%%%%%%%%%%%%%%%%%%%%%%%%%%%%%%%%%%



     Gaussian broadening (default values): ngauss,degauss=   0    0.000735


     Calling projwave .... 

     Subspace diagonalization in iterative solution of the eigenvalue problem:
     a serial algorithm will be used

 
  Problem Sizes 
  natomwfc =           36
  nbnd     =           26
  nkstot   =           41
  npwx     =        11863
  nkb      =          108
 

     Atomic states used for projection
     (read from pseudopotential files):

     state #   1: atom   1 (Mo ), wfc  1 (l=0 m= 1)
     state #   2: atom   1 (Mo ), wfc  2 (l=1 m= 1)
     state #   3: atom   1 (Mo ), wfc  2 (l=1 m= 2)
     state #   4: atom   1 (Mo ), wfc  2 (l=1 m= 3)
     state #   5: atom   1 (Mo ), wfc  3 (l=2 m= 1)
     state #   6: atom   1 (Mo ), wfc  3 (l=2 m= 2)
     state #   7: atom   1 (Mo ), wfc  3 (l=2 m= 3)
     state #   8: atom   1 (Mo ), wfc  3 (l=2 m= 4)
     state #   9: atom   1 (Mo ), wfc  3 (l=2 m= 5)
     state #  10: atom   1 (Mo ), wfc  4 (l=0 m= 1)
     state #  11: atom   2 (S  ), wfc  1 (l=0 m= 1)
     state #  12: atom   2 (S  ), wfc  2 (l=1 m= 1)
     state #  13: atom   2 (S  ), wfc  2 (l=1 m= 2)
     state #  14: atom   2 (S  ), wfc  2 (l=1 m= 3)
     state #  15: atom   3 (S  ), wfc  1 (l=0 m= 1)
     state #  16: atom   3 (S  ), wfc  2 (l=1 m= 1)
     state #  17: atom   3 (S  ), wfc  2 (l=1 m= 2)
     state #  18: atom   3 (S  ), wfc  2 (l=1 m= 3)
     state #  19: atom   4 (Mo ), wfc  1 (l=0 m= 1)
     state #  20: atom   4 (Mo ), wfc  2 (l=1 m= 1)
     state #  21: atom   4 (Mo ), wfc  2 (l=1 m= 2)
     state #  22: atom   4 (Mo ), wfc  2 (l=1 m= 3)
     state #  23: atom   4 (Mo ), wfc  3 (l=2 m= 1)
     state #  24: atom   4 (Mo ), wfc  3 (l=2 m= 2)
     state #  25: atom   4 (Mo ), wfc  3 (l=2 m= 3)
     state #  26: atom   4 (Mo ), wfc  3 (l=2 m= 4)
     state #  27: atom   4 (Mo ), wfc  3 (l=2 m= 5)
     state #  28: atom   4 (Mo ), wfc  4 (l=0 m= 1)
     state #  29: atom   5 (S  ), wfc  1 (l=0 m= 1)
     state #  30: atom   5 (S  ), wfc  2 (l=1 m= 1)
     state #  31: atom   5 (S  ), wfc  2 (l=1 m= 2)
     state #  32: atom   5 (S  ), wfc  2 (l=1 m= 3)
     state #  33: atom   6 (S  ), wfc  1 (l=0 m= 1)
     state #  34: atom   6 (S  ), wfc  2 (l=1 m= 1)
     state #  35: atom   6 (S  ), wfc  2 (l=1 m= 2)
     state #  36: atom   6 (S  ), wfc  2 (l=1 m= 3)

 k =   0.0000000000  0.0000000000  0.0000000000
==== e(   1) =   -59.01174 eV ==== 
     psi = 0.917*[#  19]+0.037*[#   1]+0.019*[#  28]+0.010*[#  30]+0.010*[#  34]
          +0.003*[#  23]+0.001*[#  29]+0.001*[#  33]
    |psi|^2 = 1.000
==== e(   2) =   -59.01117 eV ==== 
     psi = 0.917*[#   1]+0.037*[#  19]+0.019*[#  10]+0.010*[#  12]+0.009*[#  16]
          +0.003*[#   5]+0.001*[#  11]+0.001*[#  15]
    |psi|^2 = 1.000
==== e(   3) =   -33.17852 eV ==== 
     psi = 0.683*[#  20]+0.296*[#   2]+0.005*[#  29]+0.005*[#  33]+0.003*[#  34]
          +0.002*[#  11]+0.002*[#  15]+0.002*[#  30]+0.001*[#  12]
    |psi|^2 = 1.000
==== e(   4) =   -33.17767 eV ==== 
     psi = 0.682*[#   2]+0.295*[#  20]+0.005*[#  11]+0.005*[#  15]+0.003*[#  16]
          +0.003*[#  12]+0.002*[#  29]+0.002*[#  33]+0.002*[#  30]+0.001*[#  34]
          
    |psi|^2 = 1.000
==== e(   5) =   -32.92767 eV ==== 
     psi = 0.576*[#  21]+0.186*[#  22]+0.178*[#   3]+0.058*[#   4]
    |psi|^2 = 1.000
==== e(   6) =   -32.92741 eV ==== 
     psi = 0.577*[#  22]+0.187*[#  21]+0.177*[#   4]+0.057*[#   3]
    |psi|^2 = 1.000
==== e(   7) =   -32.92677 eV ==== 
     psi = 0.575*[#   3]+0.187*[#   4]+0.178*[#  21]+0.058*[#  22]
    |psi|^2 = 1.000
==== e(   8) =   -32.92651 eV ==== 
     psi = 0.577*[#   4]+0.187*[#   3]+0.176*[#  22]+0.057*[#  21]
    |psi|^2 = 1.000
==== e(   9) =   -12.43182 eV ==== 
     psi = 0.217*[#  10]+0.214*[#  28]+0.162*[#  15]+0.161*[#  29]+0.108*[#  11]
          +0.107*[#  33]+0.010*[#   1]+0.010*[#  19]+0.003*[#  12]+0.003*[#  34]
          +0.001*[#   5]+0.001*[#  23]
    |psi|^2 = 0.999
==== e(  10) =   -12.29507 eV ==== 
     psi = 0.210*[#  28]+0.208*[#  10]+0.153*[#  33]+0.152*[#  11]+0.119*[#  29]
          +0.117*[#  15]+0.011*[#  19]+0.011*[#   1]+0.005*[#  16]+0.005*[#  30]
          +0.003*[#  12]+0.003*[#  34]
    |psi|^2 = 0.999
==== e(  11) =   -11.18723 eV ==== 
     psi = 0.273*[#  11]+0.272*[#  33]+0.215*[#  15]+0.213*[#  29]+0.007*[#   2]
          +0.007*[#  20]+0.004*[#  16]+0.004*[#  30]
    |psi|^2 = 0.996
==== e(  12) =   -10.97547 eV ==== 
     psi = 0.264*[#  29]+0.262*[#  15]+0.227*[#  33]+0.225*[#  11]+0.007*[#   2]
          +0.007*[#  20]+0.001*[#  16]+0.001*[#  30]
    |psi|^2 = 0.996
==== e(  13) =    -4.16280 eV ==== 
     psi = 0.185*[#  16]+0.185*[#  30]+0.148*[#   5]+0.148*[#  23]+0.107*[#  12]
          +0.107*[#  34]+0.019*[#  11]+0.019*[#  33]+0.014*[#  10]+0.014*[#  28]
          +0.012*[#   1]+0.012*[#  19]+0.009*[#  15]+0.008*[#  29]
    |psi|^2 = 0.988
==== e(  14) =    -3.64709 eV ==== 
     psi = 0.183*[#  23]+0.182*[#   5]+0.153*[#  34]+0.153*[#  12]+0.090*[#  30]
          +0.090*[#  16]+0.025*[#  15]+0.025*[#  29]+0.016*[#  10]+0.016*[#  28]
          +0.015*[#  11]+0.015*[#  33]+0.011*[#   1]+0.011*[#  19]
    |psi|^2 = 0.986
==== e(  15) =    -0.74406 eV ==== 
     psi = 0.269*[#   8]+0.240*[#  26]+0.090*[#   9]+0.080*[#  27]+0.063*[#  18]
          +0.061*[#  14]+0.056*[#  32]+0.054*[#  36]+0.021*[#  17]+0.020*[#  13]
          +0.019*[#  31]+0.018*[#  35]
    |psi|^2 = 0.991
==== e(  16) =    -0.74217 eV ==== 
     psi = 0.269*[#   9]+0.240*[#  27]+0.090*[#   8]+0.080*[#  26]+0.063*[#  17]
          +0.061*[#  13]+0.056*[#  31]+0.054*[#  35]+0.021*[#  18]+0.020*[#  14]
          +0.019*[#  32]+0.018*[#  36]
    |psi|^2 = 0.991
==== e(  17) =    -0.73816 eV ==== 
     psi = 0.270*[#  26]+0.241*[#   8]+0.090*[#  27]+0.080*[#   9]+0.062*[#  36]
          +0.060*[#  32]+0.056*[#  14]+0.054*[#  18]+0.021*[#  35]+0.020*[#  31]
          +0.019*[#  13]+0.018*[#  17]
    |psi|^2 = 0.991
==== e(  18) =    -0.73626 eV ==== 
     psi = 0.270*[#  27]+0.241*[#   9]+0.090*[#  26]+0.080*[#   8]+0.062*[#  35]
          +0.060*[#  31]+0.056*[#  13]+0.054*[#  17]+0.021*[#  36]+0.020*[#  32]
          +0.019*[#  14]+0.018*[#  18]
    |psi|^2 = 0.991
==== e(  19) =    -0.64046 eV ==== 
     psi = 0.247*[#  16]+0.246*[#  30]+0.226*[#  12]+0.226*[#  34]+0.016*[#   5]
          +0.016*[#  23]+0.004*[#   2]+0.004*[#  20]+0.003*[#  15]+0.003*[#  29]
          
    |psi|^2 = 0.992
==== e(  20) =     0.36723 eV ==== 
     psi = 0.218*[#   6]+0.209*[#  24]+0.081*[#  17]+0.080*[#  13]+0.077*[#  31]
          +0.076*[#  35]+0.073*[#   7]+0.070*[#  25]+0.027*[#  18]+0.027*[#  14]
          +0.026*[#  32]+0.025*[#  36]
    |psi|^2 = 0.988
==== e(  21) =     0.37542 eV ==== 
     psi = 0.218*[#   7]+0.209*[#  25]+0.081*[#  18]+0.080*[#  14]+0.077*[#  32]
          +0.076*[#  36]+0.073*[#   6]+0.070*[#  24]+0.027*[#  17]+0.027*[#  13]
          +0.026*[#  31]+0.025*[#  35]
    |psi|^2 = 0.988
==== e(  22) =     0.38862 eV ==== 
     psi = 0.219*[#  24]+0.210*[#   6]+0.079*[#  31]+0.078*[#  35]+0.075*[#  17]
          +0.075*[#  13]+0.073*[#  25]+0.070*[#   7]+0.026*[#  32]+0.026*[#  36]
          +0.025*[#  14]+0.025*[#  18]+0.001*[#  12]+0.001*[#  34]
    |psi|^2 = 0.987
==== e(  23) =     0.39691 eV ==== 
     psi = 0.220*[#  25]+0.211*[#   7]+0.079*[#  32]+0.079*[#  36]+0.076*[#  18]
          +0.076*[#  14]+0.073*[#  24]+0.070*[#   6]+0.026*[#  31]+0.026*[#  35]
          +0.025*[#  13]+0.025*[#  17]
    |psi|^2 = 0.987
==== e(  24) =     0.40845 eV ==== 
     psi = 0.289*[#  34]+0.289*[#  12]+0.166*[#  30]+0.166*[#  16]+0.032*[#   5]
          +0.032*[#  23]+0.003*[#   2]+0.003*[#  20]+0.001*[#   6]+0.001*[#  10]
          +0.001*[#  24]+0.001*[#  28]
    |psi|^2 = 0.990
==== e(  25) =     1.46230 eV ==== 
     psi = 0.299*[#   5]+0.299*[#  23]+0.137*[#  34]+0.136*[#  12]+0.045*[#  16]
          +0.045*[#  30]+0.002*[#  11]+0.002*[#  33]+0.002*[#  10]+0.002*[#  28]
          +0.001*[#  15]+0.001*[#  29]
    |psi|^2 = 0.970
==== e(  26) =     2.14838 eV ==== 
     psi = 0.262*[#   5]+0.262*[#  23]+0.184*[#  16]+0.184*[#  30]+0.026*[#  12]
          +0.026*[#  34]+0.011*[#  15]+0.011*[#  29]+0.006*[#  11]+0.006*[#  33]
          
    |psi|^2 = 0.981

 k =   0.0000000000  0.1283000598  0.0000000000
==== e(   1) =   -59.00662 eV ==== 
     psi = 0.958*[#  19]+0.014*[#  28]+0.010*[#  30]+0.009*[#  34]+0.003*[#  23]
          +0.001*[#   1]+0.001*[#  29]+0.001*[#  33]+0.001*[#  32]+0.001*[#  36]
          
    |psi|^2 = 1.000
==== e(   2) =   -59.00609 eV ==== 
     psi = 0.958*[#   1]+0.014*[#  10]+0.009*[#  12]+0.009*[#  16]+0.003*[#   5]
          +0.001*[#  19]+0.001*[#  11]+0.001*[#  15]+0.001*[#  14]+0.001*[#  18]
          
    |psi|^2 = 1.000
==== e(   3) =   -33.16881 eV ==== 
     psi = 0.731*[#  20]+0.247*[#   2]+0.005*[#  29]+0.005*[#  33]+0.002*[#  34]
          +0.002*[#  30]+0.002*[#  11]+0.002*[#  15]+0.001*[#  32]
    |psi|^2 = 1.000
==== e(   4) =   -33.16813 eV ==== 
     psi = 0.731*[#   2]+0.247*[#  20]+0.005*[#  11]+0.004*[#  15]+0.003*[#  16]
          +0.002*[#  12]+0.001*[#  29]+0.002*[#  33]+0.001*[#  30]
    |psi|^2 = 1.000
==== e(   5) =   -32.97587 eV ==== 
     psi = 0.985*[#  22]+0.007*[#   4]+0.003*[#  28]
    |psi|^2 = 1.000
==== e(   6) =   -32.97538 eV ==== 
     psi = 0.985*[#   4]+0.007*[#  22]+0.003*[#  10]
    |psi|^2 = 1.000
==== e(   7) =   -32.93840 eV ==== 
     psi = 0.945*[#  21]+0.052*[#   3]+0.001*[#  31]+0.001*[#  35]
    |psi|^2 = 1.000
==== e(   8) =   -32.93787 eV ==== 
     psi = 0.945*[#   3]+0.052*[#  21]+0.001*[#  13]+0.001*[#  17]
    |psi|^2 = 1.000
==== e(   9) =   -12.24389 eV ==== 
     psi = 0.200*[#  10]+0.198*[#  28]+0.169*[#  15]+0.168*[#  29]+0.112*[#  11]
          +0.110*[#  33]+0.008*[#   1]+0.008*[#  19]+0.003*[#  12]+0.003*[#  34]
          +0.003*[#  18]+0.003*[#  32]+0.002*[#   8]+0.001*[#   5]+0.002*[#  26]
          +0.001*[#  23]+0.001*[#   4]+0.001*[#  14]+0.001*[#  22]+0.001*[#  36]
          
    |psi|^2 = 0.999
==== e(  10) =   -12.10841 eV ==== 
     psi = 0.194*[#  28]+0.192*[#  10]+0.160*[#  33]+0.159*[#  11]+0.123*[#  29]
          +0.121*[#  15]+0.009*[#  19]+0.009*[#   1]+0.006*[#  16]+0.006*[#  30]
          +0.003*[#  12]+0.003*[#  34]+0.002*[#  14]+0.002*[#  36]+0.002*[#   8]
          +0.002*[#  26]+0.001*[#   4]+0.001*[#  18]+0.001*[#  22]+0.001*[#  32]
          
    |psi|^2 = 0.999
==== e(  11) =   -11.10112 eV ==== 
     psi = 0.263*[#  11]+0.262*[#  33]+0.202*[#  15]+0.200*[#  29]+0.016*[#   7]
          +0.016*[#  25]+0.007*[#   2]+0.007*[#  20]+0.004*[#  14]+0.004*[#  36]
          +0.004*[#  18]+0.004*[#  32]+0.003*[#  16]+0.003*[#  30]
    |psi|^2 = 0.997
==== e(  12) =   -10.90081 eV ==== 
     psi = 0.254*[#  29]+0.253*[#  15]+0.215*[#  33]+0.213*[#  11]+0.016*[#  25]
          +0.016*[#   7]+0.007*[#   2]+0.007*[#  20]+0.003*[#  14]+0.003*[#  18]
          +0.003*[#  32]+0.004*[#  36]+0.001*[#  16]+0.001*[#  30]
    |psi|^2 = 0.997
==== e(  13) =    -3.95180 eV ==== 
     psi = 0.191*[#  16]+0.191*[#  30]+0.139*[#   5]+0.138*[#  23]+0.106*[#  12]
          +0.106*[#  34]+0.017*[#  11]+0.017*[#  33]+0.014*[#  10]+0.014*[#  28]
          +0.009*[#   1]+0.009*[#  19]+0.008*[#  15]+0.008*[#  29]+0.006*[#   8]
          +0.006*[#  26]+0.003*[#  18]+0.003*[#  32]+0.001*[#  14]+0.001*[#  36]
          +0.001*[#   4]+0.001*[#  22]
    |psi|^2 = 0.989
==== e(  14) =    -3.43819 eV ==== 
     psi = 0.171*[#  23]+0.171*[#   5]+0.158*[#  34]+0.158*[#  12]+0.091*[#  30]
          +0.091*[#  16]+0.022*[#  15]+0.022*[#  29]+0.015*[#  10]+0.015*[#  28]
          +0.014*[#  11]+0.014*[#  33]+0.009*[#   1]+0.009*[#  19]+0.007*[#   8]
          +0.007*[#  26]+0.003*[#  14]+0.003*[#  36]+0.002*[#  18]+0.002*[#  32]
          +0.001*[#   4]+0.001*[#  22]
    |psi|^2 = 0.986
==== e(  15) =    -1.14998 eV ==== 
     psi = 0.297*[#   8]+0.281*[#  26]+0.086*[#  14]+0.082*[#  18]+0.081*[#  36]
          +0.079*[#  32]+0.012*[#  16]+0.012*[#  30]+0.010*[#  10]+0.010*[#  28]
          +0.005*[#  11]+0.005*[#  15]+0.005*[#  29]+0.005*[#  33]+0.004*[#   7]
          +0.004*[#  25]+0.004*[#  34]+0.004*[#  12]+0.001*[#   1]+0.001*[#  19]
          
    |psi|^2 = 0.989
==== e(  16) =    -1.13481 eV ==== 
     psi = 0.303*[#  26]+0.287*[#   8]+0.098*[#  36]+0.093*[#  14]+0.070*[#  32]
          +0.067*[#  18]+0.010*[#  28]+0.010*[#  10]+0.007*[#  30]+0.006*[#  16]
          +0.005*[#  33]+0.005*[#  11]+0.005*[#  29]+0.005*[#  15]+0.003*[#  12]
          +0.003*[#  34]+0.002*[#   7]+0.002*[#  25]+0.001*[#   5]+0.001*[#  23]
          +0.001*[#   1]+0.001*[#  19]
    |psi|^2 = 0.988
==== e(  17) =    -1.04823 eV ==== 
     psi = 0.162*[#  12]+0.162*[#  34]+0.136*[#  16]+0.136*[#  30]+0.098*[#   7]
          +0.098*[#  25]+0.051*[#  18]+0.051*[#  32]+0.016*[#   8]+0.016*[#  26]
          +0.016*[#  14]+0.016*[#  36]+0.010*[#   5]+0.010*[#  23]+0.002*[#  10]
          +0.002*[#  28]+0.002*[#  11]+0.002*[#  15]+0.002*[#  29]+0.002*[#  33]
          +0.001*[#   2]+0.001*[#  20]
    |psi|^2 = 0.994
==== e(  18) =    -0.54924 eV ==== 
     psi = 0.332*[#   9]+0.310*[#  27]+0.093*[#  17]+0.087*[#  31]+0.087*[#  13]
          +0.081*[#  35]
    |psi|^2 = 0.990
==== e(  19) =    -0.53865 eV ==== 
     psi = 0.334*[#  27]+0.312*[#   9]+0.091*[#  35]+0.086*[#  31]+0.086*[#  13]
          +0.080*[#  17]
    |psi|^2 = 0.990
==== e(  20) =    -0.47532 eV ==== 
     psi = 0.186*[#  25]+0.185*[#   7]+0.081*[#  34]+0.081*[#  12]+0.074*[#  36]
          +0.074*[#  14]+0.072*[#  18]+0.072*[#  32]+0.070*[#  30]+0.070*[#  16]
          +0.007*[#   5]+0.007*[#  23]+0.003*[#  15]+0.003*[#  29]
    |psi|^2 = 0.988
==== e(  21) =     0.08148 eV ==== 
     psi = 0.283*[#   6]+0.272*[#  24]+0.111*[#  13]+0.110*[#  17]+0.107*[#  35]
          +0.105*[#  31]
    |psi|^2 = 0.989
==== e(  22) =     0.10683 eV ==== 
     psi = 0.286*[#  24]+0.276*[#   6]+0.110*[#  31]+0.107*[#  35]+0.106*[#  17]
          +0.103*[#  13]
    |psi|^2 = 0.988
==== e(  23) =     0.53765 eV ==== 
     psi = 0.123*[#   7]+0.123*[#  25]+0.106*[#  18]+0.106*[#  32]+0.099*[#  14]
          +0.099*[#  36]+0.091*[#  16]+0.090*[#  30]+0.057*[#  12]+0.057*[#  34]
          +0.011*[#  23]+0.011*[#   5]+0.002*[#   2]+0.002*[#  20]+0.001*[#  15]
          +0.001*[#  29]
    |psi|^2 = 0.980
==== e(  24) =     0.90251 eV ==== 
     psi = 0.198*[#  12]+0.198*[#  34]+0.091*[#  30]+0.091*[#  16]+0.070*[#  36]
          +0.070*[#  14]+0.059*[#  32]+0.058*[#  18]+0.039*[#  25]+0.039*[#   7]
          +0.031*[#   5]+0.031*[#  23]+0.003*[#   2]+0.003*[#  20]
    |psi|^2 = 0.984
==== e(  25) =     1.43570 eV ==== 
     psi = 0.295*[#  23]+0.295*[#   5]+0.126*[#  34]+0.126*[#  12]+0.035*[#  16]
          +0.035*[#  30]+0.012*[#  14]+0.012*[#  36]+0.010*[#   8]+0.010*[#  26]
          +0.004*[#  11]+0.004*[#  33]+0.002*[#  15]+0.002*[#  29]+0.001*[#  10]
          +0.001*[#  28]
    |psi|^2 = 0.973
==== e(  26) =     1.92135 eV ==== 
     psi = 0.240*[#  23]+0.240*[#   5]+0.155*[#  16]+0.155*[#  30]+0.029*[#  18]
          +0.029*[#  32]+0.024*[#   8]+0.024*[#  26]+0.017*[#  12]+0.017*[#  34]
          +0.016*[#  15]+0.016*[#  29]+0.007*[#  11]+0.007*[#  33]+0.002*[#  14]
          +0.002*[#  36]
    |psi|^2 = 0.985

 k =   0.0000000000  0.2566001196  0.0000000000
==== e(   1) =   -58.99389 eV ==== 
     psi = 0.969*[#  19]+0.008*[#  30]+0.008*[#  34]+0.004*[#  32]+0.004*[#  36]
          +0.003*[#  28]+0.002*[#  29]+0.002*[#  33]+0.001*[#  26]
    |psi|^2 = 1.000
==== e(   2) =   -58.99336 eV ==== 
     psi = 0.969*[#   1]+0.008*[#  12]+0.008*[#  16]+0.004*[#  14]+0.004*[#  18]
          +0.003*[#  10]+0.002*[#  11]+0.002*[#  15]+0.001*[#   8]
    |psi|^2 = 1.000
==== e(   3) =   -33.14392 eV ==== 
     psi = 0.889*[#  20]+0.090*[#   2]+0.003*[#  29]+0.003*[#  32]+0.003*[#  33]
          +0.003*[#  36]+0.002*[#  30]+0.002*[#  34]+0.001*[#  25]
    |psi|^2 = 1.000
==== e(   4) =   -33.14350 eV ==== 
     psi = 0.888*[#   2]+0.090*[#  20]+0.003*[#  11]+0.003*[#  14]+0.003*[#  15]
          +0.003*[#  18]+0.002*[#  12]+0.002*[#  16]+0.001*[#   7]
    |psi|^2 = 1.000
==== e(   5) =   -33.09935 eV ==== 
     psi = 0.963*[#  22]+0.017*[#   4]+0.008*[#  28]+0.003*[#  30]+0.003*[#  34]
          +0.001*[#  23]
    |psi|^2 = 1.000
==== e(   6) =   -33.09887 eV ==== 
     psi = 0.963*[#   4]+0.017*[#  22]+0.008*[#  10]+0.003*[#  12]+0.003*[#  16]
          +0.001*[#   5]
    |psi|^2 = 1.000
==== e(   7) =   -32.96626 eV ==== 
     psi = 0.986*[#  21]+0.009*[#   3]+0.002*[#  31]+0.002*[#  35]
    |psi|^2 = 1.000
==== e(   8) =   -32.96578 eV ==== 
     psi = 0.986*[#   3]+0.009*[#  21]+0.002*[#  13]+0.002*[#  17]
    |psi|^2 = 1.000
==== e(   9) =   -11.73016 eV ==== 
     psi = 0.192*[#  15]+0.190*[#  29]+0.153*[#  10]+0.151*[#  28]+0.122*[#  11]
          +0.120*[#  33]+0.008*[#  18]+0.008*[#  32]+0.008*[#   8]+0.008*[#  26]
          +0.005*[#   1]+0.005*[#  19]+0.004*[#  14]+0.004*[#  36]+0.004*[#   4]
          +0.004*[#  22]+0.003*[#  12]+0.003*[#  34]+0.002*[#   5]+0.002*[#  23]
          +0.001*[#  16]+0.001*[#  30]
    |psi|^2 = 0.999
==== e(  10) =   -11.60150 eV ==== 
     psi = 0.181*[#  33]+0.179*[#  11]+0.147*[#  28]+0.145*[#  10]+0.136*[#  29]
          +0.133*[#  15]+0.008*[#   8]+0.008*[#  26]+0.007*[#  14]+0.007*[#  36]
          +0.006*[#  16]+0.006*[#  30]+0.005*[#   1]+0.005*[#  19]+0.004*[#  18]
          +0.004*[#  32]+0.004*[#   4]+0.004*[#  22]+0.004*[#  12]+0.004*[#  34]
          +0.001*[#   5]+0.001*[#  23]
    |psi|^2 = 0.999
==== e(  11) =   -10.86645 eV ==== 
     psi = 0.250*[#  11]+0.248*[#  33]+0.177*[#  15]+0.174*[#  29]+0.049*[#   7]
          +0.048*[#  25]+0.010*[#  14]+0.009*[#  36]+0.008*[#  18]+0.008*[#  32]
          +0.006*[#   2]+0.006*[#  20]+0.001*[#  16]+0.001*[#  30]+0.001*[#  10]
          +0.001*[#  28]
    |psi|^2 = 0.999
==== e(  12) =   -10.69956 eV ==== 
     psi = 0.239*[#  29]+0.237*[#  15]+0.191*[#  33]+0.189*[#  11]+0.050*[#  25]
          +0.049*[#   7]+0.007*[#  18]+0.007*[#  32]+0.007*[#  14]+0.007*[#  36]
          +0.006*[#   2]+0.006*[#  20]+0.001*[#  16]+0.001*[#  30]
    |psi|^2 = 0.999
==== e(  13) =    -3.51440 eV ==== 
     psi = 0.182*[#  16]+0.182*[#  30]+0.102*[#   5]+0.102*[#  23]+0.091*[#  12]
          +0.090*[#  34]+0.059*[#   8]+0.058*[#  26]+0.023*[#  18]+0.023*[#  32]
          +0.012*[#  14]+0.011*[#  36]+0.008*[#  11]+0.008*[#  33]+0.006*[#  10]
          +0.006*[#  28]+0.004*[#  15]+0.004*[#  29]+0.004*[#   1]+0.004*[#  19]
          +0.003*[#   4]+0.003*[#  22]+0.002*[#   7]+0.002*[#  25]
    |psi|^2 = 0.990
==== e(  14) =    -3.06583 eV ==== 
     psi = 0.138*[#  34]+0.138*[#  12]+0.117*[#  23]+0.116*[#   5]+0.086*[#  26]
          +0.086*[#   8]+0.076*[#  30]+0.075*[#  16]+0.030*[#  14]+0.030*[#  36]
          +0.019*[#  18]+0.019*[#  32]+0.010*[#  15]+0.010*[#  29]+0.007*[#  11]
          +0.007*[#  33]+0.005*[#  10]+0.005*[#  28]+0.003*[#   1]+0.003*[#  19]
          +0.003*[#   4]+0.003*[#  22]+0.001*[#   7]+0.001*[#  25]
    |psi|^2 = 0.987
==== e(  15) =    -1.95460 eV ==== 
     psi = 0.145*[#   8]+0.144*[#  26]+0.104*[#  14]+0.103*[#  36]+0.088*[#  18]
          +0.088*[#  32]+0.064*[#  16]+0.064*[#  30]+0.026*[#  10]+0.026*[#   7]
          +0.026*[#  25]+0.026*[#  28]+0.018*[#  15]+0.018*[#  29]+0.009*[#  11]
          +0.009*[#  33]+0.005*[#   5]+0.005*[#  23]+0.003*[#   1]+0.003*[#  19]
          +0.003*[#  12]+0.003*[#  34]+0.001*[#   4]+0.001*[#  22]
    |psi|^2 = 0.986
==== e(  16) =    -1.84402 eV ==== 
     psi = 0.136*[#  26]+0.136*[#   8]+0.111*[#  14]+0.110*[#  36]+0.070*[#  18]
          +0.070*[#  32]+0.049*[#  12]+0.048*[#  34]+0.034*[#  10]+0.034*[#  28]
          +0.024*[#   5]+0.024*[#  23]+0.022*[#  11]+0.022*[#  33]+0.017*[#  30]
          +0.016*[#  16]+0.014*[#  15]+0.014*[#  29]+0.011*[#   7]+0.011*[#  25]
          +0.004*[#   1]+0.004*[#  19]+0.002*[#   4]+0.002*[#  22]
    |psi|^2 = 0.985
==== e(  17) =    -1.74248 eV ==== 
     psi = 0.126*[#  32]+0.126*[#  18]+0.123*[#  34]+0.122*[#  12]+0.110*[#   7]
          +0.110*[#  25]+0.042*[#  36]+0.042*[#  14]+0.028*[#  26]+0.027*[#   8]
          +0.023*[#  16]+0.022*[#  30]+0.014*[#  33]+0.014*[#  11]+0.014*[#  23]
          +0.014*[#   5]+0.010*[#  28]+0.010*[#  10]+0.003*[#  15]+0.003*[#  29]
          +0.001*[#   1]+0.001*[#  19]
    |psi|^2 = 0.990
==== e(  18) =    -1.41616 eV ==== 
     psi = 0.151*[#  25]+0.151*[#   7]+0.129*[#  36]+0.129*[#  14]+0.105*[#  18]
          +0.105*[#  32]+0.058*[#  30]+0.058*[#  16]+0.020*[#  34]+0.020*[#  12]
          +0.012*[#  15]+0.012*[#  29]+0.009*[#   5]+0.009*[#  23]+0.003*[#  10]
          +0.003*[#  28]+0.003*[#   8]+0.003*[#  26]+0.002*[#  11]+0.002*[#  33]
          
    |psi|^2 = 0.986
==== e(  19) =    -0.50257 eV ==== 
     psi = 0.271*[#   6]+0.262*[#  24]+0.125*[#  17]+0.122*[#  31]+0.107*[#  13]
          +0.103*[#  35]
    |psi|^2 = 0.991
==== e(  20) =    -0.47105 eV ==== 
     psi = 0.275*[#  24]+0.266*[#   6]+0.121*[#  35]+0.118*[#  13]+0.107*[#  31]
          +0.103*[#  17]
    |psi|^2 = 0.990
==== e(  21) =    -0.04727 eV ==== 
     psi = 0.262*[#   9]+0.253*[#  27]+0.126*[#  13]+0.122*[#  35]+0.113*[#  17]
          +0.108*[#  31]+0.002*[#   3]+0.002*[#  21]
    |psi|^2 = 0.987
==== e(  22) =    -0.02202 eV ==== 
     psi = 0.267*[#  27]+0.258*[#   9]+0.122*[#  31]+0.118*[#  17]+0.111*[#  35]
          +0.107*[#  13]+0.002*[#   3]+0.002*[#  21]
    |psi|^2 = 0.987
==== e(  23) =     0.36116 eV ==== 
     psi = 0.140*[#  16]+0.139*[#  30]+0.120*[#  12]+0.120*[#  34]+0.106*[#  18]
          +0.105*[#  32]+0.093*[#  14]+0.092*[#  36]+0.011*[#   7]+0.011*[#  25]
          +0.008*[#  23]+0.008*[#   5]+0.005*[#  15]+0.005*[#  29]+0.004*[#   2]
          +0.004*[#  11]+0.004*[#  20]+0.004*[#  33]
    |psi|^2 = 0.984
==== e(  24) =     0.71592 eV ==== 
     psi = 0.184*[#  34]+0.184*[#  12]+0.125*[#  30]+0.124*[#  16]+0.083*[#  36]
          +0.083*[#  14]+0.063*[#  32]+0.062*[#  18]+0.018*[#   5]+0.018*[#  23]
          +0.007*[#  11]+0.007*[#  33]+0.006*[#  15]+0.006*[#  29]+0.004*[#   2]
          +0.004*[#  20]+0.004*[#   7]+0.004*[#  25]+0.001*[#   8]+0.001*[#  26]
          
    |psi|^2 = 0.988
==== e(  25) =     1.11877 eV ==== 
     psi = 0.254*[#   5]+0.253*[#  23]+0.084*[#   8]+0.083*[#  26]+0.070*[#  34]
          +0.069*[#  12]+0.029*[#  36]+0.029*[#  14]+0.025*[#  16]+0.025*[#  30]
          +0.011*[#  18]+0.011*[#  32]+0.010*[#  11]+0.010*[#  33]+0.005*[#  15]
          +0.005*[#  29]+0.002*[#  10]+0.002*[#  28]
    |psi|^2 = 0.981
==== e(  26) =     1.21233 eV ==== 
     psi = 0.211*[#  23]+0.210*[#   5]+0.106*[#  26]+0.105*[#   8]+0.077*[#  16]
          +0.077*[#  30]+0.040*[#  18]+0.040*[#  32]+0.017*[#  15]+0.017*[#  29]
          +0.016*[#  34]+0.016*[#  12]+0.012*[#  36]+0.012*[#  14]+0.007*[#  11]
          +0.007*[#  33]+0.004*[#  10]+0.004*[#  28]+0.002*[#   7]+0.002*[#  25]
          
    |psi|^2 = 0.986

 k =   0.0000000000  0.3849001795  0.0000000000
==== e(   1) =   -58.97937 eV ==== 
     psi = 0.968*[#  19]+0.007*[#  32]+0.007*[#  36]+0.005*[#  30]+0.005*[#  34]
          +0.004*[#  26]+0.002*[#  28]+0.001*[#  29]+0.001*[#  33]
    |psi|^2 = 1.000
==== e(   2) =   -58.97884 eV ==== 
     psi = 0.968*[#   1]+0.007*[#  14]+0.007*[#  18]+0.005*[#  12]+0.005*[#  16]
          +0.004*[#   8]+0.002*[#  10]+0.001*[#  11]+0.001*[#  15]
    |psi|^2 = 1.000
==== e(   3) =   -33.23678 eV ==== 
     psi = 0.930*[#  22]+0.042*[#   4]+0.007*[#  28]+0.005*[#  30]+0.005*[#  34]
          +0.002*[#  29]+0.002*[#  33]+0.001*[#  23]+0.001*[#  32]+0.001*[#  36]
          
    |psi|^2 = 1.000
==== e(   4) =   -33.23628 eV ==== 
     psi = 0.930*[#   4]+0.042*[#  22]+0.007*[#  10]+0.005*[#  12]+0.005*[#  16]
          +0.002*[#  11]+0.002*[#  15]+0.001*[#   5]+0.001*[#  14]+0.001*[#  18]
          
    |psi|^2 = 1.000
==== e(   5) =   -33.11595 eV ==== 
     psi = 0.752*[#  20]+0.230*[#   2]+0.004*[#  32]+0.004*[#  36]+0.001*[#  18]
          +0.001*[#  29]+0.001*[#  33]+0.001*[#  14]
    |psi|^2 = 1.000
==== e(   6) =   -33.11530 eV ==== 
     psi = 0.752*[#   2]+0.230*[#  20]+0.004*[#  14]+0.004*[#  18]+0.001*[#  11]
          +0.001*[#  15]+0.001*[#  32]+0.001*[#  36]+0.001*[#  12]+0.001*[#  16]
          
    |psi|^2 = 1.000
==== e(   7) =   -32.99783 eV ==== 
     psi = 0.993*[#  21]+0.003*[#  31]+0.003*[#  35]+0.001*[#   3]
    |psi|^2 = 1.000
==== e(   8) =   -32.99736 eV ==== 
     psi = 0.993*[#   3]+0.003*[#  13]+0.003*[#  17]+0.001*[#  21]
    |psi|^2 = 1.000
==== e(   9) =   -11.05019 eV ==== 
     psi = 0.234*[#  15]+0.233*[#  29]+0.131*[#  11]+0.128*[#  33]+0.084*[#  10]
          +0.083*[#  28]+0.021*[#   8]+0.020*[#  26]+0.010*[#  18]+0.010*[#  32]
          +0.005*[#   4]+0.005*[#  22]+0.005*[#  14]+0.005*[#  36]+0.004*[#  12]
          +0.004*[#  34]+0.002*[#  16]+0.002*[#  30]+0.002*[#   1]+0.002*[#   5]
          +0.002*[#  19]+0.002*[#  23]+0.001*[#   7]+0.001*[#  25]
    |psi|^2 = 0.999
==== e(  10) =   -10.94196 eV ==== 
     psi = 0.216*[#  33]+0.215*[#  11]+0.152*[#  29]+0.148*[#  15]+0.080*[#  28]
          +0.079*[#  10]+0.022*[#  26]+0.021*[#   8]+0.008*[#  14]+0.008*[#  36]
          +0.006*[#  16]+0.007*[#  30]+0.006*[#   4]+0.006*[#  22]+0.005*[#  12]
          +0.005*[#  34]+0.004*[#  32]+0.004*[#  18]+0.002*[#   1]+0.002*[#  19]
          +0.001*[#   5]+0.001*[#  23]
    |psi|^2 = 0.999
==== e(  11) =   -10.56099 eV ==== 
     psi = 0.254*[#  11]+0.253*[#  33]+0.149*[#  15]+0.145*[#  29]+0.080*[#   7]
          +0.079*[#  25]+0.008*[#  14]+0.008*[#  36]+0.006*[#  18]+0.006*[#  32]
          +0.003*[#   2]+0.003*[#  20]+0.001*[#  10]+0.001*[#  28]
    |psi|^2 = 0.999
==== e(  12) =   -10.44654 eV ==== 
     psi = 0.236*[#  29]+0.234*[#  15]+0.169*[#  33]+0.166*[#  11]+0.082*[#  25]
          +0.081*[#   7]+0.005*[#  18]+0.005*[#  32]+0.005*[#  36]+0.005*[#  14]
          +0.003*[#   2]+0.003*[#  20]+0.002*[#  16]+0.002*[#  30]
    |psi|^2 = 0.999
==== e(  13) =    -3.59265 eV ==== 
     psi = 0.152*[#   8]+0.151*[#  26]+0.113*[#  18]+0.113*[#  32]+0.075*[#  14]
          +0.075*[#  36]+0.064*[#  16]+0.064*[#  30]+0.034*[#   5]+0.034*[#  23]
          +0.030*[#  12]+0.030*[#  34]+0.010*[#  10]+0.010*[#  28]+0.007*[#  11]
          +0.007*[#  33]+0.004*[#  15]+0.004*[#  29]+0.003*[#   1]+0.003*[#  19]
          +0.002*[#   7]+0.002*[#  25]+0.001*[#   4]+0.001*[#  22]
    |psi|^2 = 0.988
==== e(  14) =    -3.38733 eV ==== 
     psi = 0.163*[#  26]+0.162*[#   8]+0.120*[#  36]+0.120*[#  14]+0.097*[#  32]
          +0.096*[#  18]+0.033*[#  34]+0.033*[#  12]+0.031*[#  23]+0.030*[#   5]
          +0.019*[#  30]+0.018*[#  16]+0.014*[#  10]+0.014*[#  28]+0.008*[#  15]
          +0.008*[#  29]+0.006*[#  11]+0.006*[#  33]+0.003*[#   1]+0.003*[#  19]
          +0.001*[#   4]+0.001*[#  22]
    |psi|^2 = 0.987
==== e(  15) =    -2.62816 eV ==== 
     psi = 0.132*[#  14]+0.132*[#  36]+0.131*[#  18]+0.131*[#  32]+0.095*[#   7]
          +0.095*[#  25]+0.094*[#  16]+0.094*[#  30]+0.019*[#  15]+0.019*[#  29]
          +0.006*[#  10]+0.006*[#  28]+0.006*[#  12]+0.006*[#  34]+0.005*[#   5]
          +0.005*[#  23]+0.004*[#   8]+0.005*[#  26]+0.001*[#   2]+0.001*[#  20]
          
    |psi|^2 = 0.991
==== e(  16) =    -2.40349 eV ==== 
     psi = 0.164*[#  18]+0.164*[#  32]+0.147*[#  14]+0.147*[#  36]+0.095*[#   7]
          +0.096*[#  25]+0.054*[#  12]+0.053*[#  34]+0.018*[#  11]+0.018*[#  33]
          +0.006*[#   5]+0.006*[#  23]+0.004*[#  15]+0.004*[#  29]+0.003*[#  10]
          +0.003*[#  28]+0.002*[#   2]+0.002*[#  20]
    |psi|^2 = 0.988
==== e(  17) =    -2.18293 eV ==== 
     psi = 0.122*[#  12]+0.122*[#  34]+0.101*[#  36]+0.100*[#  14]+0.063*[#  16]
          +0.063*[#  30]+0.055*[#   5]+0.055*[#  23]+0.043*[#  32]+0.043*[#  18]
          +0.035*[#  11]+0.035*[#  33]+0.023*[#  10]+0.023*[#  28]+0.021*[#  25]
          +0.020*[#   7]+0.013*[#   8]+0.013*[#  26]+0.010*[#  15]+0.010*[#  29]
          +0.004*[#   4]+0.004*[#  22]+0.003*[#   1]+0.003*[#  19]
    |psi|^2 = 0.984
==== e(  18) =    -1.90548 eV ==== 
     psi = 0.100*[#  30]+0.100*[#  16]+0.094*[#  34]+0.094*[#  12]+0.083*[#  23]
          +0.082*[#   5]+0.072*[#  18]+0.072*[#  32]+0.043*[#  36]+0.042*[#  14]
          +0.035*[#  15]+0.035*[#  29]+0.023*[#  28]+0.023*[#  10]+0.015*[#  33]
          +0.015*[#  11]+0.011*[#   8]+0.012*[#  26]+0.008*[#   7]+0.008*[#  25]
          +0.004*[#   4]+0.004*[#  22]+0.003*[#   1]+0.003*[#  19]
    |psi|^2 = 0.981
==== e(  19) =    -1.02243 eV ==== 
     psi = 0.264*[#   6]+0.257*[#  24]+0.125*[#  17]+0.122*[#  31]+0.114*[#  13]
          +0.110*[#  35]
    |psi|^2 = 0.992
==== e(  20) =    -0.98684 eV ==== 
     psi = 0.269*[#  24]+0.261*[#   6]+0.121*[#  35]+0.118*[#  13]+0.113*[#  31]
          +0.110*[#  17]
    |psi|^2 = 0.992
==== e(  21) =    -0.04633 eV ==== 
     psi = 0.168*[#  16]+0.167*[#  30]+0.138*[#  12]+0.138*[#  34]+0.071*[#  18]
          +0.071*[#  32]+0.053*[#  14]+0.053*[#  36]+0.030*[#   7]+0.030*[#  25]
          +0.013*[#  15]+0.013*[#  29]+0.010*[#  11]+0.010*[#  33]+0.005*[#   8]
          +0.006*[#  26]+0.004*[#   2]+0.004*[#  20]+0.003*[#   5]+0.003*[#  23]
          
    |psi|^2 = 0.990
==== e(  22) =     0.22104 eV ==== 
     psi = 0.177*[#  34]+0.177*[#  12]+0.141*[#  30]+0.140*[#  16]+0.062*[#  36]
          +0.062*[#  14]+0.045*[#  32]+0.045*[#  18]+0.037*[#  25]+0.037*[#   7]
          +0.012*[#  11]+0.012*[#  33]+0.011*[#  15]+0.011*[#  29]+0.005*[#   8]
          +0.005*[#  26]+0.003*[#   2]+0.003*[#  20]+0.003*[#   5]+0.003*[#  23]
          
    |psi|^2 = 0.992
==== e(  23) =     0.51383 eV ==== 
     psi = 0.176*[#  13]+0.172*[#  17]+0.172*[#  35]+0.168*[#  31]+0.147*[#   9]
          +0.144*[#  27]+0.003*[#   3]+0.002*[#  21]
    |psi|^2 = 0.984
==== e(  24) =     0.57052 eV ==== 
     psi = 0.172*[#  31]+0.168*[#  35]+0.168*[#  17]+0.164*[#  13]+0.155*[#  27]
          +0.151*[#   9]+0.002*[#   3]+0.003*[#  21]
    |psi|^2 = 0.983
==== e(  25) =     0.72157 eV ==== 
     psi = 0.176*[#   5]+0.175*[#  23]+0.159*[#   8]+0.159*[#  26]+0.075*[#  34]
          +0.075*[#  12]+0.027*[#  16]+0.027*[#  30]+0.020*[#  10]+0.019*[#  28]
          +0.018*[#  14]+0.018*[#  36]+0.006*[#  11]+0.006*[#  33]+0.004*[#  18]
          +0.004*[#  32]+0.003*[#  15]+0.003*[#  29]+0.002*[#   4]+0.002*[#  22]
          
    |psi|^2 = 0.979
==== e(  26) =     0.84563 eV ==== 
     psi = 0.199*[#  23]+0.198*[#   5]+0.140*[#  26]+0.139*[#   8]+0.072*[#  16]
          +0.072*[#  30]+0.029*[#  34]+0.028*[#  12]+0.020*[#  10]+0.021*[#  28]
          +0.015*[#  18]+0.015*[#  32]+0.006*[#  15]+0.006*[#  29]+0.004*[#  11]
          +0.004*[#  14]+0.004*[#  33]+0.004*[#  36]+0.002*[#   4]+0.002*[#  22]
          +0.001*[#   7]+0.001*[#  25]
    |psi|^2 = 0.980

 k =   0.0000000000  0.5132002393  0.0000000000
==== e(   1) =   -58.97001 eV ==== 
     psi = 0.954*[#  19]+0.017*[#  28]+0.008*[#  32]+0.008*[#  36]+0.007*[#  26]
          +0.002*[#   1]+0.002*[#  30]+0.002*[#  34]
    |psi|^2 = 1.000
==== e(   2) =   -58.96948 eV ==== 
     psi = 0.954*[#   1]+0.017*[#  10]+0.008*[#  14]+0.008*[#  18]+0.007*[#   8]
          +0.002*[#  19]+0.002*[#  12]+0.002*[#  16]
    |psi|^2 = 1.000
==== e(   3) =   -33.32569 eV ==== 
     psi = 0.923*[#  22]+0.049*[#   4]+0.007*[#  30]+0.007*[#  34]+0.004*[#  29]
          +0.004*[#  33]+0.002*[#  32]+0.002*[#  36]+0.001*[#  28]
    |psi|^2 = 1.000
==== e(   4) =   -33.32520 eV ==== 
     psi = 0.923*[#   4]+0.049*[#  22]+0.007*[#  12]+0.007*[#  16]+0.004*[#  11]
          +0.004*[#  15]+0.002*[#  14]+0.002*[#  18]+0.001*[#  10]
    |psi|^2 = 1.000
==== e(   5) =   -33.09736 eV ==== 
     psi = 0.945*[#  20]+0.039*[#   2]+0.006*[#  32]+0.006*[#  36]
    |psi|^2 = 1.000
==== e(   6) =   -33.09698 eV ==== 
     psi = 0.945*[#   2]+0.039*[#  20]+0.006*[#  14]+0.006*[#  18]
    |psi|^2 = 1.000
==== e(   7) =   -33.01889 eV ==== 
     psi = 0.980*[#  21]+0.014*[#   3]+0.003*[#  31]+0.003*[#  35]
    |psi|^2 = 1.000
==== e(   8) =   -33.01841 eV ==== 
     psi = 0.980*[#   3]+0.014*[#  21]+0.003*[#  13]+0.003*[#  17]
    |psi|^2 = 1.000
==== e(   9) =   -10.51140 eV ==== 
     psi = 0.299*[#  15]+0.297*[#  29]+0.119*[#  11]+0.115*[#  33]+0.034*[#   8]
          +0.034*[#  26]+0.025*[#  10]+0.025*[#  28]+0.005*[#  25]+0.005*[#   4]
          +0.005*[#   7]+0.005*[#  22]+0.005*[#  12]+0.004*[#  34]+0.004*[#  16]
          +0.004*[#  30]+0.003*[#  18]+0.003*[#  32]+0.002*[#   5]+0.002*[#  23]
          
    |psi|^2 = 0.997
==== e(  10) =   -10.44042 eV ==== 
     psi = 0.260*[#  11]+0.256*[#  33]+0.161*[#  29]+0.153*[#  15]+0.036*[#  26]
          +0.036*[#   8]+0.023*[#  28]+0.023*[#  10]+0.006*[#  16]+0.007*[#  30]
          +0.006*[#  12]+0.006*[#  34]+0.005*[#   4]+0.006*[#  22]+0.002*[#   7]
          +0.002*[#  14]+0.002*[#  36]+0.001*[#  25]+0.001*[#   5]+0.001*[#  23]
          
    |psi|^2 = 0.997
==== e(  11) =   -10.32501 eV ==== 
     psi = 0.288*[#  11]+0.288*[#  33]+0.112*[#  15]+0.103*[#  29]+0.097*[#   7]
          +0.094*[#  25]+0.002*[#  26]+0.002*[#   8]+0.002*[#  12]+0.002*[#  34]
          +0.002*[#  14]+0.002*[#  36]+0.001*[#  28]
    |psi|^2 = 0.999
==== e(  12) =   -10.27111 eV ==== 
     psi = 0.249*[#  29]+0.245*[#  15]+0.150*[#  33]+0.142*[#  11]+0.102*[#  25]
          +0.099*[#   7]+0.002*[#  16]+0.002*[#  30]+0.001*[#  18]+0.001*[#  32]
          
    |psi|^2 = 0.999
==== e(  13) =    -4.04777 eV ==== 
     psi = 0.182*[#  18]+0.181*[#  32]+0.134*[#  14]+0.132*[#  36]+0.091*[#   8]
          +0.090*[#  26]+0.034*[#  10]+0.034*[#  28]+0.016*[#   5]+0.016*[#  23]
          +0.011*[#  16]+0.011*[#  30]+0.010*[#  11]+0.010*[#  33]+0.007*[#  15]
          +0.007*[#  29]+0.006*[#  12]+0.006*[#  34]+0.005*[#   1]+0.005*[#  19]
          +0.001*[#   4]+0.001*[#  22]
    |psi|^2 = 0.988
==== e(  14) =    -3.89263 eV ==== 
     psi = 0.172*[#  36]+0.172*[#  14]+0.150*[#  32]+0.148*[#  18]+0.087*[#  26]
          +0.087*[#   8]+0.034*[#  28]+0.034*[#  10]+0.017*[#  23]+0.017*[#   5]
          +0.011*[#  15]+0.011*[#  29]+0.009*[#  33]+0.009*[#  11]+0.005*[#  12]
          +0.005*[#  34]+0.005*[#   1]+0.005*[#  19]+0.003*[#  16]+0.003*[#  30]
          +0.002*[#   4]+0.002*[#  22]
    |psi|^2 = 0.986
==== e(  15) =    -3.11261 eV ==== 
     psi = 0.191*[#  18]+0.189*[#  32]+0.142*[#  14]+0.140*[#  36]+0.082*[#   7]
          +0.081*[#  25]+0.049*[#  16]+0.049*[#  30]+0.015*[#  15]+0.015*[#  29]
          +0.007*[#  11]+0.007*[#  33]+0.004*[#   2]+0.004*[#  20]+0.003*[#   8]
          +0.003*[#  26]+0.003*[#   5]+0.003*[#  23]+0.003*[#  12]+0.002*[#  34]
          
    |psi|^2 = 0.993
==== e(  16) =    -2.96844 eV ==== 
     psi = 0.218*[#  36]+0.216*[#  14]+0.158*[#  32]+0.157*[#  18]+0.072*[#  25]
          +0.071*[#   7]+0.017*[#  12]+0.016*[#  34]+0.014*[#  11]+0.014*[#  33]
          +0.011*[#  29]+0.011*[#  15]+0.005*[#   2]+0.005*[#  20]+0.002*[#   5]
          +0.002*[#  23]
    |psi|^2 = 0.991
==== e(  17) =    -2.38915 eV ==== 
     psi = 0.109*[#  12]+0.109*[#  34]+0.106*[#  16]+0.105*[#  30]+0.105*[#   8]
          +0.104*[#  26]+0.071*[#   5]+0.070*[#  23]+0.056*[#  36]+0.056*[#  14]
          +0.023*[#  11]+0.023*[#  33]+0.009*[#  15]+0.009*[#  29]+0.006*[#  18]
          +0.006*[#  32]+0.004*[#   7]+0.004*[#  25]+0.003*[#   4]+0.003*[#  22]
          +0.003*[#  10]+0.003*[#  28]
    |psi|^2 = 0.989
==== e(  18) =    -2.08671 eV ==== 
     psi = 0.109*[#  34]+0.109*[#  12]+0.109*[#  26]+0.108*[#   8]+0.089*[#  23]
          +0.088*[#   5]+0.087*[#  30]+0.087*[#  16]+0.047*[#  18]+0.047*[#  32]
          +0.022*[#  15]+0.022*[#  29]+0.013*[#  11]+0.013*[#  33]+0.011*[#  36]
          +0.011*[#  14]+0.003*[#   4]+0.003*[#  10]+0.003*[#  22]+0.003*[#  28]
          
    |psi|^2 = 0.987
==== e(  19) =    -1.31184 eV ==== 
     psi = 0.262*[#   6]+0.254*[#  24]+0.126*[#  17]+0.123*[#  31]+0.116*[#  13]
          +0.112*[#  35]
    |psi|^2 = 0.993
==== e(  20) =    -1.27430 eV ==== 
     psi = 0.266*[#  24]+0.258*[#   6]+0.123*[#  35]+0.119*[#  13]+0.115*[#  31]
          +0.112*[#  17]
    |psi|^2 = 0.993
==== e(  21) =    -0.23382 eV ==== 
     psi = 0.184*[#  16]+0.183*[#  30]+0.139*[#  12]+0.137*[#  34]+0.071*[#   7]
          +0.071*[#  25]+0.036*[#  14]+0.035*[#  36]+0.034*[#  18]+0.034*[#  32]
          +0.016*[#  15]+0.016*[#  29]+0.014*[#  11]+0.014*[#  33]+0.002*[#   2]
          +0.002*[#  20]+0.001*[#   8]+0.001*[#  26]
    |psi|^2 = 0.991
==== e(  22) =    -0.07631 eV ==== 
     psi = 0.181*[#  34]+0.180*[#  12]+0.147*[#  30]+0.145*[#  16]+0.053*[#  25]
          +0.052*[#   7]+0.047*[#  32]+0.047*[#  18]+0.044*[#  36]+0.044*[#  14]
          +0.012*[#  33]+0.012*[#  11]+0.010*[#  29]+0.010*[#  15]+0.002*[#   2]
          +0.002*[#  20]
    |psi|^2 = 0.993
==== e(  23) =     0.83658 eV ==== 
     psi = 0.223*[#  13]+0.222*[#  17]+0.219*[#  35]+0.218*[#  31]+0.047*[#   9]
          +0.046*[#  27]+0.003*[#   3]+0.003*[#  21]
    |psi|^2 = 0.982
==== e(  24) =     0.92779 eV ==== 
     psi = 0.220*[#  31]+0.219*[#  35]+0.216*[#  17]+0.215*[#  13]+0.051*[#  27]
          +0.051*[#   9]+0.003*[#   3]+0.003*[#  21]
    |psi|^2 = 0.980
==== e(  25) =     1.00606 eV ==== 
     psi = 0.141*[#   5]+0.140*[#  23]+0.119*[#  12]+0.118*[#  34]+0.113*[#   8]
          +0.112*[#  26]+0.083*[#  16]+0.082*[#  30]+0.011*[#  10]+0.011*[#  28]
          +0.003*[#   4]+0.003*[#  22]+0.002*[#  14]+0.002*[#  36]
    |psi|^2 = 0.946
==== e(  26) =     1.10236 eV ==== 
     psi = 0.164*[#  23]+0.163*[#   5]+0.106*[#  30]+0.105*[#  16]+0.103*[#  26]
          +0.102*[#   8]+0.088*[#  34]+0.088*[#  12]+0.008*[#  10]+0.008*[#  28]
          +0.003*[#   4]+0.003*[#  22]+0.001*[#  18]
    |psi|^2 = 0.948

 k =   0.1111111111  0.1924500897  0.0000000000
==== e(   1) =   -58.99775 eV ==== 
     psi = 0.961*[#  19]+0.008*[#  30]+0.008*[#  34]+0.005*[#   1]+0.005*[#  28]
          +0.002*[#  32]+0.002*[#  36]+0.001*[#  23]+0.001*[#  29]+0.001*[#  33]
          
    |psi|^2 = 1.000
==== e(   2) =   -58.99722 eV ==== 
     psi = 0.961*[#   1]+0.008*[#  12]+0.008*[#  16]+0.006*[#  19]+0.005*[#  10]
          +0.002*[#  14]+0.002*[#  18]+0.001*[#   5]+0.001*[#  11]+0.001*[#  15]
          
    |psi|^2 = 1.000
==== e(   3) =   -33.15176 eV ==== 
     psi = 0.766*[#  20]+0.212*[#   2]+0.003*[#  29]+0.003*[#  33]+0.002*[#  34]
          +0.002*[#  30]+0.002*[#  32]+0.002*[#  36]
    |psi|^2 = 1.000
==== e(   4) =   -33.15116 eV ==== 
     psi = 0.766*[#   2]+0.212*[#  20]+0.003*[#  11]+0.003*[#  15]+0.002*[#  16]
          +0.002*[#  12]+0.002*[#  14]+0.002*[#  18]
    |psi|^2 = 1.000
==== e(   5) =   -33.05756 eV ==== 
     psi = 0.700*[#  22]+0.234*[#  21]+0.037*[#   4]+0.012*[#   3]+0.007*[#  28]
          +0.002*[#  30]+0.002*[#  34]+0.001*[#  23]
    |psi|^2 = 1.000
==== e(   6) =   -33.05704 eV ==== 
     psi = 0.700*[#   4]+0.234*[#   3]+0.037*[#  22]+0.013*[#  21]+0.007*[#  10]
          +0.002*[#  12]+0.002*[#  16]+0.001*[#   5]
    |psi|^2 = 1.000
==== e(   7) =   -32.96236 eV ==== 
     psi = 0.739*[#  21]+0.247*[#  22]+0.007*[#   3]+0.002*[#   4]
    |psi|^2 = 1.000
==== e(   8) =   -32.96188 eV ==== 
     psi = 0.739*[#   3]+0.247*[#   4]+0.007*[#  21]+0.002*[#  22]
    |psi|^2 = 1.000
==== e(   9) =   -11.89243 eV ==== 
     psi = 0.184*[#  15]+0.183*[#  29]+0.168*[#  10]+0.166*[#  28]+0.119*[#  11]
          +0.117*[#  33]+0.006*[#   1]+0.006*[#  19]+0.005*[#  18]+0.005*[#  32]
          +0.004*[#   8]+0.003*[#  26]+0.003*[#  12]+0.003*[#  34]+0.003*[#  14]
          +0.003*[#  36]+0.002*[#   4]+0.002*[#  22]+0.002*[#   9]+0.002*[#  27]
          +0.002*[#   5]+0.002*[#  17]+0.002*[#  23]+0.002*[#  31]+0.001*[#  16]
          
    |psi|^2 = 0.999
==== e(  10) =   -11.76099 eV ==== 
     psi = 0.173*[#  33]+0.172*[#  11]+0.162*[#  28]+0.160*[#  10]+0.132*[#  29]
          +0.129*[#  15]+0.006*[#   1]+0.006*[#  19]+0.006*[#  16]+0.006*[#  30]
          +0.004*[#  14]+0.004*[#  36]+0.004*[#   8]+0.004*[#  26]+0.004*[#  12]
          +0.004*[#  34]+0.003*[#  32]+0.002*[#   4]+0.003*[#  18]+0.002*[#  22]
          +0.002*[#   9]+0.002*[#  27]+0.001*[#  13]+0.001*[#  35]+0.001*[#   5]
          +0.001*[#  23]
    |psi|^2 = 0.999
==== e(  11) =   -10.93990 eV ==== 
     psi = 0.253*[#  11]+0.251*[#  33]+0.184*[#  15]+0.181*[#  29]+0.029*[#   7]
          +0.029*[#  25]+0.010*[#   6]+0.010*[#  24]+0.007*[#  14]+0.007*[#  36]
          +0.006*[#   2]+0.006*[#  20]+0.006*[#  18]+0.006*[#  32]+0.002*[#  13]
          +0.002*[#  35]+0.002*[#  17]+0.002*[#  31]+0.002*[#  16]+0.002*[#  30]
          
    |psi|^2 = 0.998
==== e(  12) =   -10.76192 eV ==== 
     psi = 0.242*[#  29]+0.240*[#  15]+0.198*[#  33]+0.195*[#  11]+0.030*[#  25]
          +0.029*[#   7]+0.010*[#  24]+0.010*[#   6]+0.006*[#   2]+0.006*[#  20]
          +0.005*[#  14]+0.005*[#  18]+0.005*[#  32]+0.005*[#  36]+0.002*[#  13]
          +0.002*[#  17]+0.002*[#  31]+0.002*[#  35]+0.001*[#  16]+0.001*[#  30]
          
    |psi|^2 = 0.998
==== e(  13) =    -3.60984 eV ==== 
     psi = 0.193*[#  16]+0.193*[#  30]+0.117*[#   5]+0.117*[#  23]+0.100*[#  12]
          +0.100*[#  34]+0.021*[#   8]+0.021*[#  26]+0.011*[#  11]+0.011*[#  33]
          +0.010*[#  10]+0.010*[#  28]+0.009*[#  18]+0.009*[#  32]+0.009*[#   9]
          +0.009*[#  27]+0.005*[#   1]+0.005*[#  15]+0.005*[#  19]+0.005*[#  29]
          +0.004*[#  14]+0.004*[#  36]+0.003*[#  17]+0.003*[#  31]+0.002*[#   4]
          +0.002*[#  22]+0.002*[#  13]+0.002*[#  35]
    |psi|^2 = 0.990
==== e(  14) =    -3.11816 eV ==== 
     psi = 0.157*[#  34]+0.157*[#  12]+0.143*[#  23]+0.143*[#   5]+0.087*[#  30]
          +0.087*[#  16]+0.029*[#   8]+0.029*[#  26]+0.014*[#  15]+0.014*[#  29]
          +0.013*[#   9]+0.013*[#  27]+0.012*[#  14]+0.012*[#  36]+0.009*[#  11]
          +0.009*[#  33]+0.009*[#  10]+0.009*[#  28]+0.006*[#  18]+0.006*[#  32]
          +0.005*[#   1]+0.005*[#  19]+0.004*[#  13]+0.004*[#  35]+0.002*[#  17]
          +0.002*[#  31]+0.002*[#   4]+0.002*[#  22]
    |psi|^2 = 0.987
==== e(  15) =    -1.69748 eV ==== 
     psi = 0.176*[#   8]+0.157*[#  26]+0.097*[#  14]+0.089*[#  36]+0.060*[#   9]
          +0.054*[#  27]+0.043*[#  18]+0.037*[#  32]+0.033*[#  16]+0.033*[#  13]
          +0.032*[#  30]+0.030*[#  35]+0.024*[#  10]+0.021*[#  28]+0.015*[#  17]
          +0.013*[#  15]+0.013*[#  31]+0.012*[#  11]+0.012*[#  29]+0.010*[#  33]
          +0.006*[#  25]+0.006*[#   7]+0.003*[#   1]+0.003*[#  19]+0.002*[#   6]
          +0.002*[#  24]
    |psi|^2 = 0.985
==== e(  16) =    -1.68921 eV ==== 
     psi = 0.172*[#  26]+0.153*[#   8]+0.082*[#  32]+0.076*[#  18]+0.060*[#  27]
          +0.058*[#  36]+0.054*[#   9]+0.050*[#  14]+0.033*[#  28]+0.030*[#  10]
          +0.028*[#  31]+0.025*[#  17]+0.019*[#  35]+0.019*[#  12]+0.019*[#  34]
          +0.017*[#  33]+0.017*[#  13]+0.016*[#  29]+0.016*[#  11]+0.014*[#  15]
          +0.006*[#  30]+0.005*[#  23]+0.005*[#   5]+0.004*[#  16]+0.004*[#  19]
          +0.003*[#   1]
    |psi|^2 = 0.988
==== e(  17) =    -1.48287 eV ==== 
     psi = 0.139*[#  12]+0.139*[#  34]+0.087*[#   7]+0.087*[#  25]+0.073*[#  16]
          +0.073*[#  30]+0.070*[#  18]+0.070*[#  32]+0.039*[#   6]+0.038*[#  24]
          +0.026*[#  17]+0.026*[#  31]+0.023*[#  14]+0.023*[#  36]+0.010*[#  13]
          +0.010*[#  35]+0.009*[#   5]+0.009*[#  23]+0.008*[#   8]+0.008*[#  26]
          +0.005*[#  11]+0.005*[#  33]+0.004*[#  10]+0.004*[#  28]+0.003*[#   9]
          +0.003*[#  27]+0.001*[#  15]+0.001*[#  29]
    |psi|^2 = 0.993
==== e(  18) =    -1.04026 eV ==== 
     psi = 0.103*[#  25]+0.103*[#   7]+0.086*[#  36]+0.085*[#  14]+0.070*[#  18]
          +0.070*[#  32]+0.062*[#   6]+0.062*[#  24]+0.061*[#  30]+0.061*[#  16]
          +0.045*[#  34]+0.045*[#  12]+0.030*[#  13]+0.030*[#  35]+0.025*[#  17]
          +0.025*[#  31]+0.006*[#   5]+0.006*[#  23]+0.003*[#  15]+0.003*[#  29]
          +0.001*[#  10]+0.001*[#  28]
    |psi|^2 = 0.988
==== e(  19) =    -0.63465 eV ==== 
     psi = 0.172*[#   6]+0.169*[#  24]+0.076*[#   7]+0.075*[#  25]+0.074*[#  17]
          +0.073*[#  31]+0.060*[#  13]+0.059*[#  35]+0.049*[#  18]+0.048*[#  32]
          +0.045*[#  14]+0.044*[#  36]+0.007*[#  12]+0.007*[#  16]+0.007*[#  34]
          +0.007*[#  30]+0.004*[#  11]+0.004*[#  33]+0.003*[#  15]+0.003*[#  29]
          
    |psi|^2 = 0.988
==== e(  20) =    -0.57542 eV ==== 
     psi = 0.162*[#  24]+0.159*[#   6]+0.095*[#  25]+0.094*[#   7]+0.077*[#  35]
          +0.076*[#  13]+0.062*[#  31]+0.061*[#  17]+0.036*[#  36]+0.035*[#  14]
          +0.032*[#  32]+0.031*[#  18]+0.012*[#  34]+0.012*[#  12]+0.011*[#  30]
          +0.011*[#  16]+0.006*[#  15]+0.006*[#  29]+0.004*[#  11]+0.004*[#  33]
          
    |psi|^2 = 0.988
==== e(  21) =    -0.23662 eV ==== 
     psi = 0.201*[#   9]+0.188*[#  27]+0.094*[#  13]+0.088*[#  35]+0.079*[#  17]
          +0.073*[#  31]+0.068*[#   8]+0.064*[#  26]+0.031*[#  14]+0.029*[#  36]
          +0.026*[#  18]+0.024*[#  32]+0.006*[#   5]+0.006*[#  23]
    |psi|^2 = 0.987
==== e(  22) =    -0.22369 eV ==== 
     psi = 0.200*[#  27]+0.187*[#   9]+0.094*[#  31]+0.088*[#  17]+0.077*[#  35]
          +0.071*[#  13]+0.069*[#  26]+0.064*[#   8]+0.031*[#  32]+0.029*[#  18]
          +0.026*[#  36]+0.024*[#  14]+0.009*[#  23]+0.009*[#   5]
    |psi|^2 = 0.987
==== e(  23) =     0.71365 eV ==== 
     psi = 0.124*[#  16]+0.123*[#  30]+0.083*[#  12]+0.082*[#  34]+0.068*[#  18]
          +0.068*[#  32]+0.060*[#  14]+0.060*[#  36]+0.051*[#  17]+0.051*[#  31]
          +0.044*[#  13]+0.044*[#  35]+0.030*[#   7]+0.030*[#  25]+0.015*[#  23]
          +0.015*[#   5]+0.011*[#   6]+0.011*[#  24]+0.004*[#   2]+0.004*[#  20]
          
    |psi|^2 = 0.979
==== e(  24) =     1.00896 eV ==== 
     psi = 0.186*[#  12]+0.185*[#  34]+0.088*[#  30]+0.087*[#  16]+0.056*[#  36]
          +0.056*[#  14]+0.040*[#  35]+0.040*[#  13]+0.039*[#  32]+0.038*[#  18]
          +0.035*[#   5]+0.034*[#  23]+0.031*[#  31]+0.031*[#  17]+0.006*[#   7]
          +0.006*[#  25]+0.004*[#   6]+0.004*[#  24]+0.004*[#   2]+0.004*[#  20]
          +0.002*[#  11]+0.002*[#  33]+0.002*[#   8]+0.002*[#  26]+0.001*[#   9]
          +0.001*[#  15]+0.001*[#  27]+0.001*[#  29]
    |psi|^2 = 0.985
==== e(  25) =     1.26463 eV ==== 
     psi = 0.269*[#  23]+0.269*[#   5]+0.093*[#  34]+0.092*[#  12]+0.036*[#   8]
          +0.036*[#  26]+0.023*[#  16]+0.023*[#  30]+0.021*[#   9]+0.021*[#  27]
          +0.020*[#  36]+0.020*[#  14]+0.008*[#  35]+0.008*[#  11]+0.008*[#  13]
          +0.008*[#  33]+0.004*[#  15]+0.004*[#  29]+0.004*[#  18]+0.004*[#  32]
          +0.001*[#  17]+0.001*[#  31]
    |psi|^2 = 0.980
==== e(  26) =     1.44469 eV ==== 
     psi = 0.201*[#  23]+0.201*[#   5]+0.110*[#  16]+0.110*[#  30]+0.055*[#   8]
          +0.055*[#  26]+0.037*[#  18]+0.037*[#  32]+0.030*[#   9]+0.030*[#  27]
          +0.019*[#  15]+0.019*[#  29]+0.015*[#  17]+0.015*[#  31]+0.008*[#  12]
          +0.008*[#  34]+0.007*[#  11]+0.007*[#  33]+0.005*[#  14]+0.005*[#  36]
          +0.002*[#  13]+0.002*[#  35]+0.001*[#   6]+0.001*[#  24]
    |psi|^2 = 0.987

 k =   0.1111111111  0.3207501495  0.0000000000
==== e(   1) =   -58.98419 eV ==== 
     psi = 0.970*[#  19]+0.006*[#  30]+0.006*[#  34]+0.005*[#  32]+0.005*[#  36]
          +0.002*[#  26]+0.001*[#  29]+0.001*[#  33]
    |psi|^2 = 1.000
==== e(   2) =   -58.98366 eV ==== 
     psi = 0.970*[#   1]+0.006*[#  12]+0.006*[#  16]+0.005*[#  14]+0.005*[#  18]
          +0.002*[#   8]+0.001*[#  11]+0.001*[#  15]
    |psi|^2 = 1.000
==== e(   3) =   -33.17812 eV ==== 
     psi = 0.862*[#  22]+0.072*[#  21]+0.039*[#   4]+0.009*[#  28]+0.004*[#  30]
          +0.004*[#  34]+0.003*[#   3]+0.002*[#  29]+0.002*[#  33]+0.001*[#  23]
          
    |psi|^2 = 1.000
==== e(   4) =   -33.17762 eV ==== 
     psi = 0.862*[#   4]+0.072*[#   3]+0.039*[#  22]+0.009*[#  10]+0.004*[#  12]
          +0.004*[#  16]+0.003*[#  21]+0.002*[#  11]+0.002*[#  15]+0.001*[#   5]
          
    |psi|^2 = 1.000
==== e(   5) =   -33.12522 eV ==== 
     psi = 0.852*[#  20]+0.129*[#   2]+0.004*[#  32]+0.004*[#  36]+0.002*[#  29]
          +0.002*[#  33]+0.001*[#  30]+0.001*[#  34]
    |psi|^2 = 1.000
==== e(   6) =   -33.12476 eV ==== 
     psi = 0.852*[#   2]+0.129*[#  20]+0.004*[#  14]+0.004*[#  18]+0.002*[#  11]
          +0.002*[#  15]+0.001*[#  12]+0.002*[#  16]
    |psi|^2 = 1.000
==== e(   7) =   -33.00269 eV ==== 
     psi = 0.890*[#  21]+0.074*[#  22]+0.027*[#   3]+0.002*[#   4]+0.002*[#  31]
          +0.002*[#  35]
    |psi|^2 = 1.000
==== e(   8) =   -33.00218 eV ==== 
     psi = 0.890*[#   3]+0.074*[#   4]+0.027*[#  21]+0.002*[#  22]+0.002*[#  13]
          +0.002*[#  17]
    |psi|^2 = 1.000
==== e(   9) =   -11.28943 eV ==== 
     psi = 0.216*[#  15]+0.215*[#  29]+0.129*[#  11]+0.126*[#  33]+0.109*[#  10]
          +0.108*[#  28]+0.012*[#   8]+0.012*[#  26]+0.010*[#  18]+0.010*[#  32]
          +0.005*[#  14]+0.005*[#  36]+0.004*[#   4]+0.004*[#  22]+0.004*[#  12]
          +0.004*[#  34]+0.003*[#   9]+0.003*[#  27]+0.003*[#   1]+0.003*[#  19]
          +0.002*[#   5]+0.002*[#  23]+0.002*[#  16]+0.002*[#  30]+0.001*[#  17]
          +0.001*[#  31]
    |psi|^2 = 0.999
==== e(  10) =   -11.17155 eV ==== 
     psi = 0.201*[#  33]+0.201*[#  11]+0.146*[#  29]+0.143*[#  15]+0.104*[#  28]
          +0.103*[#  10]+0.013*[#  26]+0.013*[#   8]+0.008*[#  14]+0.008*[#  36]
          +0.006*[#  16]+0.006*[#  30]+0.005*[#   4]+0.005*[#  22]+0.005*[#  32]
          +0.004*[#  18]+0.004*[#  12]+0.004*[#  34]+0.003*[#   9]+0.003*[#  27]
          +0.003*[#   1]+0.003*[#  19]+0.001*[#   5]+0.001*[#  23]+0.001*[#  13]
          +0.001*[#  35]
    |psi|^2 = 0.999
==== e(  11) =   -10.66429 eV ==== 
     psi = 0.250*[#  11]+0.248*[#  33]+0.159*[#  15]+0.156*[#  29]+0.061*[#   7]
          +0.060*[#  25]+0.009*[#  14]+0.009*[#  36]+0.008*[#   6]+0.008*[#  24]
          +0.007*[#  18]+0.007*[#  32]+0.004*[#   2]+0.004*[#  20]+0.001*[#  10]
          +0.001*[#  28]+0.001*[#  13]+0.001*[#  35]
    |psi|^2 = 0.999
==== e(  12) =   -10.52877 eV ==== 
     psi = 0.235*[#  29]+0.233*[#  15]+0.177*[#  33]+0.174*[#  11]+0.062*[#  25]
          +0.061*[#   7]+0.008*[#  24]+0.008*[#   6]+0.006*[#  18]+0.006*[#  32]
          +0.006*[#  36]+0.006*[#  14]+0.004*[#   2]+0.004*[#  20]+0.002*[#  16]
          +0.002*[#  30]
    |psi|^2 = 0.999
==== e(  13) =    -3.37748 eV ==== 
     psi = 0.123*[#  16]+0.122*[#  30]+0.116*[#   8]+0.116*[#  26]+0.067*[#  18]
          +0.066*[#  32]+0.065*[#   5]+0.064*[#  23]+0.056*[#  12]+0.056*[#  34]
          +0.037*[#  14]+0.037*[#  36]+0.011*[#   9]+0.011*[#  27]+0.006*[#  17]
          +0.006*[#  31]+0.004*[#  13]+0.004*[#  35]+0.002*[#   4]+0.002*[#  11]
          +0.002*[#  22]+0.002*[#  33]+0.002*[#   7]+0.002*[#  25]+0.001*[#   3]
          +0.001*[#  10]+0.001*[#  21]+0.001*[#  28]
    |psi|^2 = 0.989
==== e(  14) =    -3.08162 eV ==== 
     psi = 0.147*[#  26]+0.147*[#   8]+0.083*[#  14]+0.083*[#  36]+0.067*[#  34]
          +0.067*[#  12]+0.062*[#  32]+0.061*[#  18]+0.061*[#  23]+0.060*[#   5]
          +0.036*[#  30]+0.036*[#  16]+0.013*[#   9]+0.013*[#  27]+0.008*[#  13]
          +0.008*[#  35]+0.006*[#  17]+0.006*[#  31]+0.004*[#  10]+0.004*[#  28]
          +0.002*[#  15]+0.002*[#  29]+0.002*[#   4]+0.002*[#  22]+0.001*[#  11]
          +0.001*[#  33]+0.001*[#   3]+0.001*[#  21]
    |psi|^2 = 0.988
==== e(  15) =    -2.25539 eV ==== 
     psi = 0.152*[#  14]+0.152*[#  36]+0.115*[#  16]+0.115*[#  30]+0.062*[#   7]
          +0.062*[#  25]+0.053*[#  18]+0.053*[#  32]+0.035*[#  26]+0.035*[#   8]
          +0.021*[#  10]+0.021*[#  28]+0.019*[#  15]+0.019*[#  29]+0.008*[#   6]
          +0.008*[#  24]+0.007*[#   9]+0.007*[#  27]+0.005*[#  11]+0.005*[#  33]
          +0.005*[#  13]+0.005*[#  35]+0.005*[#   5]+0.005*[#  23]+0.003*[#  17]
          +0.003*[#  31]+0.002*[#   1]+0.002*[#  19]+0.002*[#  12]+0.002*[#  34]
          +0.001*[#   4]+0.001*[#  22]
    |psi|^2 = 0.989
==== e(  16) =    -2.06680 eV ==== 
     psi = 0.153*[#  18]+0.150*[#  32]+0.101*[#  12]+0.099*[#  34]+0.059*[#   7]
          +0.058*[#  14]+0.057*[#  25]+0.057*[#  36]+0.022*[#  11]+0.021*[#  33]
          +0.021*[#  10]+0.020*[#  28]+0.019*[#   6]+0.019*[#  24]+0.017*[#   5]
          +0.017*[#  23]+0.011*[#   8]+0.011*[#  26]+0.008*[#  15]+0.008*[#  29]
          +0.008*[#  13]+0.008*[#  35]+0.008*[#   9]+0.008*[#  16]+0.008*[#  27]
          +0.008*[#  30]+0.002*[#   1]+0.002*[#  17]+0.002*[#  19]+0.002*[#  31]
          +0.001*[#   4]+0.001*[#  22]
    |psi|^2 = 0.989
==== e(  17) =    -1.99027 eV ==== 
     psi = 0.132*[#  32]+0.130*[#  18]+0.109*[#  34]+0.107*[#  12]+0.053*[#  25]
          +0.051*[#   7]+0.050*[#  36]+0.049*[#  14]+0.025*[#  33]+0.025*[#  11]
          +0.025*[#  28]+0.025*[#  10]+0.021*[#  26]+0.021*[#   8]+0.020*[#  23]
          +0.020*[#   5]+0.016*[#  24]+0.016*[#   6]+0.011*[#  16]+0.011*[#  30]
          +0.010*[#  15]+0.010*[#  29]+0.009*[#  27]+0.009*[#   9]+0.008*[#  35]
          +0.008*[#  13]+0.003*[#  17]+0.003*[#  31]+0.003*[#   1]+0.003*[#  19]
          +0.002*[#   4]+0.002*[#  22]
    |psi|^2 = 0.987
==== e(  18) =    -1.84151 eV ==== 
     psi = 0.122*[#  36]+0.122*[#  14]+0.071*[#  30]+0.071*[#  16]+0.047*[#  18]
          +0.047*[#  32]+0.046*[#   7]+0.046*[#  25]+0.035*[#   6]+0.035*[#  24]
          +0.032*[#  12]+0.033*[#  34]+0.031*[#   5]+0.031*[#  23]+0.025*[#  15]
          +0.025*[#  29]+0.024*[#  28]+0.023*[#  10]+0.018*[#  17]+0.018*[#  31]
          +0.013*[#  33]+0.013*[#  11]+0.010*[#   9]+0.010*[#  27]+0.008*[#  26]
          +0.008*[#   8]+0.004*[#  13]+0.004*[#  35]+0.003*[#   1]+0.003*[#  19]
          +0.002*[#   4]+0.002*[#  22]
    |psi|^2 = 0.986
==== e(  19) =    -1.33677 eV ==== 
     psi = 0.183*[#   6]+0.182*[#  24]+0.094*[#  17]+0.093*[#  31]+0.085*[#  13]
          +0.084*[#  35]+0.055*[#  12]+0.055*[#  34]+0.032*[#   7]+0.032*[#  25]
          +0.026*[#  16]+0.026*[#  30]+0.009*[#  11]+0.009*[#  33]+0.003*[#  14]
          +0.003*[#  36]+0.003*[#  15]+0.003*[#  29]+0.002*[#   5]+0.002*[#  23]
          +0.002*[#  18]+0.002*[#  32]
    |psi|^2 = 0.990
==== e(  20) =    -1.14692 eV ==== 
     psi = 0.159*[#  24]+0.158*[#   6]+0.094*[#  35]+0.094*[#  13]+0.086*[#  31]
          +0.086*[#  17]+0.052*[#  25]+0.052*[#   7]+0.049*[#  30]+0.049*[#  16]
          +0.021*[#  34]+0.021*[#  12]+0.012*[#  15]+0.012*[#  29]+0.008*[#  14]
          +0.008*[#  36]+0.004*[#  18]+0.004*[#  32]+0.004*[#   5]+0.004*[#  23]
          +0.003*[#  11]+0.003*[#  33]+0.001*[#  10]+0.001*[#  28]
    |psi|^2 = 0.987
==== e(  21) =    -0.01729 eV ==== 
     psi = 0.134*[#  17]+0.132*[#  13]+0.126*[#  31]+0.125*[#  35]+0.102*[#   9]
          +0.095*[#  27]+0.063*[#   5]+0.059*[#  23]+0.022*[#  14]+0.021*[#  36]
          +0.021*[#   8]+0.020*[#  26]+0.015*[#  18]+0.014*[#  32]+0.003*[#  16]
          +0.003*[#  30]+0.003*[#  15]+0.003*[#  29]+0.002*[#  11]+0.002*[#  10]
          +0.002*[#  33]+0.002*[#   3]+0.002*[#  28]+0.002*[#  21]+0.001*[#   4]
          +0.001*[#  22]
    |psi|^2 = 0.977
==== e(  22) =     0.00101 eV ==== 
     psi = 0.129*[#  31]+0.127*[#  35]+0.122*[#  17]+0.120*[#  13]+0.112*[#  27]
          +0.105*[#   9]+0.066*[#  23]+0.062*[#   5]+0.024*[#  32]+0.023*[#  18]
          +0.017*[#  36]+0.015*[#  14]+0.014*[#  26]+0.013*[#   8]+0.003*[#  12]
          +0.003*[#  34]+0.002*[#  28]+0.002*[#  10]+0.002*[#  33]+0.002*[#  11]
          +0.002*[#  29]+0.002*[#  15]+0.002*[#  21]+0.002*[#   3]+0.001*[#   4]
          +0.001*[#  22]
    |psi|^2 = 0.977
==== e(  23) =     0.53153 eV ==== 
     psi = 0.122*[#  16]+0.120*[#  30]+0.114*[#  12]+0.112*[#  34]+0.077*[#  18]
          +0.077*[#  32]+0.060*[#  14]+0.059*[#  36]+0.048*[#  13]+0.048*[#  35]
          +0.032*[#  17]+0.032*[#  31]+0.023*[#   6]+0.023*[#  24]+0.004*[#  11]
          +0.004*[#  33]+0.004*[#   2]+0.004*[#  15]+0.004*[#  20]+0.004*[#  29]
          +0.003*[#   5]+0.003*[#  23]+0.002*[#   7]+0.002*[#  25]+0.001*[#   8]
          +0.001*[#  26]
    |psi|^2 = 0.987
==== e(  24) =     0.67163 eV ==== 
     psi = 0.143*[#  34]+0.141*[#  12]+0.129*[#  30]+0.128*[#  16]+0.067*[#  36]
          +0.067*[#  14]+0.050*[#  32]+0.049*[#  18]+0.034*[#  31]+0.034*[#  17]
          +0.025*[#  35]+0.024*[#  13]+0.013*[#  24]+0.013*[#   6]+0.013*[#   7]
          +0.013*[#  25]+0.008*[#  15]+0.008*[#  29]+0.006*[#  11]+0.006*[#  33]
          +0.004*[#   2]+0.004*[#  20]+0.003*[#   5]+0.003*[#  23]+0.002*[#   8]
          +0.002*[#  26]
    |psi|^2 = 0.991
==== e(  25) =     0.94655 eV ==== 
     psi = 0.150*[#   5]+0.148*[#  23]+0.126*[#   8]+0.124*[#  26]+0.079*[#   9]
          +0.077*[#  27]+0.039*[#  12]+0.038*[#  34]+0.024*[#  17]+0.024*[#  31]
          +0.021*[#  14]+0.020*[#  36]+0.018*[#  13]+0.018*[#  35]+0.016*[#  16]
          +0.015*[#  30]+0.011*[#  18]+0.010*[#  32]+0.007*[#  11]+0.006*[#  33]
          +0.005*[#  15]+0.005*[#  29]+0.002*[#  10]+0.002*[#  28]
    |psi|^2 = 0.988
==== e(  26) =     0.97340 eV ==== 
     psi = 0.166*[#  23]+0.163*[#   5]+0.124*[#  26]+0.122*[#   8]+0.070*[#  27]
          +0.068*[#   9]+0.036*[#  30]+0.036*[#  16]+0.021*[#  35]+0.021*[#  13]
          +0.018*[#  34]+0.018*[#  32]+0.018*[#  12]+0.018*[#  18]+0.018*[#  31]
          +0.017*[#  17]+0.010*[#  36]+0.010*[#  14]+0.007*[#  15]+0.007*[#  29]
          +0.006*[#  33]+0.005*[#  11]+0.004*[#  10]+0.004*[#  28]
    |psi|^2 = 0.989

 k =   0.1111111111  0.4490502094  0.0000000000
==== e(   1) =   -58.97221 eV ==== 
     psi = 0.961*[#  19]+0.012*[#  28]+0.007*[#  32]+0.007*[#  36]+0.004*[#  26]
          +0.003*[#  30]+0.003*[#  34]
    |psi|^2 = 1.000
==== e(   2) =   -58.97168 eV ==== 
     psi = 0.961*[#   1]+0.012*[#  10]+0.007*[#  14]+0.007*[#  18]+0.004*[#   8]
          +0.003*[#  12]+0.003*[#  16]
    |psi|^2 = 1.000
==== e(   3) =   -33.28167 eV ==== 
     psi = 0.938*[#  22]+0.017*[#   4]+0.016*[#  21]+0.006*[#  30]+0.006*[#  34]
          +0.004*[#  28]+0.003*[#  29]+0.003*[#  33]+0.001*[#  32]+0.001*[#  36]
          
    |psi|^2 = 1.000
==== e(   4) =   -33.28120 eV ==== 
     psi = 0.938*[#   4]+0.017*[#  22]+0.016*[#   3]+0.006*[#  12]+0.006*[#  16]
          +0.004*[#  10]+0.003*[#  11]+0.003*[#  15]+0.001*[#  14]+0.001*[#  18]
          
    |psi|^2 = 1.000
==== e(   5) =   -33.10169 eV ==== 
     psi = 0.905*[#  20]+0.078*[#   2]+0.005*[#  32]+0.005*[#  36]
    |psi|^2 = 1.000
==== e(   6) =   -33.10128 eV ==== 
     psi = 0.905*[#   2]+0.078*[#  20]+0.005*[#  14]+0.005*[#  18]
    |psi|^2 = 1.000
==== e(   7) =   -33.03839 eV ==== 
     psi = 0.952*[#  21]+0.022*[#   3]+0.017*[#  22]+0.003*[#  31]+0.003*[#  35]
          +0.001*[#  26]
    |psi|^2 = 1.000
==== e(   8) =   -33.03789 eV ==== 
     psi = 0.952*[#   3]+0.022*[#  21]+0.017*[#   4]+0.003*[#  13]+0.003*[#  17]
          +0.001*[#   8]
    |psi|^2 = 1.000
==== e(   9) =   -10.65836 eV ==== 
     psi = 0.271*[#  15]+0.269*[#  29]+0.126*[#  11]+0.122*[#  33]+0.044*[#  10]
          +0.043*[#  28]+0.027*[#   8]+0.026*[#  26]+0.007*[#  18]+0.007*[#  32]
          +0.005*[#   4]+0.005*[#  22]+0.005*[#   9]+0.005*[#  27]+0.004*[#  12]
          +0.004*[#  34]+0.003*[#  25]+0.003*[#   7]+0.003*[#  16]+0.003*[#  30]
          +0.003*[#  14]+0.003*[#  36]+0.002*[#   5]+0.002*[#  23]
    |psi|^2 = 0.998
==== e(  10) =   -10.57164 eV ==== 
     psi = 0.243*[#  11]+0.242*[#  33]+0.156*[#  29]+0.151*[#  15]+0.041*[#  28]
          +0.041*[#  10]+0.028*[#  26]+0.028*[#   8]+0.006*[#  16]+0.006*[#  30]
          +0.005*[#   4]+0.006*[#  22]+0.005*[#  12]+0.005*[#  34]+0.005*[#   9]
          +0.005*[#  14]+0.005*[#  27]+0.005*[#  36]+0.002*[#  32]+0.002*[#  18]
          +0.001*[#   5]+0.001*[#   7]+0.001*[#  23]+0.001*[#  25]
    |psi|^2 = 0.998
==== e(  11) =   -10.37951 eV ==== 
     psi = 0.272*[#  11]+0.271*[#  33]+0.127*[#  15]+0.121*[#  29]+0.084*[#   7]
          +0.083*[#  25]+0.007*[#   6]+0.006*[#  24]+0.004*[#  14]+0.004*[#  36]
          +0.003*[#  18]+0.002*[#  32]+0.002*[#   2]+0.002*[#  20]+0.001*[#  28]
          +0.001*[#  10]+0.001*[#  12]+0.001*[#  34]+0.001*[#  26]+0.001*[#   8]
          
    |psi|^2 = 0.999
==== e(  12) =   -10.30148 eV ==== 
     psi = 0.244*[#  29]+0.242*[#  15]+0.156*[#  33]+0.151*[#  11]+0.087*[#  25]
          +0.085*[#   7]+0.007*[#  24]+0.007*[#   6]+0.003*[#  18]+0.003*[#  32]
          +0.002*[#  14]+0.002*[#  36]+0.002*[#  16]+0.002*[#  30]+0.002*[#   2]
          +0.002*[#  20]
    |psi|^2 = 0.999
==== e(  13) =    -3.71564 eV ==== 
     psi = 0.157*[#  18]+0.157*[#  32]+0.114*[#   8]+0.114*[#  26]+0.108*[#  14]
          +0.107*[#  36]+0.028*[#  16]+0.028*[#  30]+0.026*[#   5]+0.025*[#  23]
          +0.024*[#  10]+0.023*[#  28]+0.013*[#  12]+0.013*[#  34]+0.006*[#  11]
          +0.006*[#  33]+0.005*[#  15]+0.004*[#  29]+0.004*[#   9]+0.004*[#  27]
          +0.003*[#   1]+0.003*[#  19]+0.003*[#  17]+0.003*[#  31]+0.002*[#  13]
          +0.002*[#  35]+0.001*[#   4]+0.001*[#  22]
    |psi|^2 = 0.988
==== e(  14) =    -3.55921 eV ==== 
     psi = 0.153*[#  36]+0.152*[#  14]+0.131*[#  32]+0.130*[#  18]+0.110*[#  26]
          +0.109*[#   8]+0.027*[#  28]+0.027*[#  10]+0.027*[#  23]+0.027*[#   5]
          +0.013*[#  12]+0.013*[#  34]+0.007*[#  15]+0.007*[#  29]+0.006*[#  30]
          +0.006*[#  16]+0.005*[#  11]+0.005*[#  33]+0.005*[#   9]+0.005*[#  27]
          +0.003*[#   1]+0.003*[#  19]+0.003*[#  13]+0.003*[#  17]+0.003*[#  31]
          +0.003*[#  35]+0.001*[#   4]+0.001*[#  22]
    |psi|^2 = 0.987
==== e(  15) =    -2.93789 eV ==== 
     psi = 0.155*[#  14]+0.152*[#  36]+0.144*[#  18]+0.141*[#  32]+0.092*[#   7]
          +0.090*[#  25]+0.035*[#   6]+0.035*[#  16]+0.035*[#  30]+0.034*[#  24]
          +0.012*[#  15]+0.012*[#  29]+0.007*[#  17]+0.007*[#  31]+0.007*[#  13]
          +0.007*[#  35]+0.004*[#  11]+0.004*[#  12]+0.004*[#  33]+0.004*[#  34]
          +0.002*[#   2]+0.002*[#  20]+0.001*[#  10]+0.001*[#  28]+0.001*[#   5]
          +0.001*[#   8]+0.001*[#  23]+0.001*[#  26]
    |psi|^2 = 0.993
==== e(  16) =    -2.85749 eV ==== 
     psi = 0.158*[#  36]+0.155*[#  14]+0.151*[#  32]+0.149*[#  18]+0.082*[#  25]
          +0.081*[#   7]+0.051*[#  24]+0.051*[#   6]+0.012*[#  35]+0.012*[#  13]
          +0.011*[#  12]+0.011*[#  34]+0.011*[#  31]+0.011*[#  17]+0.010*[#  11]
          +0.010*[#  33]+0.007*[#  29]+0.007*[#  15]+0.003*[#   2]+0.003*[#  20]
          +0.001*[#   5]
    |psi|^2 = 0.991
==== e(  17) =    -2.22128 eV ==== 
     psi = 0.130*[#  16]+0.129*[#  30]+0.098*[#  12]+0.097*[#  34]+0.057*[#   8]
          +0.057*[#  26]+0.051*[#   5]+0.051*[#  23]+0.044*[#  14]+0.044*[#  36]
          +0.026*[#  11]+0.026*[#  33]+0.024*[#  18]+0.023*[#  32]+0.016*[#  15]
          +0.016*[#  29]+0.013*[#  10]+0.013*[#  28]+0.011*[#  17]+0.011*[#  31]
          +0.010*[#   6]+0.010*[#  24]+0.006*[#   9]+0.006*[#  27]+0.003*[#   4]
          +0.003*[#  22]+0.003*[#   7]+0.003*[#  25]+0.002*[#   1]+0.002*[#  19]
          +0.001*[#  13]+0.001*[#  35]
    |psi|^2 = 0.988
==== e(  18) =    -1.93619 eV ==== 
     psi = 0.132*[#  34]+0.131*[#  12]+0.088*[#  30]+0.087*[#  16]+0.067*[#  23]
          +0.067*[#   5]+0.055*[#  26]+0.055*[#   8]+0.034*[#  18]+0.034*[#  32]
          +0.025*[#  36]+0.025*[#  14]+0.024*[#  15]+0.024*[#  29]+0.020*[#  11]
          +0.020*[#  33]+0.012*[#  13]+0.012*[#  35]+0.012*[#  10]+0.012*[#  28]
          +0.009*[#   6]+0.009*[#   9]+0.009*[#  24]+0.009*[#  27]+0.003*[#   4]
          +0.003*[#  22]+0.002*[#  17]+0.002*[#  31]+0.001*[#   1]+0.001*[#  19]
          
    |psi|^2 = 0.985
==== e(  19) =    -1.47222 eV ==== 
     psi = 0.170*[#   6]+0.169*[#  24]+0.100*[#  13]+0.099*[#  35]+0.089*[#  17]
          +0.089*[#  31]+0.059*[#  12]+0.059*[#  34]+0.023*[#  16]+0.023*[#  30]
          +0.021*[#   7]+0.021*[#  25]+0.011*[#  18]+0.011*[#  32]+0.008*[#  14]
          +0.007*[#  36]+0.007*[#  11]+0.007*[#  33]+0.004*[#   8]+0.004*[#  26]
          +0.003*[#   5]+0.003*[#  23]+0.001*[#  15]+0.001*[#  29]
    |psi|^2 = 0.991
==== e(  20) =    -1.29929 eV ==== 
     psi = 0.162*[#  24]+0.161*[#   6]+0.111*[#  31]+0.110*[#  17]+0.092*[#  35]
          +0.092*[#  13]+0.033*[#  30]+0.033*[#  16]+0.024*[#  36]+0.024*[#  14]
          +0.023*[#  18]+0.023*[#  32]+0.021*[#  25]+0.021*[#   7]+0.010*[#  34]
          +0.010*[#  12]+0.009*[#  15]+0.009*[#  29]+0.004*[#   5]+0.004*[#  23]
          +0.003*[#   8]+0.003*[#  26]+0.002*[#  11]+0.002*[#  33]
    |psi|^2 = 0.989
==== e(  21) =    -0.08203 eV ==== 
     psi = 0.137*[#  17]+0.137*[#  31]+0.112*[#  16]+0.112*[#  30]+0.079*[#  13]
          +0.078*[#  35]+0.045*[#   5]+0.045*[#  23]+0.028*[#   8]+0.028*[#  26]
          +0.019*[#   9]+0.018*[#  27]+0.017*[#  14]+0.017*[#  36]+0.012*[#   7]
          +0.012*[#  25]+0.011*[#  15]+0.011*[#  29]+0.008*[#  10]+0.008*[#   6]
          +0.008*[#  24]+0.008*[#  28]+0.006*[#  18]+0.006*[#  32]+0.002*[#   4]
          +0.002*[#  22]+0.001*[#  12]+0.001*[#  34]+0.001*[#   3]+0.001*[#  21]
          
    |psi|^2 = 0.976
==== e(  22) =     0.00465 eV ==== 
     psi = 0.127*[#  13]+0.124*[#  35]+0.100*[#  17]+0.099*[#  31]+0.098*[#  12]
          +0.095*[#  34]+0.049*[#   5]+0.048*[#  23]+0.024*[#  18]+0.024*[#  32]
          +0.023*[#   9]+0.022*[#  27]+0.018*[#   8]+0.017*[#  26]+0.012*[#   7]
          +0.012*[#  25]+0.011*[#  30]+0.011*[#  16]+0.009*[#  10]+0.009*[#  28]
          +0.009*[#  11]+0.008*[#  33]+0.005*[#   6]+0.005*[#  24]+0.004*[#  14]
          +0.004*[#  36]+0.002*[#   4]+0.002*[#  22]+0.001*[#   3]+0.001*[#  15]
          +0.001*[#  21]+0.001*[#  29]
    |psi|^2 = 0.978
==== e(  23) =     0.07492 eV ==== 
     psi = 0.129*[#  34]+0.127*[#  12]+0.124*[#  35]+0.120*[#  13]+0.056*[#  16]
          +0.055*[#  30]+0.032*[#  23]+0.031*[#   5]+0.031*[#  14]+0.031*[#  36]
          +0.028*[#   7]+0.028*[#  25]+0.027*[#  32]+0.027*[#  18]+0.019*[#  31]
          +0.018*[#  17]+0.013*[#  33]+0.012*[#  11]+0.010*[#  27]+0.009*[#   9]
          +0.009*[#   6]+0.009*[#  24]+0.008*[#  26]+0.008*[#   8]+0.005*[#  15]
          +0.005*[#  29]+0.004*[#  28]+0.003*[#  10]+0.002*[#   2]+0.002*[#  20]
          
    |psi|^2 = 0.984
==== e(  24) =     0.18318 eV ==== 
     psi = 0.148*[#  30]+0.147*[#  16]+0.103*[#  34]+0.101*[#  12]+0.066*[#  17]
          +0.066*[#  31]+0.056*[#  36]+0.056*[#  14]+0.050*[#  32]+0.050*[#  18]
          +0.034*[#  25]+0.034*[#   7]+0.011*[#  15]+0.011*[#  29]+0.009*[#   5]
          +0.008*[#  23]+0.007*[#   6]+0.007*[#  24]+0.006*[#  33]+0.006*[#  11]
          +0.003*[#   2]+0.003*[#  20]+0.002*[#   9]+0.002*[#  27]
    |psi|^2 = 0.990
==== e(  25) =     1.13512 eV ==== 
     psi = 0.117*[#   8]+0.115*[#  26]+0.086*[#   5]+0.084*[#  23]+0.084*[#   9]
          +0.083*[#  27]+0.067*[#  17]+0.066*[#  31]+0.058*[#  13]+0.058*[#  35]
          +0.033*[#  12]+0.032*[#  34]+0.023*[#  16]+0.022*[#  30]+0.010*[#  14]
          +0.010*[#  36]+0.007*[#  10]+0.007*[#  28]+0.005*[#  18]+0.005*[#  32]
          +0.002*[#  15]+0.002*[#  29]+0.001*[#  11]+0.001*[#  33]
    |psi|^2 = 0.981
==== e(  26) =     1.17399 eV ==== 
     psi = 0.108*[#  26]+0.107*[#   8]+0.107*[#  23]+0.105*[#   5]+0.095*[#  27]
          +0.094*[#   9]+0.057*[#  35]+0.056*[#  13]+0.052*[#  31]+0.051*[#  17]
          +0.029*[#  30]+0.029*[#  16]+0.022*[#  34]+0.022*[#  12]+0.010*[#  32]
          +0.010*[#  18]+0.007*[#  28]+0.007*[#  10]+0.006*[#  36]+0.005*[#  14]
          +0.001*[#  11]+0.001*[#  33]
    |psi|^2 = 0.984

 k =   0.1111111111  0.5773502692  0.0000000000
==== e(   1) =   -58.96750 eV ==== 
     psi = 0.948*[#  19]+0.023*[#  28]+0.007*[#  32]+0.007*[#  36]+0.005*[#  26]
          +0.005*[#   1]
    |psi|^2 = 1.000
==== e(   2) =   -58.96696 eV ==== 
     psi = 0.948*[#   1]+0.023*[#  10]+0.007*[#  14]+0.007*[#  18]+0.005*[#   8]
          +0.005*[#  19]
    |psi|^2 = 1.000
==== e(   3) =   -33.32246 eV ==== 
     psi = 0.887*[#  22]+0.084*[#   4]+0.007*[#  30]+0.007*[#  34]+0.003*[#  29]
          +0.003*[#  33]+0.002*[#  32]+0.002*[#  36]+0.002*[#  21]+0.001*[#  27]
          
    |psi|^2 = 1.000
==== e(   4) =   -33.32192 eV ==== 
     psi = 0.887*[#   4]+0.084*[#  22]+0.007*[#  12]+0.007*[#  16]+0.003*[#  11]
          +0.003*[#  15]+0.002*[#  14]+0.002*[#  18]+0.002*[#   3]+0.001*[#   9]
          
    |psi|^2 = 1.000
==== e(   5) =   -33.09234 eV ==== 
     psi = 0.841*[#  20]+0.144*[#   2]+0.005*[#  32]+0.005*[#  36]
    |psi|^2 = 1.000
==== e(   6) =   -33.09185 eV ==== 
     psi = 0.841*[#   2]+0.144*[#  20]+0.005*[#  14]+0.005*[#  18]
    |psi|^2 = 1.000
==== e(   7) =   -33.05246 eV ==== 
     psi = 0.983*[#  21]+0.006*[#   3]+0.003*[#  31]+0.003*[#  35]+0.002*[#  22]
          +0.002*[#  26]
    |psi|^2 = 1.000
==== e(   8) =   -33.05199 eV ==== 
     psi = 0.983*[#   3]+0.006*[#  21]+0.003*[#  13]+0.003*[#  17]+0.002*[#   4]
          +0.002*[#   8]
    |psi|^2 = 1.000
==== e(   9) =   -10.36333 eV ==== 
     psi = 0.326*[#  15]+0.325*[#  29]+0.099*[#  11]+0.094*[#  33]+0.034*[#   8]
          +0.034*[#  26]+0.012*[#  10]+0.012*[#  28]+0.008*[#  25]+0.008*[#   7]
          +0.005*[#   9]+0.005*[#  27]+0.005*[#   4]+0.005*[#  22]+0.004*[#  16]
          +0.004*[#  30]+0.004*[#  12]+0.004*[#  34]+0.001*[#   5]+0.001*[#  23]
          
    |psi|^2 = 0.997
==== e(  10) =   -10.30712 eV ==== 
     psi = 0.274*[#  11]+0.262*[#  33]+0.160*[#  29]+0.150*[#  15]+0.037*[#  26]
          +0.037*[#   8]+0.011*[#  10]+0.011*[#  28]+0.006*[#  12]+0.006*[#  16]
          +0.006*[#  30]+0.006*[#  34]+0.006*[#  27]+0.005*[#   4]+0.005*[#   9]
          +0.005*[#  22]+0.002*[#   7]+0.002*[#  25]
    |psi|^2 = 0.997
==== e(  11) =   -10.24663 eV ==== 
     psi = 0.314*[#  33]+0.311*[#  11]+0.092*[#  15]+0.090*[#   7]+0.086*[#  25]
          +0.078*[#  29]+0.006*[#   6]+0.005*[#  24]+0.004*[#  26]+0.003*[#   8]
          +0.002*[#  34]+0.002*[#  12]
    |psi|^2 = 0.999
==== e(  12) =   -10.21206 eV ==== 
     psi = 0.255*[#  29]+0.250*[#  15]+0.147*[#  33]+0.134*[#  11]+0.098*[#  25]
          +0.093*[#   7]+0.006*[#  24]+0.006*[#   6]+0.002*[#  16]+0.002*[#  30]
          
    |psi|^2 = 0.999
==== e(  13) =    -3.94287 eV ==== 
     psi = 0.200*[#  18]+0.198*[#  32]+0.140*[#  14]+0.138*[#  36]+0.068*[#   8]
          +0.067*[#  26]+0.039*[#  10]+0.039*[#  28]+0.020*[#   5]+0.020*[#  23]
          +0.008*[#  11]+0.008*[#  33]+0.007*[#  16]+0.007*[#  30]+0.005*[#  15]
          +0.005*[#  29]+0.004*[#   1]+0.004*[#  19]+0.003*[#  12]+0.003*[#  34]
          +0.002*[#   9]+0.002*[#  27]+0.001*[#   4]+0.001*[#  22]
    |psi|^2 = 0.990
==== e(  14) =    -3.79414 eV ==== 
     psi = 0.185*[#  36]+0.184*[#  14]+0.162*[#  32]+0.160*[#  18]+0.061*[#  26]
          +0.061*[#   8]+0.039*[#  28]+0.039*[#  10]+0.023*[#  23]+0.023*[#   5]
          +0.008*[#  15]+0.008*[#  29]+0.006*[#  11]+0.007*[#  33]+0.004*[#   1]
          +0.004*[#  19]+0.003*[#   9]+0.003*[#  27]+0.002*[#  12]+0.002*[#  34]
          +0.002*[#   4]+0.002*[#  22]
    |psi|^2 = 0.988
==== e(  15) =    -3.25149 eV ==== 
     psi = 0.175*[#  18]+0.171*[#  32]+0.137*[#  14]+0.133*[#  36]+0.086*[#   7]
          +0.084*[#  25]+0.040*[#   6]+0.039*[#  24]+0.024*[#  16]+0.024*[#  30]
          +0.010*[#  13]+0.010*[#  15]+0.010*[#  29]+0.010*[#  35]+0.007*[#  11]
          +0.007*[#  33]+0.006*[#  17]+0.006*[#  31]+0.003*[#   2]+0.003*[#  20]
          +0.002*[#   8]+0.002*[#  26]+0.001*[#  12]+0.001*[#  34]+0.001*[#   5]
          +0.001*[#  23]
    |psi|^2 = 0.993
==== e(  16) =    -3.19971 eV ==== 
     psi = 0.193*[#  36]+0.188*[#  14]+0.129*[#  32]+0.125*[#  18]+0.074*[#  25]
          +0.072*[#   7]+0.053*[#  24]+0.051*[#   6]+0.014*[#  31]+0.014*[#  17]
          +0.010*[#  35]+0.010*[#  13]+0.009*[#  29]+0.009*[#  15]+0.009*[#  33]
          +0.008*[#  11]+0.006*[#  12]+0.006*[#  34]+0.004*[#   2]+0.004*[#  20]
          
    |psi|^2 = 0.992
==== e(  17) =    -2.38119 eV ==== 
     psi = 0.127*[#  16]+0.127*[#  30]+0.126*[#   8]+0.126*[#  26]+0.094*[#  12]
          +0.093*[#  34]+0.061*[#   5]+0.061*[#  23]+0.022*[#  14]+0.022*[#  36]
          +0.017*[#  11]+0.017*[#  33]+0.017*[#  17]+0.017*[#  31]+0.011*[#  15]
          +0.011*[#  29]+0.007*[#   6]+0.007*[#  24]+0.005*[#   9]+0.005*[#  27]
          +0.002*[#   4]+0.002*[#  22]+0.002*[#  18]+0.002*[#  32]+0.001*[#   7]
          +0.001*[#  25]+0.001*[#   3]+0.001*[#  21]
    |psi|^2 = 0.991
==== e(  18) =    -2.08790 eV ==== 
     psi = 0.123*[#  26]+0.123*[#   8]+0.117*[#  34]+0.117*[#  12]+0.081*[#  30]
          +0.080*[#  16]+0.077*[#  23]+0.077*[#   5]+0.019*[#  18]+0.019*[#  32]
          +0.018*[#  13]+0.017*[#  35]+0.017*[#  15]+0.017*[#  29]+0.014*[#  11]
          +0.014*[#  33]+0.011*[#  14]+0.011*[#  36]+0.006*[#   9]+0.006*[#  27]
          +0.005*[#   6]+0.005*[#  24]+0.002*[#   4]+0.002*[#  22]+0.002*[#  10]
          +0.002*[#  28]+0.001*[#  17]+0.001*[#  31]
    |psi|^2 = 0.989
==== e(  19) =    -1.42723 eV ==== 
     psi = 0.188*[#   6]+0.186*[#  24]+0.121*[#  13]+0.120*[#  35]+0.093*[#  17]
          +0.092*[#  31]+0.034*[#  12]+0.034*[#  34]+0.019*[#  14]+0.019*[#  36]
          +0.016*[#  16]+0.016*[#  30]+0.012*[#  18]+0.011*[#  32]+0.005*[#  11]
          +0.005*[#  33]+0.003*[#  26]+0.003*[#   7]+0.003*[#   8]+0.003*[#  25]
          +0.002*[#   5]+0.002*[#  23]+0.001*[#  15]+0.001*[#  29]
    |psi|^2 = 0.991
==== e(  20) =    -1.32341 eV ==== 
     psi = 0.175*[#  24]+0.173*[#   6]+0.133*[#  31]+0.131*[#  17]+0.095*[#  35]
          +0.094*[#  13]+0.037*[#  32]+0.036*[#  18]+0.028*[#  36]+0.028*[#  14]
          +0.012*[#  30]+0.011*[#  16]+0.005*[#  15]+0.005*[#  29]+0.004*[#  34]
          +0.004*[#  12]+0.003*[#   8]+0.003*[#  26]+0.002*[#   5]+0.002*[#  23]
          +0.002*[#   2]+0.002*[#  20]+0.001*[#   7]+0.001*[#  25]+0.001*[#  11]
          +0.001*[#  33]
    |psi|^2 = 0.990
==== e(  21) =    -0.25624 eV ==== 
     psi = 0.193*[#  16]+0.192*[#  30]+0.115*[#  12]+0.114*[#  34]+0.081*[#   7]
          +0.080*[#  25]+0.036*[#  14]+0.036*[#  36]+0.023*[#  18]+0.023*[#  32]
          +0.019*[#  15]+0.019*[#  29]+0.014*[#  11]+0.014*[#  33]+0.013*[#  17]
          +0.013*[#  31]+0.002*[#   2]+0.002*[#  20]+0.001*[#   6]+0.001*[#  24]
          
    |psi|^2 = 0.992
==== e(  22) =    -0.05303 eV ==== 
     psi = 0.176*[#  12]+0.175*[#  34]+0.109*[#  30]+0.107*[#  16]+0.057*[#  18]
          +0.057*[#  32]+0.056*[#  25]+0.056*[#   7]+0.044*[#  36]+0.044*[#  14]
          +0.028*[#  13]+0.026*[#  35]+0.013*[#  11]+0.013*[#  33]+0.009*[#  29]
          +0.009*[#  15]+0.003*[#  31]+0.003*[#  17]+0.003*[#   2]+0.003*[#  20]
          
    |psi|^2 = 0.992
==== e(  23) =     0.03685 eV ==== 
     psi = 0.180*[#  13]+0.180*[#  35]+0.146*[#  17]+0.143*[#  31]+0.069*[#  34]
          +0.067*[#  12]+0.035*[#   5]+0.035*[#  23]+0.023*[#  16]+0.021*[#  30]
          +0.009*[#   8]+0.009*[#  26]+0.008*[#  32]+0.007*[#  18]+0.005*[#  33]
          +0.005*[#  11]+0.004*[#  10]+0.004*[#  28]+0.002*[#   4]+0.002*[#  22]
          +0.002*[#   3]+0.002*[#  15]+0.002*[#  21]+0.002*[#  25]+0.002*[#  29]
          +0.001*[#   7]
    |psi|^2 = 0.967
==== e(  24) =     0.14822 eV ==== 
     psi = 0.180*[#  31]+0.178*[#  17]+0.140*[#  35]+0.138*[#  13]+0.063*[#  30]
          +0.062*[#  16]+0.045*[#  23]+0.045*[#   5]+0.023*[#  34]+0.022*[#  12]
          +0.012*[#  26]+0.012*[#   8]+0.007*[#  14]+0.007*[#  36]+0.005*[#  10]
          +0.005*[#  28]+0.004*[#  15]+0.004*[#  29]+0.002*[#   4]+0.002*[#  22]
          +0.002*[#   3]+0.002*[#  11]+0.002*[#  21]+0.002*[#  33]
    |psi|^2 = 0.966
==== e(  25) =     1.35996 eV ==== 
     psi = 0.102*[#   8]+0.101*[#  26]+0.100*[#   9]+0.099*[#  27]+0.076*[#   5]
          +0.075*[#  23]+0.057*[#  17]+0.056*[#  31]+0.053*[#  12]+0.052*[#  34]
          +0.047*[#  13]+0.046*[#  35]+0.040*[#  16]+0.040*[#  30]+0.005*[#  14]
          +0.005*[#  36]+0.002*[#  10]+0.002*[#  28]+0.002*[#  18]+0.002*[#  32]
          +0.001*[#   4]+0.001*[#  22]
    |psi|^2 = 0.965
==== e(  26) =     1.43860 eV ==== 
     psi = 0.099*[#  27]+0.098*[#   9]+0.097*[#  26]+0.096*[#   8]+0.090*[#  23]
          +0.089*[#   5]+0.059*[#  35]+0.059*[#  13]+0.051*[#  31]+0.051*[#  17]
          +0.044*[#  30]+0.044*[#  16]+0.038*[#  34]+0.037*[#  12]+0.005*[#  18]
          +0.005*[#  32]+0.002*[#  14]+0.002*[#  36]+0.001*[#   4]+0.001*[#  22]
          +0.001*[#  10]+0.001*[#  28]
    |psi|^2 = 0.972

 k =   0.2222222222  0.3849001795  0.0000000000
==== e(   1) =   -58.97310 eV ==== 
     psi = 0.955*[#  19]+0.009*[#   1]+0.009*[#  28]+0.005*[#  32]+0.005*[#  36]
          +0.003*[#  30]+0.003*[#  34]+0.003*[#  31]+0.003*[#  35]+0.002*[#  27]
          
    |psi|^2 = 1.000
==== e(   2) =   -58.97256 eV ==== 
     psi = 0.955*[#   1]+0.009*[#  19]+0.009*[#  10]+0.005*[#  14]+0.005*[#  18]
          +0.003*[#  12]+0.003*[#  16]+0.003*[#  13]+0.003*[#  17]+0.002*[#   9]
          
    |psi|^2 = 1.000
==== e(   3) =   -33.24482 eV ==== 
     psi = 0.674*[#  22]+0.229*[#  21]+0.052*[#   4]+0.018*[#   3]+0.005*[#  30]
          +0.005*[#  34]+0.005*[#  28]+0.002*[#  29]+0.002*[#  33]+0.001*[#  31]
          +0.001*[#  35]
    |psi|^2 = 1.000
==== e(   4) =   -33.24429 eV ==== 
     psi = 0.675*[#   4]+0.229*[#   3]+0.052*[#  22]+0.018*[#  21]+0.005*[#  12]
          +0.005*[#  16]+0.005*[#  10]+0.002*[#  11]+0.002*[#  15]+0.001*[#  13]
          +0.001*[#  17]
    |psi|^2 = 1.000
==== e(   5) =   -33.10350 eV ==== 
     psi = 0.761*[#  20]+0.222*[#   2]+0.003*[#  32]+0.003*[#  36]+0.002*[#  31]
          +0.002*[#  35]
    |psi|^2 = 1.000
[...]
          +0.045*[#  24]+0.043*[#   7]+0.041*[#  25]+0.004*[#  27]+0.003*[#   9]
          +0.003*[#  26]+0.003*[#  34]+0.003*[#  12]+0.002*[#   8]+0.002*[#  14]
          +0.002*[#  36]+0.001*[#  28]
    |psi|^2 = 0.999
==== e(  12) =   -10.15357 eV ==== 
     psi = 0.264*[#  29]+0.260*[#  15]+0.141*[#  33]+0.127*[#  11]+0.052*[#  24]
          +0.050*[#   6]+0.048*[#  25]+0.045*[#   7]+0.002*[#  16]+0.002*[#  30]
          
    |psi|^2 = 0.999
==== e(  13) =    -3.49087 eV ==== 
     psi = 0.160*[#  31]+0.160*[#  17]+0.125*[#  32]+0.125*[#  18]+0.058*[#   6]
          +0.058*[#  24]+0.041*[#   7]+0.041*[#  25]+0.019*[#   8]+0.019*[#  26]
          +0.018*[#   5]+0.018*[#  23]+0.017*[#  10]+0.017*[#  28]+0.015*[#  14]
          +0.015*[#  36]+0.015*[#   9]+0.015*[#  27]+0.009*[#  16]+0.009*[#  30]
          +0.007*[#  13]+0.007*[#  35]+0.004*[#  11]+0.004*[#  33]+0.003*[#  12]
          +0.003*[#  34]+0.001*[#   3]+0.001*[#  21]+0.001*[#   1]+0.001*[#  19]
          
    |psi|^2 = 0.992
==== e(  14) =    -3.40577 eV ==== 
     psi = 0.143*[#  13]+0.137*[#  14]+0.122*[#  35]+0.121*[#  36]+0.073*[#   6]
          +0.061*[#  24]+0.056*[#   7]+0.047*[#  25]+0.034*[#  17]+0.033*[#  31]
          +0.019*[#   5]+0.018*[#  23]+0.017*[#   8]+0.016*[#  10]+0.016*[#  26]
          +0.015*[#  28]+0.012*[#   9]+0.011*[#  27]+0.006*[#  16]+0.006*[#  18]
          +0.006*[#  30]+0.004*[#  32]+0.003*[#  15]+0.003*[#  29]+0.002*[#  12]
          +0.002*[#  11]+0.002*[#  34]+0.001*[#  33]+0.001*[#   1]+0.001*[#   3]
          
    |psi|^2 = 0.991
==== e(  15) =    -3.39092 eV ==== 
     psi = 0.142*[#  35]+0.123*[#  13]+0.111*[#  24]+0.099*[#   6]+0.083*[#  25]
          +0.077*[#  36]+0.074*[#   7]+0.062*[#  14]+0.060*[#  32]+0.058*[#  18]
          +0.028*[#  31]+0.027*[#  17]+0.004*[#  23]+0.004*[#  28]+0.005*[#  29]
          +0.004*[#  26]+0.004*[#  15]+0.004*[#   5]+0.004*[#  10]+0.004*[#  27]
          +0.004*[#   8]+0.003*[#   9]+0.001*[#  30]+0.001*[#  34]+0.001*[#  12]
          +0.001*[#  33]+0.001*[#  11]
    |psi|^2 = 0.993
==== e(  16) =    -3.33110 eV ==== 
     psi = 0.122*[#  31]+0.122*[#  17]+0.093*[#  32]+0.093*[#  18]+0.065*[#  35]
          +0.063*[#  13]+0.061*[#  36]+0.060*[#  14]+0.044*[#  23]+0.043*[#   5]
          +0.039*[#  28]+0.038*[#  10]+0.034*[#  26]+0.033*[#   8]+0.020*[#  27]
          +0.020*[#   9]+0.004*[#   6]+0.004*[#  24]+0.004*[#   7]+0.003*[#  25]
          +0.003*[#  12]+0.003*[#  34]+0.002*[#   3]+0.002*[#  21]+0.002*[#   1]
          +0.002*[#  19]+0.002*[#  11]+0.002*[#  33]+0.001*[#  16]+0.001*[#  30]
          +0.001*[#  15]+0.001*[#  29]
    |psi|^2 = 0.991
==== e(  17) =    -2.14948 eV ==== 
     psi = 0.137*[#  16]+0.136*[#  30]+0.083*[#   9]+0.083*[#  27]+0.073*[#  12]
          +0.072*[#  34]+0.047*[#  17]+0.047*[#  31]+0.032*[#   8]+0.031*[#  26]
          +0.028*[#   5]+0.028*[#  23]+0.025*[#  18]+0.025*[#  32]+0.022*[#  13]
          +0.022*[#  35]+0.018*[#  15]+0.018*[#  29]+0.015*[#  11]+0.015*[#  33]
          +0.006*[#   7]+0.006*[#  25]+0.005*[#  10]+0.005*[#  28]+0.004*[#   4]
          +0.004*[#  22]
    |psi|^2 = 0.990
==== e(  18) =    -1.93069 eV ==== 
     psi = 0.106*[#  12]+0.106*[#  34]+0.081*[#  30]+0.080*[#  16]+0.070*[#  27]
          +0.070*[#   9]+0.051*[#  13]+0.051*[#  35]+0.043*[#  23]+0.043*[#   5]
          +0.035*[#  14]+0.035*[#  36]+0.034*[#   8]+0.034*[#  26]+0.020*[#  31]
          +0.020*[#  17]+0.018*[#  11]+0.018*[#  33]+0.017*[#  29]+0.017*[#  15]
          +0.008*[#  10]+0.008*[#  28]+0.004*[#   7]+0.004*[#  25]+0.004*[#  18]
          +0.004*[#  32]+0.003*[#   4]+0.003*[#  22]+0.001*[#   3]+0.001*[#  21]
          
    |psi|^2 = 0.989
==== e(  19) =    -1.51264 eV ==== 
     psi = 0.128*[#  14]+0.128*[#  36]+0.092*[#  17]+0.092*[#  31]+0.072*[#   7]
          +0.072*[#  25]+0.050*[#  34]+0.050*[#  12]+0.047*[#  18]+0.046*[#  32]
          +0.037*[#  16]+0.037*[#  30]+0.029*[#  13]+0.029*[#  35]+0.009*[#  11]
          +0.009*[#  33]+0.007*[#   5]+0.007*[#   8]+0.008*[#  23]+0.008*[#  26]
          +0.005*[#   9]+0.005*[#  27]+0.004*[#   6]+0.004*[#  24]+0.003*[#  15]
          +0.003*[#  29]+0.003*[#   2]+0.003*[#  20]+0.001*[#  10]+0.001*[#  28]
          
    |psi|^2 = 0.988
==== e(  20) =    -1.29655 eV ==== 
     psi = 0.194*[#  18]+0.193*[#  32]+0.124*[#  13]+0.124*[#  35]+0.041*[#  12]
          +0.041*[#  34]+0.040*[#  31]+0.040*[#  17]+0.036*[#   7]+0.036*[#  25]
          +0.019*[#   5]+0.019*[#  23]+0.009*[#   8]+0.009*[#  26]+0.007*[#  11]
          +0.007*[#  33]+0.006*[#   9]+0.006*[#  27]+0.005*[#  14]+0.005*[#  36]
          +0.003*[#   2]+0.003*[#  20]+0.003*[#  10]+0.002*[#  28]+0.001*[#   3]
          +0.001*[#   4]+0.001*[#  16]+0.001*[#  21]+0.001*[#  22]+0.001*[#  30]
          
    |psi|^2 = 0.982
==== e(  21) =    -1.14547 eV ==== 
     psi = 0.125*[#  14]+0.125*[#  36]+0.093*[#  35]+0.092*[#  13]+0.059*[#  16]
          +0.059*[#  30]+0.052*[#  32]+0.051*[#  18]+0.045*[#  12]+0.045*[#  34]
          +0.027*[#  25]+0.027*[#   7]+0.024*[#   8]+0.024*[#  26]+0.020*[#  17]
          +0.020*[#  31]+0.013*[#  15]+0.013*[#  29]+0.013*[#   5]+0.013*[#  23]
          +0.006*[#  11]+0.006*[#  33]+0.004*[#  10]+0.004*[#  28]+0.003*[#   9]
          +0.003*[#  27]+0.003*[#   3]+0.003*[#  21]+0.001*[#   2]+0.001*[#  20]
          +0.001*[#   6]+0.001*[#  24]+0.001*[#   4]+0.001*[#  22]
    |psi|^2 = 0.981
==== e(  22) =    -1.02770 eV ==== 
     psi = 0.106*[#  31]+0.106*[#  17]+0.101*[#  36]+0.100*[#  14]+0.065*[#  18]
          +0.065*[#  32]+0.052*[#  30]+0.052*[#  34]+0.052*[#  12]+0.052*[#  16]
          +0.030*[#  23]+0.030*[#   5]+0.019*[#  26]+0.018*[#   8]+0.013*[#   9]
          +0.013*[#  27]+0.012*[#  35]+0.012*[#  13]+0.010*[#   7]+0.010*[#  29]
          +0.010*[#  15]+0.010*[#  25]+0.008*[#  11]+0.008*[#  33]+0.006*[#  10]
          +0.006*[#  28]+0.003*[#   3]+0.003*[#  21]+0.002*[#   4]+0.002*[#  22]
          
    |psi|^2 = 0.977
==== e(  23) =    -0.24703 eV ==== 
     psi = 0.151*[#  12]+0.151*[#  34]+0.144*[#  16]+0.143*[#  30]+0.064*[#   6]
          +0.064*[#  24]+0.031*[#  13]+0.030*[#  35]+0.026*[#   7]+0.026*[#  25]
          +0.020*[#  11]+0.020*[#  17]+0.020*[#  33]+0.020*[#  31]+0.017*[#  15]
          +0.017*[#  29]+0.016*[#  14]+0.016*[#  36]+0.007*[#  18]+0.007*[#  32]
          +0.002*[#   2]+0.002*[#  20]
    |psi|^2 = 0.996
==== e(  24) =    -0.01992 eV ==== 
     psi = 0.124*[#  30]+0.123*[#  16]+0.118*[#  34]+0.117*[#  12]+0.056*[#  31]
          +0.056*[#  17]+0.048*[#  24]+0.048*[#   6]+0.045*[#  35]+0.045*[#  13]
          +0.037*[#  18]+0.037*[#  32]+0.026*[#  36]+0.026*[#  14]+0.015*[#  15]
          +0.015*[#  29]+0.012*[#  33]+0.012*[#  11]+0.011*[#   7]+0.011*[#  25]
          +0.003*[#   2]+0.003*[#  20]
    |psi|^2 = 0.992
==== e(  25) =     1.44651 eV ==== 
     psi = 0.167*[#   8]+0.166*[#  26]+0.147*[#   9]+0.146*[#  27]+0.056*[#   5]
          +0.056*[#  23]+0.031*[#  18]+0.031*[#  32]+0.025*[#  14]+0.024*[#  36]
          +0.024*[#  13]+0.024*[#  35]+0.023*[#  17]+0.023*[#  31]+0.008*[#  12]
          +0.008*[#  34]+0.006*[#  16]+0.006*[#  30]+0.006*[#  10]+0.006*[#  28]
          
    |psi|^2 = 0.986
==== e(  26) =     1.52642 eV ==== 
     psi = 0.161*[#  26]+0.160*[#   8]+0.146*[#  27]+0.145*[#   9]+0.062*[#  23]
          +0.061*[#   5]+0.031*[#  36]+0.031*[#  14]+0.026*[#  32]+0.026*[#  18]
          +0.026*[#  17]+0.026*[#  31]+0.025*[#  35]+0.025*[#  13]+0.007*[#  16]
          +0.007*[#  30]+0.005*[#  12]+0.005*[#  34]+0.005*[#  10]+0.005*[#  28]
          
    |psi|^2 = 0.989

 k =   0.5555555556 -0.0641500299  0.0000000000
==== e(   1) =   -58.96585 eV ==== 
     psi = 0.952*[#  19]+0.025*[#  28]+0.006*[#  31]+0.006*[#  35]+0.003*[#  32]
          +0.003*[#  36]+0.001*[#  26]+0.001*[#   1]
    |psi|^2 = 1.000
==== e(   2) =   -58.96532 eV ==== 
     psi = 0.952*[#   1]+0.025*[#  10]+0.006*[#  13]+0.006*[#  17]+0.003*[#  14]
          +0.003*[#  18]+0.001*[#   8]+0.001*[#  19]
    |psi|^2 = 1.000
==== e(   3) =   -33.27682 eV ==== 
     psi = 0.850*[#  21]+0.106*[#  22]+0.014*[#   3]+0.006*[#  30]+0.006*[#  34]
          +0.003*[#  26]+0.003*[#  29]+0.003*[#  33]+0.002*[#   4]+0.001*[#  32]
          +0.001*[#  36]
    |psi|^2 = 1.000
==== e(   4) =   -33.27636 eV ==== 
     psi = 0.850*[#   3]+0.106*[#   4]+0.014*[#  21]+0.006*[#  12]+0.006*[#  16]
          +0.003*[#   8]+0.003*[#  11]+0.003*[#  15]+0.002*[#  22]+0.001*[#  14]
          +0.001*[#  18]
    |psi|^2 = 1.000
==== e(   5) =   -33.11897 eV ==== 
     psi = 0.866*[#  22]+0.109*[#  21]+0.008*[#   4]+0.004*[#  27]+0.002*[#  32]
          +0.002*[#  36]+0.002*[#  31]+0.002*[#  35]+0.001*[#   3]+0.001*[#  30]
          +0.001*[#  34]
    |psi|^2 = 1.000
==== e(   6) =   -33.11850 eV ==== 
     psi = 0.866*[#   4]+0.109*[#   3]+0.008*[#  22]+0.004*[#   9]+0.002*[#  14]
          +0.002*[#  18]+0.002*[#  13]+0.002*[#  17]+0.001*[#  12]+0.001*[#  16]
          +0.001*[#  21]
    |psi|^2 = 1.000
==== e(   7) =   -33.08931 eV ==== 
     psi = 0.860*[#  20]+0.124*[#   2]+0.004*[#  31]+0.004*[#  35]+0.002*[#  32]
          +0.002*[#  36]
    |psi|^2 = 1.000
==== e(   8) =   -33.08884 eV ==== 
     psi = 0.860*[#   2]+0.124*[#  20]+0.004*[#  13]+0.004*[#  17]+0.002*[#  14]
          +0.002*[#  18]
    |psi|^2 = 1.000
==== e(   9) =   -10.28427 eV ==== 
     psi = 0.339*[#  15]+0.339*[#  29]+0.079*[#  11]+0.075*[#  33]+0.025*[#   9]
          +0.024*[#  27]+0.018*[#   8]+0.017*[#  26]+0.010*[#  10]+0.010*[#  28]
          +0.009*[#  24]+0.008*[#   6]+0.004*[#   3]+0.004*[#  16]+0.004*[#  21]
          +0.004*[#  30]+0.004*[#  17]+0.004*[#  31]+0.003*[#  12]+0.003*[#  34]
          +0.003*[#  25]+0.003*[#   7]+0.002*[#   4]+0.002*[#  22]
    |psi|^2 = 0.998
==== e(  10) =   -10.23092 eV ==== 
     psi = 0.284*[#  11]+0.264*[#  33]+0.150*[#  29]+0.138*[#  15]+0.028*[#   9]
          +0.028*[#  27]+0.020*[#   8]+0.019*[#  26]+0.010*[#  10]+0.010*[#  28]
          +0.006*[#  12]+0.006*[#  34]+0.005*[#  16]+0.005*[#  30]+0.005*[#   3]
          +0.005*[#  21]+0.002*[#   6]+0.002*[#   4]+0.002*[#  22]+0.002*[#  13]
          +0.002*[#  35]+0.002*[#  24]
    |psi|^2 = 0.998
==== e(  11) =   -10.18773 eV ==== 
     psi = 0.335*[#  33]+0.325*[#  11]+0.076*[#  15]+0.066*[#   6]+0.063*[#  24]
          +0.061*[#  29]+0.024*[#   7]+0.023*[#  25]+0.004*[#  27]+0.003*[#   9]
          +0.003*[#  26]+0.003*[#  34]+0.003*[#  12]+0.002*[#   8]+0.002*[#  13]
          +0.002*[#  35]+0.001*[#  28]
    |psi|^2 = 0.999
==== e(  12) =   -10.15462 eV ==== 
     psi = 0.265*[#  29]+0.261*[#  15]+0.140*[#  33]+0.126*[#  11]+0.073*[#  24]
          +0.070*[#   6]+0.027*[#  25]+0.025*[#   7]+0.002*[#  16]+0.002*[#  30]
          
    |psi|^2 = 0.999
==== e(  13) =    -3.49007 eV ==== 
     psi = 0.243*[#  31]+0.242*[#  17]+0.065*[#   7]+0.065*[#  25]+0.043*[#  18]
          +0.043*[#  32]+0.033*[#   9]+0.033*[#  27]+0.031*[#   6]+0.031*[#  24]
          +0.019*[#   5]+0.019*[#  23]+0.017*[#  10]+0.017*[#  28]+0.016*[#  14]
          +0.016*[#  36]+0.009*[#  16]+0.009*[#  30]+0.007*[#  13]+0.007*[#  35]
          +0.004*[#  11]+0.004*[#  33]+0.003*[#  12]+0.003*[#  34]+0.002*[#   8]
          +0.002*[#  26]+0.001*[#   4]+0.001*[#  22]+0.001*[#   1]+0.001*[#  19]
          
    |psi|^2 = 0.992
==== e(  14) =    -3.40496 eV ==== 
     psi = 0.243*[#  13]+0.213*[#  35]+0.079*[#   7]+0.066*[#  25]+0.051*[#   6]
          +0.043*[#  24]+0.038*[#  18]+0.038*[#  14]+0.034*[#  32]+0.031*[#  36]
          +0.027*[#   9]+0.025*[#  27]+0.019*[#   5]+0.018*[#  23]+0.016*[#  10]
          +0.015*[#  28]+0.006*[#  16]+0.006*[#  30]+0.003*[#  15]+0.003*[#  29]
          +0.002*[#  12]+0.002*[#   8]+0.002*[#  31]+0.002*[#  34]+0.002*[#  11]
          +0.002*[#  26]+0.001*[#  33]+0.001*[#   4]+0.001*[#   1]+0.001*[#  22]
          
    |psi|^2 = 0.992
==== e(  15) =    -3.38943 eV ==== 
     psi = 0.155*[#  35]+0.128*[#  13]+0.122*[#  25]+0.108*[#   7]+0.074*[#  24]
          +0.066*[#   6]+0.063*[#  17]+0.063*[#  36]+0.061*[#  31]+0.057*[#  14]
          +0.026*[#  32]+0.022*[#  18]+0.007*[#  27]+0.006*[#   9]+0.005*[#  29]
          +0.004*[#  28]+0.004*[#  15]+0.004*[#  23]+0.003*[#   5]+0.004*[#  10]
          +0.001*[#  30]+0.001*[#  33]+0.001*[#  34]+0.001*[#  11]+0.001*[#  12]
          +0.001*[#  16]
    |psi|^2 = 0.993
==== e(  16) =    -3.33149 eV ==== 
     psi = 0.194*[#  31]+0.193*[#  17]+0.112*[#  35]+0.108*[#  13]+0.049*[#  27]
          +0.048*[#   9]+0.044*[#  23]+0.043*[#   5]+0.039*[#  28]+0.038*[#  10]
          +0.023*[#  18]+0.023*[#  32]+0.013*[#  36]+0.013*[#  14]+0.005*[#   8]
          +0.005*[#  26]+0.005*[#   6]+0.004*[#  24]+0.004*[#   7]+0.004*[#  25]
          +0.003*[#  12]+0.003*[#  34]+0.002*[#   1]+0.002*[#  19]+0.002*[#   4]
          +0.002*[#  11]+0.002*[#  22]+0.002*[#  33]+0.001*[#  16]+0.001*[#  30]
          +0.001*[#  15]+0.001*[#  29]
    |psi|^2 = 0.991
==== e(  17) =    -2.14885 eV ==== 
     psi = 0.137*[#  16]+0.136*[#  30]+0.079*[#   9]+0.079*[#  27]+0.073*[#  12]
          +0.072*[#  34]+0.069*[#  18]+0.069*[#  32]+0.036*[#   8]+0.036*[#  26]
          +0.028*[#   5]+0.027*[#  23]+0.018*[#  14]+0.018*[#  15]+0.018*[#  29]
          +0.018*[#  36]+0.015*[#  11]+0.015*[#  33]+0.005*[#  10]+0.005*[#  28]
          +0.004*[#  13]+0.004*[#  35]+0.003*[#   6]+0.003*[#   7]+0.003*[#  24]
          +0.003*[#  25]+0.003*[#  17]+0.003*[#  31]+0.002*[#   3]+0.002*[#  21]
          +0.002*[#   4]+0.002*[#  22]
    |psi|^2 = 0.990
==== e(  18) =    -1.93048 eV ==== 
     psi = 0.105*[#  12]+0.105*[#  34]+0.081*[#  30]+0.080*[#  16]+0.073*[#  14]
          +0.073*[#  36]+0.072*[#  27]+0.072*[#   9]+0.043*[#  23]+0.043*[#   5]
          +0.033*[#  26]+0.032*[#   8]+0.022*[#  32]+0.022*[#  18]+0.018*[#  11]
          +0.018*[#  33]+0.017*[#  29]+0.017*[#  15]+0.013*[#  13]+0.013*[#  35]
          +0.008*[#  10]+0.008*[#  28]+0.002*[#   6]+0.002*[#  24]+0.002*[#   3]
          +0.002*[#  21]+0.002*[#   4]+0.002*[#  22]+0.002*[#   7]+0.002*[#  25]
          +0.001*[#  17]+0.001*[#  31]
    |psi|^2 = 0.989
==== e(  19) =    -1.51266 eV ==== 
     psi = 0.101*[#  18]+0.100*[#  32]+0.091*[#  13]+0.091*[#  35]+0.065*[#  14]
          +0.065*[#  36]+0.057*[#   6]+0.057*[#  24]+0.050*[#  34]+0.050*[#  12]
          +0.039*[#  17]+0.039*[#  31]+0.037*[#  16]+0.037*[#  30]+0.019*[#   7]
          +0.019*[#  25]+0.012*[#  27]+0.012*[#   9]+0.009*[#  11]+0.009*[#  33]
          +0.007*[#   5]+0.008*[#  23]+0.003*[#  15]+0.003*[#  29]+0.003*[#   2]
          +0.003*[#  20]+0.001*[#  10]+0.001*[#  28]
    |psi|^2 = 0.988
==== e(  20) =    -1.29600 eV ==== 
     psi = 0.133*[#  18]+0.133*[#  32]+0.105*[#  14]+0.104*[#  36]+0.100*[#  17]
          +0.099*[#  31]+0.041*[#  12]+0.041*[#  34]+0.027*[#   6]+0.027*[#  24]
          +0.025*[#  35]+0.025*[#  13]+0.019*[#   5]+0.019*[#  23]+0.011*[#   7]
          +0.010*[#  25]+0.009*[#   8]+0.009*[#  26]+0.007*[#  11]+0.007*[#  33]
          +0.006*[#   9]+0.006*[#  27]+0.003*[#   2]+0.003*[#  20]+0.002*[#  10]
          +0.002*[#  28]+0.002*[#   3]+0.002*[#  21]+0.001*[#  16]+0.001*[#  30]
          
    |psi|^2 = 0.982
==== e(  21) =    -1.14513 eV ==== 
     psi = 0.185*[#  36]+0.185*[#  14]+0.063*[#  31]+0.063*[#  17]+0.059*[#  16]
          +0.058*[#  30]+0.046*[#  12]+0.045*[#  34]+0.032*[#  13]+0.032*[#  35]
          +0.021*[#  24]+0.020*[#   6]+0.017*[#   8]+0.017*[#  26]+0.013*[#  15]
          +0.013*[#  29]+0.013*[#   5]+0.013*[#  23]+0.011*[#   9]+0.011*[#  27]
          +0.008*[#  18]+0.008*[#  32]+0.008*[#  25]+0.008*[#   7]+0.006*[#  11]
          +0.006*[#  33]+0.004*[#  10]+0.004*[#  28]+0.003*[#   3]+0.003*[#  21]
          +0.001*[#   2]+0.001*[#  20]+0.001*[#   4]+0.001*[#  22]
    |psi|^2 = 0.981
==== e(  22) =    -1.02671 eV ==== 
     psi = 0.167*[#  32]+0.167*[#  18]+0.058*[#  35]+0.057*[#  13]+0.055*[#  36]
          +0.054*[#  14]+0.053*[#  30]+0.052*[#  34]+0.052*[#  12]+0.052*[#  16]
          +0.030*[#  23]+0.030*[#   5]+0.027*[#  26]+0.027*[#   8]+0.010*[#  29]
          +0.010*[#  15]+0.008*[#  11]+0.008*[#  33]+0.006*[#   6]+0.006*[#  24]
          +0.006*[#  10]+0.006*[#  28]+0.004*[#   7]+0.004*[#  25]+0.004*[#   9]
          +0.004*[#  27]+0.004*[#   3]+0.004*[#  21]+0.003*[#  17]+0.003*[#  31]
          
    |psi|^2 = 0.977
==== e(  23) =    -0.24851 eV ==== 
     psi = 0.151*[#  12]+0.151*[#  34]+0.144*[#  16]+0.143*[#  30]+0.046*[#   6]
          +0.046*[#  24]+0.044*[#   7]+0.044*[#  25]+0.029*[#  14]+0.029*[#  36]
          +0.020*[#  11]+0.020*[#  33]+0.017*[#  13]+0.017*[#  15]+0.017*[#  29]
          +0.017*[#  35]+0.014*[#  18]+0.014*[#  17]+0.013*[#  32]+0.013*[#  31]
          +0.002*[#   2]+0.002*[#  20]
    |psi|^2 = 0.996
==== e(  24) =    -0.02088 eV ==== 
     psi = 0.124*[#  30]+0.123*[#  16]+0.118*[#  34]+0.117*[#  12]+0.052*[#  32]
          +0.052*[#  18]+0.041*[#  31]+0.041*[#  17]+0.037*[#  35]+0.037*[#  13]
          +0.035*[#  36]+0.034*[#  14]+0.032*[#  25]+0.032*[#   7]+0.028*[#  24]
          +0.028*[#   6]+0.015*[#  15]+0.015*[#  29]+0.012*[#  33]+0.012*[#  11]
          +0.003*[#   2]+0.003*[#  20]
    |psi|^2 = 0.992
==== e(  25) =     1.44624 eV ==== 
     psi = 0.165*[#   9]+0.165*[#  27]+0.148*[#   8]+0.148*[#  26]+0.056*[#   5]
          +0.056*[#  23]+0.038*[#  18]+0.038*[#  32]+0.034*[#  14]+0.033*[#  36]
          +0.016*[#  17]+0.016*[#  31]+0.015*[#  13]+0.015*[#  35]+0.008*[#  12]
          +0.008*[#  34]+0.006*[#  16]+0.006*[#  10]+0.006*[#  30]+0.006*[#  28]
          
    |psi|^2 = 0.986
==== e(  26) =     1.52605 eV ==== 
     psi = 0.154*[#  26]+0.153*[#   8]+0.153*[#  27]+0.152*[#   9]+0.062*[#  23]
          +0.061*[#   5]+0.040*[#  36]+0.040*[#  14]+0.037*[#  32]+0.037*[#  18]
          +0.016*[#  13]+0.016*[#  35]+0.015*[#  17]+0.015*[#  31]+0.007*[#  16]
          +0.007*[#  30]+0.005*[#  34]+0.005*[#  10]+0.005*[#  12]+0.005*[#  28]
          
    |psi|^2 = 0.989

Lowdin Charges: 

     Atom #   1: total charge =  13.6995, s =  2.4991, 
     Atom #   1: total charge =  13.6995, p =  5.9950, pz=  1.9992, px=  1.9979, py=  1.9979, 
     Atom #   1: total charge =  13.6995, d =  5.2053, dz2=  1.1519, dxz=  0.9547, dyz=  0.9546, dx2-y2=  1.0719, dxy=  1.0723, 
     Atom #   2: total charge =   6.0522, s =  1.7670, 
     Atom #   2: total charge =   6.0522, p =  4.2852, pz=  1.5457, px=  1.3697, py=  1.3698, 
     Atom #   2: total charge =   6.0522, d =  0.0000, dz2=  0.0000, dxz=  0.0000, dyz=  0.0000, dx2-y2=  0.0000, dxy=  0.0000, 
     Atom #   3: total charge =   6.0530, s =  1.7687, 
     Atom #   3: total charge =   6.0530, p =  4.2843, pz=  1.5312, px=  1.3765, py=  1.3766, 
     Atom #   3: total charge =   6.0530, d =  0.0000, dz2=  0.0000, dxz=  0.0000, dyz=  0.0000, dx2-y2=  0.0000, dxy=  0.0000, 
     Atom #   4: total charge =  13.6995, s =  2.4991, 
     Atom #   4: total charge =  13.6995, p =  5.9950, pz=  1.9992, px=  1.9979, py=  1.9979, 
     Atom #   4: total charge =  13.6995, d =  5.2054, dz2=  1.1519, dxz=  0.9547, dyz=  0.9546, dx2-y2=  1.0719, dxy=  1.0723, 
     Atom #   5: total charge =   6.0530, s =  1.7687, 
     Atom #   5: total charge =   6.0530, p =  4.2843, pz=  1.5312, px=  1.3765, py=  1.3766, 
     Atom #   5: total charge =   6.0530, d =  0.0000, dz2=  0.0000, dxz=  0.0000, dyz=  0.0000, dx2-y2=  0.0000, dxy=  0.0000, 
     Atom #   6: total charge =   6.0521, s =  1.7670, 
     Atom #   6: total charge =   6.0521, p =  4.2851, pz=  1.5457, px=  1.3696, py=  1.3698, 
     Atom #   6: total charge =   6.0521, d =  0.0000, dz2=  0.0000, dxz=  0.0000, dyz=  0.0000, dx2-y2=  0.0000, dxy=  0.0000, 
     Spilling Parameter:   0.0075
 
     PROJWFC      :     32.37s CPU     33.20s WALL

 
   This run was terminated on:  13:56:39  15Apr2024            

=------------------------------------------------------------------------------=
   JOB DONE.
=------------------------------------------------------------------------------=
