
     Program BANDS v.7.2 starts on 17Apr2024 at 16:38:39 

     This program is part of the open-source Quantum ESPRESSO suite
     for quantum simulation of materials; please cite
         "P. Giannozzi et al., J. Phys.:Condens. Matter 21 395502 (2009);
         "P. Giannozzi et al., J. Phys.:Condens. Matter 29 465901 (2017);
         "P. Giannozzi et al., J. Chem. Phys. 152 154105 (2020);
          URL http://www.quantum-espresso.org", 
     in publications or presentations arising from this work. More details at
     http://www.quantum-espresso.org/quote

     Parallel version (MPI & OpenMP), running on       8 processor cores
     Number of MPI processes:                 8
     Threads/MPI process:                     1

     MPI processes distributed on     1 nodes
     R & G space division:  proc/nbgrp/npool/nimage =       8
     0 MiB available memory on the printing compute node when the environment starts


     Reading xml data from directory:

     ./tmp/BN2L_AA_PBE_vdW.save/

     IMPORTANT: XC functional enforced from input :
     Exchange-correlation= VDW-DF2-B86R
                           (   1   4  26   0   2   0   0)
     Any further DFT definition will be discarded
     Please, verify this is what you really want


     Parallelization info
     --------------------
     sticks:   dense  smooth     PW     G-vecs:    dense   smooth      PW
     Min          45      45     14                 5791     5791    1010
     Max          46      46     16                 5824     5824    1027
     Sum         367     367    121                46525    46525    8181

     Using Slab Decomposition


     negative rho (up, down):  7.742E-06 0.000E+00


     %%%%%%%%%%%%%%%%%%%%%%%%%%%%%%%%%%%%%%%%%%%%%%%%%%%%%%%%%%%%%%%%%%%%%%%%
     %                                                                      %
     % You are using vdW-DF, which was implemented by the Thonhauser group. %
     % Please cite the following two papers that made this development      %
     % possible and the two reviews that describe the various versions:     %
     %                                                                      %
     %   T. Thonhauser et al., PRL 115, 136402 (2015).                      %
     %   T. Thonhauser et al., PRB 76, 125112 (2007).                       %
     %   K. Berland et al., Rep. Prog. Phys. 78, 066501 (2015).             %
     %   D.C. Langreth et al., J. Phys.: Condens. Matter 21, 084203 (2009). %
     %                                                                      %
     % If you are calculating stress with vdW-DF, please also cite:         %
     %                                                                      %
     %   R. Sabatini et al., J. Phys.: Condens. Matter 24, 424209 (2012).   %
     %                                                                      %
     %%%%%%%%%%%%%%%%%%%%%%%%%%%%%%%%%%%%%%%%%%%%%%%%%%%%%%%%%%%%%%%%%%%%%%%%

     %%%%%%%%%%%%%%%%%%%%%%%%%%%%%%%%%%%%%%%%%%%%%%%%%%%%%%%%%%%%%%%%%%%%%%%%
     %                                                                      %
     %  vdW-DF NEWS:                                                        %
     %                                                                      %
     %  * vdW-DF3 is now available. DOI: 10.1021/acs.jctc.0c00471           %
     %    use with input_dft = 'vdW-DF3-opt1' or 'vdW-DF3-opt2'             %
     %                                                                      %
     %  * Unscreened and range-separated hybrid vdW-DF-cx functionals       %
     %    DOI: 10.1063/1.4986522 and 10.1088/1361-648X/ac2ad2               %
     %    use with input_dft = 'vdW-DF-cx0'    and 'vdW-DF-ahcx'            %
     %  * Unscreened and range-separated hybrid vdW-DF2-b86r functionals    %
     %    DOI: 10.1063/1.4986522 and DOI: 10.1103/PhysRevX.12.041003        %
     %    use with input_dft = 'vdW-DF2-br0' and 'vdW-DF2-ahbr'             %
     %                                                                      %
     %%%%%%%%%%%%%%%%%%%%%%%%%%%%%%%%%%%%%%%%%%%%%%%%%%%%%%%%%%%%%%%%%%%%%%%%


     Reading collected, re-writing distributed wavefunctions
     high-symmetry point:  0.0000 0.0000 0.0000   x coordinate   0.0000
     high-symmetry point: -0.3333 0.5774 0.0000   x coordinate   0.6667
     high-symmetry point:  0.0000 0.5774 0.0000   x coordinate   1.0000
     high-symmetry point:  0.0000 0.0000 0.0000   x coordinate   1.5773

     Plottable bands (eV) written to file Bande_BN2L_AA_PBE_vdW.dat.gnu
     Bands written to file Bande_BN2L_AA_PBE_vdW.dat

 **************************************************************************

                    xk=(   0.00000,   0.00000,   0.00000  )

     point group C_3v (3m)  
     there are  3 classes
     the character table:

       E     2C3   3s_v 
A_1    1.00  1.00  1.00
A_2    1.00  1.00 -1.00
E      2.00 -1.00  0.00

     the symmetry operations in each class and the name of the first element:

     E        1
                                                                 
     2C3      2    3
                                                                 
     3s_v     4    5    6
                                                                 

     Band symmetry, C_3v (3m)   point group:

     e(  1 -  1) =    -20.09781  eV     1   --> A_1  L_1       
     e(  2 -  2) =    -20.00985  eV     1   --> A_1  L_1       
     e(  3 -  3) =     -8.07724  eV     1   --> A_1  L_1       
     e(  4 -  4) =     -7.29972  eV     1   --> A_1  L_1       
     e(  5 -  6) =     -3.84975  eV     2   --> E    L_3       
     e(  7 -  8) =     -3.83923  eV     2   --> E    L_3       
     e(  9 -  9) =      1.94834  eV     1   --> A_1  L_1       
     e( 10 - 10) =      2.52765  eV     1   --> A_1  L_1       
     e( 11 - 11) =      3.56882  eV     1   --> A_1  L_1       
     e( 12 - 12) =      4.51767  eV     1   --> A_1  L_1       
     e( 13 - 13) =      4.71882  eV     1   --> A_1  L_1       
     e( 14 - 14) =      6.45610  eV     1   --> A_1  L_1       
     e( 15 - 15) =      7.33515  eV     1   --> A_1  L_1       
     e( 16 - 17) =      9.14283  eV     2   --> E    L_3       
     e( 18 - 18) =      9.18474  eV     1   --> A_1  L_1       
     e( 19 - 20) =      9.18934  eV     2   --> E    L_3       

 **************************************************************************

 **************************************************************************

                    xk=(  -0.01587,   0.02749,   0.00000  )

     point group C_1 (1)    
     there are  1 classes
     the character table:

       E    
A      1.00

     the symmetry operations in each class and the name of the first element:

     E        1
                                                                 

     Band symmetry, C_1 (1)     point group:

     e(  1 -  1) =    -20.08340  eV     1   --> A              
     e(  2 -  2) =    -19.99543  eV     1   --> A              
     e(  3 -  3) =     -8.05707  eV     1   --> A              
     e(  4 -  4) =     -7.28060  eV     1   --> A              
     e(  5 -  5) =     -3.91412  eV     1   --> A              
     e(  6 -  6) =     -3.90182  eV     1   --> A              
     e(  7 -  7) =     -3.87969  eV     1   --> A              
     e(  8 -  8) =     -3.86871  eV     1   --> A              
     e(  9 -  9) =      1.97417  eV     1   --> A              
     e( 10 - 10) =      2.55119  eV     1   --> A              
     e( 11 - 11) =      3.59301  eV     1   --> A              
     e( 12 - 12) =      4.53936  eV     1   --> A              
     e( 13 - 13) =      4.74262  eV     1   --> A              
     e( 14 - 14) =      6.47354  eV     1   --> A              
     e( 15 - 15) =      7.35910  eV     1   --> A              
     e( 16 - 16) =      9.11888  eV     1   --> A              
     e( 17 - 17) =      9.17546  eV     1   --> A              
     e( 18 - 18) =      9.19770  eV     1   --> A              
     e( 19 - 19) =      9.21464  eV     1   --> A              
     e( 20 - 20) =      9.25436  eV     1   --> A              

 **************************************************************************

 **************************************************************************

                    xk=(  -0.03175,   0.05499,   0.00000  )

     Band symmetry, C_1 (1)     point group:

     e(  1 -  1) =    -20.03983  eV     1   --> A              
     e(  2 -  2) =    -19.95238  eV     1   --> A              
     e(  3 -  3) =     -7.99763  eV     1   --> A              
     e(  4 -  4) =     -7.22349  eV     1   --> A              
     e(  5 -  5) =     -4.09787  eV     1   --> A              
     e(  6 -  6) =     -4.08307  eV     1   --> A              
     e(  7 -  7) =     -3.96700  eV     1   --> A              
     e(  8 -  8) =     -3.95580  eV     1   --> A              
     e(  9 -  9) =      2.05096  eV     1   --> A              
     e( 10 - 10) =      2.62142  eV     1   --> A              
     e( 11 - 11) =      3.66530  eV     1   --> A              
     e( 12 - 12) =      4.60293  eV     1   --> A              
     e( 13 - 13) =      4.81371  eV     1   --> A              
     e( 14 - 14) =      6.52455  eV     1   --> A              
     e( 15 - 15) =      7.42917  eV     1   --> A              
     e( 16 - 16) =      9.08034  eV     1   --> A              
     e( 17 - 17) =      9.14361  eV     1   --> A              
     e( 18 - 18) =      9.22741  eV     1   --> A              
     e( 19 - 19) =      9.40203  eV     1   --> A              
     e( 20 - 20) =      9.43214  eV     1   --> A              

 **************************************************************************

 **************************************************************************

                    xk=(  -0.04762,   0.08248,   0.00000  )

     Band symmetry, C_1 (1)     point group:

     e(  1 -  1) =    -19.96746  eV     1   --> A              
     e(  2 -  2) =    -19.88082  eV     1   --> A              
     e(  3 -  3) =     -7.89880  eV     1   --> A              
     e(  4 -  4) =     -7.12863  eV     1   --> A              
     e(  5 -  5) =     -4.38699  eV     1   --> A              
     e(  6 -  6) =     -4.36767  eV     1   --> A              
     e(  7 -  7) =     -4.10945  eV     1   --> A              
     e(  8 -  8) =     -4.09748  eV     1   --> A              
     e(  9 -  9) =      2.17665  eV     1   --> A              
     e( 10 - 10) =      2.73763  eV     1   --> A              
     e( 11 - 11) =      3.78511  eV     1   --> A              
     e( 12 - 12) =      4.70609  eV     1   --> A              
     e( 13 - 13) =      4.93150  eV     1   --> A              
     e( 14 - 14) =      6.60659  eV     1   --> A              
     e( 15 - 15) =      7.54150  eV     1   --> A              
     e( 16 - 16) =      9.04530  eV     1   --> A              
     e( 17 - 17) =      9.11500  eV     1   --> A              
     e( 18 - 18) =      9.24587  eV     1   --> A              
     e( 19 - 19) =      9.66393  eV     1   --> A              
     e( 20 - 20) =      9.69752  eV     1   --> A              

 **************************************************************************

 **************************************************************************

                    xk=(  -0.06349,   0.10997,   0.00000  )

     Band symmetry, C_1 (1)     point group:

     e(  1 -  1) =    -19.86678  eV     1   --> A              
     e(  2 -  2) =    -19.78119  eV     1   --> A              
     e(  3 -  3) =     -7.76091  eV     1   --> A              
     e(  4 -  4) =     -6.99641  eV     1   --> A              
     e(  5 -  5) =     -4.76272  eV     1   --> A              
     e(  6 -  6) =     -4.73760  eV     1   --> A              
     e(  7 -  7) =     -4.30370  eV     1   --> A              
     e(  8 -  8) =     -4.29082  eV     1   --> A              
     e(  9 -  9) =      2.34911  eV     1   --> A              
     e( 10 - 10) =      2.89884  eV     1   --> A              
     e( 11 - 11) =      3.95162  eV     1   --> A              
     e( 12 - 12) =      4.84491  eV     1   --> A              
     e( 13 - 13) =      5.09515  eV     1   --> A              
     e( 14 - 14) =      6.71455  eV     1   --> A              
     e( 15 - 15) =      7.69072  eV     1   --> A              
     e( 16 - 16) =      9.02396  eV     1   --> A              
     e( 17 - 17) =      9.10476  eV     1   --> A              
     e( 18 - 18) =      9.25002  eV     1   --> A              
     e( 19 - 19) =      9.76850  eV     1   --> A              
     e( 20 - 20) =     10.06440  eV     1   --> A              

 **************************************************************************

 **************************************************************************

                    xk=(  -0.07936,   0.13746,   0.00000  )

     Band symmetry, C_1 (1)     point group:

     e(  1 -  1) =    -19.73845  eV     1   --> A              
     e(  2 -  2) =    -19.65421  eV     1   --> A              
     e(  3 -  3) =     -7.58461  eV     1   --> A              
     e(  4 -  4) =     -6.82782  eV     1   --> A              
     e(  5 -  5) =     -5.20181  eV     1   --> A              
     e(  6 -  6) =     -5.17146  eV     1   --> A              
     e(  7 -  7) =     -4.54427  eV     1   --> A              
     e(  8 -  8) =     -4.53052  eV     1   --> A              
     e(  9 -  9) =      2.56661  eV     1   --> A              
     e( 10 - 10) =      3.10385  eV     1   --> A              
     e( 11 - 11) =      4.16376  eV     1   --> A              
     e( 12 - 12) =      5.01310  eV     1   --> A              
     e( 13 - 13) =      5.30350  eV     1   --> A              
     e( 14 - 14) =      6.83890  eV     1   --> A              
     e( 15 - 15) =      7.86773  eV     1   --> A              
     e( 16 - 16) =      9.01904  eV     1   --> A              
     e( 17 - 17) =      9.11323  eV     1   --> A              
     e( 18 - 18) =      9.23760  eV     1   --> A              
     e( 19 - 19) =      9.57253  eV     1   --> A              
     e( 20 - 20) =     10.25771  eV     1   --> A              

 **************************************************************************

 **************************************************************************

                    xk=(  -0.09524,   0.16496,   0.00000  )

     Band symmetry, C_1 (1)     point group:

     e(  1 -  1) =    -19.58322  eV     1   --> A              
     e(  2 -  2) =    -19.50070  eV     1   --> A              
     e(  3 -  3) =     -7.37127  eV     1   --> A              
     e(  4 -  4) =     -6.62424  eV     1   --> A              
     e(  5 -  5) =     -5.68411  eV     1   --> A              
     e(  6 -  6) =     -5.64921  eV     1   --> A              
     e(  7 -  7) =     -4.82554  eV     1   --> A              
     e(  8 -  8) =     -4.80992  eV     1   --> A              
     e(  9 -  9) =      2.82830  eV     1   --> A              
     e( 10 - 10) =      3.35121  eV     1   --> A              
     e( 11 - 11) =      4.41975  eV     1   --> A              
     e( 12 - 12) =      5.20042  eV     1   --> A              
     e( 13 - 13) =      5.55484  eV     1   --> A              
     e( 14 - 14) =      6.96468  eV     1   --> A              
     e( 15 - 15) =      8.04760  eV     1   --> A              
     e( 16 - 16) =      9.01996  eV     1   --> A              
     e( 17 - 17) =      9.07523  eV     1   --> A              
     e( 18 - 18) =      9.23270  eV     1   --> A              
     e( 19 - 19) =      9.36675  eV     1   --> A              
     e( 20 - 20) =     10.46739  eV     1   --> A              

 **************************************************************************

 **************************************************************************

                    xk=(  -0.11111,   0.19245,   0.00000  )

     Band symmetry, C_1 (1)     point group:

     e(  1 -  1) =    -19.40233  eV     1   --> A              
     e(  2 -  2) =    -19.32172  eV     1   --> A              
     e(  3 -  3) =     -7.12277  eV     1   --> A              
     e(  4 -  4) =     -6.39387  eV     1   --> A              
     e(  5 -  5) =     -6.19191  eV     1   --> A              
     e(  6 -  6) =     -6.14644  eV     1   --> A              
     e(  7 -  7) =     -5.14024  eV     1   --> A              
     e(  8 -  8) =     -5.12251  eV     1   --> A              
     e(  9 -  9) =      3.13362  eV     1   --> A              
     e( 10 - 10) =      3.63871  eV     1   --> A              
     e( 11 - 11) =      4.71523  eV     1   --> A              
     e( 12 - 12) =      5.38855  eV     1   --> A              
     e( 13 - 13) =      5.84564  eV     1   --> A              
     e( 14 - 14) =      7.07285  eV     1   --> A              
     e( 15 - 15) =      8.13057  eV     1   --> A              
     e( 16 - 16) =      8.92547  eV     1   --> A              
     e( 17 - 17) =      9.01549  eV     1   --> A              
     e( 18 - 18) =      9.28251  eV     1   --> A              
     e( 19 - 19) =      9.39415  eV     1   --> A              
     e( 20 - 20) =     10.69356  eV     1   --> A              

 **************************************************************************

 **************************************************************************

                    xk=(  -0.12698,   0.21994,   0.00000  )

     Band symmetry, C_1 (1)     point group:

     e(  1 -  1) =    -19.19717  eV     1   --> A              
     e(  2 -  2) =    -19.11885  eV     1   --> A              
     e(  3 -  3) =     -6.85886  eV     1   --> A              
     e(  4 -  4) =     -6.69351  eV     1   --> A              
     e(  5 -  5) =     -6.68048  eV     1   --> A              
     e(  6 -  6) =     -6.10741  eV     1   --> A              
     e(  7 -  7) =     -5.48173  eV     1   --> A              
     e(  8 -  8) =     -5.46135  eV     1   --> A              
     e(  9 -  9) =      3.48235  eV     1   --> A              
     e( 10 - 10) =      3.96225  eV     1   --> A              
     e( 11 - 11) =      5.03345  eV     1   --> A              
     e( 12 - 12) =      5.55021  eV     1   --> A              
     e( 13 - 13) =      6.16629  eV     1   --> A              
     e( 14 - 14) =      7.15903  eV     1   --> A              
     e( 15 - 15) =      7.93658  eV     1   --> A              
     e( 16 - 16) =      8.99786  eV     1   --> A              
     e( 17 - 17) =      9.05267  eV     1   --> A              
     e( 18 - 18) =      9.39719  eV     1   --> A              
     e( 19 - 19) =      9.53702  eV     1   --> A              
     e( 20 - 20) =     10.93509  eV     1   --> A              

 **************************************************************************

 **************************************************************************

                    xk=(  -0.14286,   0.24744,   0.00000  )

     Band symmetry, C_1 (1)     point group:

     e(  1 -  1) =    -18.96986  eV     1   --> A              
     e(  2 -  2) =    -18.89415  eV     1   --> A              
     e(  3 -  3) =     -7.24588  eV     1   --> A              
     e(  4 -  4) =     -7.19746  eV     1   --> A              
     e(  5 -  5) =     -6.51212  eV     1   --> A              
     e(  6 -  6) =     -5.84259  eV     1   --> A              
     e(  7 -  7) =     -5.83355  eV     1   --> A              
     e(  8 -  8) =     -5.79473  eV     1   --> A              
     e(  9 -  9) =      3.87409  eV     1   --> A              
     e( 10 - 10) =      4.31293  eV     1   --> A              
     e( 11 - 11) =      5.27805  eV     1   --> A              
     e( 12 - 12) =      5.71284  eV     1   --> A              
     e( 13 - 13) =      6.47991  eV     1   --> A              
     e( 14 - 14) =      7.26685  eV     1   --> A              
     e( 15 - 15) =      7.60585  eV     1   --> A              
     e( 16 - 16) =      9.18724  eV     1   --> A              
     e( 17 - 17) =      9.26886  eV     1   --> A              
     e( 18 - 18) =      9.56356  eV     1   --> A              
     e( 19 - 19) =      9.73817  eV     1   --> A              
     e( 20 - 20) =     11.19288  eV     1   --> A              

 **************************************************************************

 **************************************************************************

                    xk=(  -0.15873,   0.27493,   0.00000  )

     Band symmetry, C_1 (1)     point group:

     e(  1 -  1) =    -18.72272  eV     1   --> A              
     e(  2 -  2) =    -18.64970  eV     1   --> A              
     e(  3 -  3) =     -7.75665  eV     1   --> A              
     e(  4 -  4) =     -7.70647  eV     1   --> A              
     e(  5 -  5) =     -6.22558  eV     1   --> A              
     e(  6 -  6) =     -6.19145  eV     1   --> A              
     e(  7 -  7) =     -6.15760  eV     1   --> A              
     e(  8 -  8) =     -5.47938  eV     1   --> A              
     e(  9 -  9) =      4.30860  eV     1   --> A              
     e( 10 - 10) =      4.66769  eV     1   --> A              
     e( 11 - 11) =      5.22620  eV     1   --> A              
     e( 12 - 12) =      6.04768  eV     1   --> A              
     e( 13 - 13) =      6.61838  eV     1   --> A              
     e( 14 - 14) =      7.46453  eV     1   --> A              
     e( 15 - 15) =      7.46625  eV     1   --> A              
     e( 16 - 16) =      9.42590  eV     1   --> A              
     e( 17 - 17) =      9.61879  eV     1   --> A              
     e( 18 - 18) =      9.77189  eV     1   --> A              
     e( 19 - 19) =      9.98686  eV     1   --> A              
     e( 20 - 20) =     11.46808  eV     1   --> A              

 **************************************************************************

 **************************************************************************

                    xk=(  -0.17460,   0.30242,   0.00000  )

     Band symmetry, C_1 (1)     point group:

     e(  1 -  1) =    -18.45898  eV     1   --> A              
     e(  2 -  2) =    -18.38907  eV     1   --> A              
     e(  3 -  3) =     -8.25027  eV     1   --> A              
     e(  4 -  4) =     -8.19727  eV     1   --> A              
     e(  5 -  5) =     -6.59949  eV     1   --> A              
     e(  6 -  6) =     -6.56890  eV     1   --> A              
     e(  7 -  7) =     -5.79084  eV     1   --> A              
     e(  8 -  8) =     -5.12743  eV     1   --> A              
     e(  9 -  9) =      4.78514  eV     1   --> A              
     e( 10 - 10) =      4.94149  eV     1   --> A              
     e( 11 - 11) =      4.95433  eV     1   --> A              
     e( 12 - 12) =      6.47055  eV     1   --> A              
     e( 13 - 13) =      6.50938  eV     1   --> A              
     e( 14 - 14) =      7.74692  eV     1   --> A              
     e( 15 - 15) =      7.76995  eV     1   --> A              
     e( 16 - 16) =      9.74239  eV     1   --> A              
     e( 17 - 17) =     10.00998  eV     1   --> A              
     e( 18 - 18) =     10.01526  eV     1   --> A              
     e( 19 - 19) =     10.27601  eV     1   --> A              
     e( 20 - 20) =     11.76227  eV     1   --> A              

 **************************************************************************

 **************************************************************************

                    xk=(  -0.19047,   0.32992,   0.00000  )

     Band symmetry, C_1 (1)     point group:

     e(  1 -  1) =    -18.18297  eV     1   --> A              
     e(  2 -  2) =    -18.11661  eV     1   --> A              
     e(  3 -  3) =     -8.71666  eV     1   --> A              
     e(  4 -  4) =     -8.66161  eV     1   --> A              
     e(  5 -  5) =     -6.98235  eV     1   --> A              
     e(  6 -  6) =     -6.94792  eV     1   --> A              
     e(  7 -  7) =     -5.39472  eV     1   --> A              
     e(  8 -  8) =     -4.75665  eV     1   --> A              
     e(  9 -  9) =      4.54273  eV     1   --> A              
     e( 10 - 10) =      4.99569  eV     1   --> A              
     e( 11 - 11) =      5.30362  eV     1   --> A              
     e( 12 - 12) =      6.46217  eV     1   --> A              
     e( 13 - 13) =      7.03495  eV     1   --> A              
     e( 14 - 14) =      8.15695  eV     1   --> A              
     e( 15 - 15) =      8.21837  eV     1   --> A              
     e( 16 - 16) =     10.09303  eV     1   --> A              
     e( 17 - 17) =     10.29194  eV     1   --> A              
     e( 18 - 18) =     10.42397  eV     1   --> A              
     e( 19 - 19) =     10.59866  eV     1   --> A              
     e( 20 - 20) =     11.97648  eV     1   --> A              

 **************************************************************************

 **************************************************************************

                    xk=(  -0.20635,   0.35741,   0.00000  )

     Band symmetry, C_1 (1)     point group:

     e(  1 -  1) =    -17.90008  eV     1   --> A              
     e(  2 -  2) =    -17.83728  eV     1   --> A              
     e(  3 -  3) =     -9.14742  eV     1   --> A              
     e(  4 -  4) =     -9.09015  eV     1   --> A              
     e(  5 -  5) =     -7.36200  eV     1   --> A              
     e(  6 -  6) =     -7.32312  eV     1   --> A              
     e(  7 -  7) =     -4.98173  eV     1   --> A              
     e(  8 -  8) =     -4.37352  eV     1   --> A              
     e(  9 -  9) =      4.09454  eV     1   --> A              
     e( 10 - 10) =      4.73145  eV     1   --> A              
     e( 11 - 11) =      5.86164  eV     1   --> A              
     e( 12 - 12) =      6.77865  eV     1   --> A              
     e( 13 - 13) =      7.60878  eV     1   --> A              
     e( 14 - 14) =      8.59335  eV     1   --> A              
     e( 15 - 15) =      8.76745  eV     1   --> A              
     e( 16 - 16) =     10.39927  eV     1   --> A              
     e( 17 - 17) =     10.62172  eV     1   --> A              
     e( 18 - 18) =     10.82905  eV     1   --> A              
     e( 19 - 19) =     10.96317  eV     1   --> A              
     e( 20 - 20) =     12.08371  eV     1   --> A              

 **************************************************************************

 **************************************************************************

                    xk=(  -0.22222,   0.38490,   0.00000  )

     Band symmetry, C_1 (1)     point group:

     e(  1 -  1) =    -17.61716  eV     1   --> A              
     e(  2 -  2) =    -17.55842  eV     1   --> A              
     e(  3 -  3) =     -9.53291  eV     1   --> A              
     e(  4 -  4) =     -9.47390  eV     1   --> A              
     e(  5 -  5) =     -7.73410  eV     1   --> A              
     e(  6 -  6) =     -7.69091  eV     1   --> A              
     e(  7 -  7) =     -4.56055  eV     1   --> A              
     e(  8 -  8) =     -3.98596  eV     1   --> A              
     e(  9 -  9) =      3.63462  eV     1   --> A              
     e( 10 - 10) =      4.33835  eV     1   --> A              
     e( 11 - 11) =      6.45732  eV     1   --> A              
     e( 12 - 12) =      7.27581  eV     1   --> A              
     e( 13 - 13) =      8.22069  eV     1   --> A              
     e( 14 - 14) =      9.04409  eV     1   --> A              
     e( 15 - 15) =      9.36823  eV     1   --> A              
     e( 16 - 16) =     10.60161  eV     1   --> A              
     e( 17 - 17) =     10.98681  eV     1   --> A              
     e( 18 - 18) =     11.16518  eV     1   --> A              
     e( 19 - 19) =     11.39797  eV     1   --> A              
     e( 20 - 20) =     12.24270  eV     1   --> A              

 **************************************************************************

 **************************************************************************

                    xk=(  -0.23809,   0.41239,   0.00000  )

     Band symmetry, C_1 (1)     point group:

     e(  1 -  1) =    -17.34290  eV     1   --> A              
     e(  2 -  2) =    -17.28847  eV     1   --> A              
     e(  3 -  3) =     -9.86308  eV     1   --> A              
     e(  4 -  4) =     -9.80290  eV     1   --> A              
     e(  5 -  5) =     -8.09450  eV     1   --> A              
     e(  6 -  6) =     -8.04691  eV     1   --> A              
     e(  7 -  7) =     -4.14175  eV     1   --> A              
     e(  8 -  8) =     -3.60448  eV     1   --> A              
     e(  9 -  9) =      3.18946  eV     1   --> A              
     e( 10 - 10) =      3.92801  eV     1   --> A              
     e( 11 - 11) =      7.08709  eV     1   --> A              
     e( 12 - 12) =      7.85639  eV     1   --> A              
     e( 13 - 13) =      8.84340  eV     1   --> A              
     e( 14 - 14) =      9.46111  eV     1   --> A              
     e( 15 - 15) =     10.00953  eV     1   --> A              
     e( 16 - 16) =     10.71891  eV     1   --> A              
     e( 17 - 17) =     11.33392  eV     1   --> A              
     e( 18 - 18) =     11.42201  eV     1   --> A              
     e( 19 - 19) =     11.87656  eV     1   --> A              
     e( 20 - 20) =     12.51810  eV     1   --> A              

 **************************************************************************

 **************************************************************************

                    xk=(  -0.25397,   0.43989,   0.00000  )

     Band symmetry, C_1 (1)     point group:

     e(  1 -  1) =    -17.08811  eV     1   --> A              
     e(  2 -  2) =    -17.03767  eV     1   --> A              
     e(  3 -  3) =    -10.12816  eV     1   --> A              
     e(  4 -  4) =    -10.06641  eV     1   --> A              
     e(  5 -  5) =     -8.44006  eV     1   --> A              
     e(  6 -  6) =     -8.38751  eV     1   --> A              
     e(  7 -  7) =     -3.73916  eV     1   --> A              
     e(  8 -  8) =     -3.24343  eV     1   --> A              
     e(  9 -  9) =      2.77946  eV     1   --> A              
     e( 10 - 10) =      3.54437  eV     1   --> A              
     e( 11 - 11) =      7.74440  eV     1   --> A              
     e( 12 - 12) =      8.48083  eV     1   --> A              
     e( 13 - 13) =      9.32181  eV     1   --> A              
     e( 14 - 14) =      9.87121  eV     1   --> A              
     e( 15 - 15) =     10.67937  eV     1   --> A              
     e( 16 - 16) =     10.86084  eV     1   --> A              
     e( 17 - 17) =     11.57221  eV     1   --> A              
     e( 18 - 18) =     11.67038  eV     1   --> A              
     e( 19 - 19) =     12.37069  eV     1   --> A              
     e( 20 - 20) =     12.87591  eV     1   --> A              

 **************************************************************************

 **************************************************************************

                    xk=(  -0.26984,   0.46738,   0.00000  )

     Band symmetry, C_1 (1)     point group:

     e(  1 -  1) =    -16.86406  eV     1   --> A              
     e(  2 -  2) =    -16.81738  eV     1   --> A              
     e(  3 -  3) =    -10.31657  eV     1   --> A              
     e(  4 -  4) =    -10.25478  eV     1   --> A              
     e(  5 -  5) =     -8.76683  eV     1   --> A              
     e(  6 -  6) =     -8.70910  eV     1   --> A              
     e(  7 -  7) =     -3.37103  eV     1   --> A              
     e(  8 -  8) =     -2.91825  eV     1   --> A              
     e(  9 -  9) =      2.42438  eV     1   --> A              
     e( 10 - 10) =      3.21323  eV     1   --> A              
     e( 11 - 11) =      8.41722  eV     1   --> A              
     e( 12 - 12) =      9.11987  eV     1   --> A              
     e( 13 - 13) =      9.38731  eV     1   --> A              
     e( 14 - 14) =     10.47497  eV     1   --> A              
     e( 15 - 15) =     11.10284  eV     1   --> A              
     e( 16 - 16) =     11.35031  eV     1   --> A              
     e( 17 - 17) =     11.58832  eV     1   --> A              
     e( 18 - 18) =     12.04974  eV     1   --> A              
     e( 19 - 19) =     12.83638  eV     1   --> A              
     e( 20 - 20) =     13.15609  eV     1   --> A              

 **************************************************************************

 **************************************************************************

                    xk=(  -0.28571,   0.49487,   0.00000  )

     Band symmetry, C_1 (1)     point group:

     e(  1 -  1) =    -16.68255  eV     1   --> A              
     e(  2 -  2) =    -16.63912  eV     1   --> A              
     e(  3 -  3) =    -10.42018  eV     1   --> A              
     e(  4 -  4) =    -10.35992  eV     1   --> A              
     e(  5 -  5) =     -9.07005  eV     1   --> A              
     e(  6 -  6) =     -9.00686  eV     1   --> A              
     e(  7 -  7) =     -3.06002  eV     1   --> A              
     e(  8 -  8) =     -2.64825  eV     1   --> A              
     e(  9 -  9) =      2.14125  eV     1   --> A              
     e( 10 - 10) =      2.95103  eV     1   --> A              
     e( 11 - 11) =      9.07418  eV     1   --> A              
     e( 12 - 12) =      9.25191  eV     1   --> A              
     e( 13 - 13) =      9.72766  eV     1   --> A              
     e( 14 - 14) =     11.02692  eV     1   --> A              
     e( 15 - 15) =     11.49084  eV     1   --> A              
     e( 16 - 16) =     11.50116  eV     1   --> A              
     e( 17 - 17) =     12.00027  eV     1   --> A              
     e( 18 - 18) =     12.49097  eV     1   --> A              
     e( 19 - 19) =     13.17814  eV     1   --> A              
     e( 20 - 20) =     13.25084  eV     1   --> A              

 **************************************************************************

 **************************************************************************

                    xk=(  -0.30158,   0.52237,   0.00000  )

     Band symmetry, C_1 (1)     point group:

     e(  1 -  1) =    -16.55209  eV     1   --> A              
     e(  2 -  2) =    -16.51114  eV     1   --> A              
     e(  3 -  3) =    -10.43880  eV     1   --> A              
     e(  4 -  4) =    -10.38154  eV     1   --> A              
     e(  5 -  5) =     -9.34069  eV     1   --> A              
     e(  6 -  6) =     -9.27117  eV     1   --> A              
     e(  7 -  7) =     -2.82754  eV     1   --> A              
     e(  8 -  8) =     -2.44915  eV     1   --> A              
     e(  9 -  9) =      1.94395  eV     1   --> A              
     e( 10 - 10) =      2.76935  eV     1   --> A              
     e( 11 - 11) =      9.07012  eV     1   --> A              
     e( 12 - 12) =      9.68046  eV     1   --> A              
     e( 13 - 13) =     10.20732  eV     1   --> A              
     e( 14 - 14) =     11.27254  eV     1   --> A              
     e( 15 - 15) =     11.45907  eV     1   --> A              
     e( 16 - 16) =     12.20072  eV     1   --> A              
     e( 17 - 17) =     12.48486  eV     1   --> A              
     e( 18 - 18) =     12.74979  eV     1   --> A              
     e( 19 - 19) =     13.41825  eV     1   --> A              
     e( 20 - 20) =     13.52131  eV     1   --> A              

 **************************************************************************

 **************************************************************************

                    xk=(  -0.31746,   0.54986,   0.00000  )

     Band symmetry, C_1 (1)     point group:

     e(  1 -  1) =    -16.47656  eV     1   --> A              
     e(  2 -  2) =    -16.43710  eV     1   --> A              
     e(  3 -  3) =    -10.39233  eV     1   --> A              
     e(  4 -  4) =    -10.34079  eV     1   --> A              
     e(  5 -  5) =     -9.55764  eV     1   --> A              
     e(  6 -  6) =     -9.48025  eV     1   --> A              
     e(  7 -  7) =     -2.68932  eV     1   --> A              
     e(  8 -  8) =     -2.33150  eV     1   --> A              
     e(  9 -  9) =      1.83572  eV     1   --> A              
     e( 10 - 10) =      2.66928  eV     1   --> A              
     e( 11 - 11) =      8.94346  eV     1   --> A              
     e( 12 - 12) =     10.08572  eV     1   --> A              
     e( 13 - 13) =     10.43450  eV     1   --> A              
     e( 14 - 14) =     11.48695  eV     1   --> A              
     e( 15 - 15) =     11.57574  eV     1   --> A              
     e( 16 - 16) =     12.45807  eV     1   --> A              
     e( 17 - 17) =     12.72713  eV     1   --> A              
     e( 18 - 18) =     13.12537  eV     1   --> A              
     e( 19 - 19) =     13.83135  eV     1   --> A              
     e( 20 - 20) =     13.92528  eV     1   --> A              

 **************************************************************************

 **************************************************************************

                    xk=(  -0.33333,   0.57735,   0.00000  )

     point group C_3 (3)    
     there are  3 classes
     the character table:

       E     C3    C3^2 
A      1.00  1.00  1.00
E      1.00 -0.50 -0.50
E*     1.00 -0.50 -0.50
     imaginary part
A      0.00  0.00  0.00
E      0.00  0.87 -0.87
E*     0.00 -0.87  0.87

     the symmetry operations in each class and the name of the first element:

     E        1
                                                                 
     C3       2
                                                                 
     C3^2     3
                                                                 

     Band symmetry, C_3 (3)     point group:

     e(  1 -  1) =    -16.45290  eV     1   --> E*             
     e(  2 -  2) =    -16.41405  eV     1   --> E*             
     e(  3 -  3) =    -10.34974  eV     1   --> E              
     e(  4 -  4) =    -10.30317  eV     1   --> E              
     e(  5 -  5) =     -9.65432  eV     1   --> A              
     e(  6 -  6) =     -9.57224  eV     1   --> A              
     e(  7 -  7) =     -2.64583  eV     1   --> E*             
     e(  8 -  8) =     -2.29448  eV     1   --> E*             
     e(  9 -  9) =      1.80501  eV     1   --> A              
     e( 10 - 10) =      2.64030  eV     1   --> A              
     e( 11 - 11) =      8.89599  eV     1   --> E              
     e( 12 - 12) =     10.21108  eV     1   --> A              
     e( 13 - 13) =     10.47268  eV     1   --> E              
     e( 14 - 14) =     11.66052  eV     1   --> E              
     e( 15 - 15) =     11.67425  eV     1   --> A              
     e( 16 - 16) =     12.30634  eV     1   --> E*             
     e( 17 - 17) =     12.77348  eV     1   --> E*             
     e( 18 - 18) =     13.79472  eV     1   --> A              
     e( 19 - 19) =     13.93588  eV     1   --> E*             
     e( 20 - 20) =     14.09284  eV     1   --> E              

 **************************************************************************

 **************************************************************************

                    xk=(  -0.30303,   0.57735,   0.00000  )

     point group C_1 (1)    
     there are  1 classes
     the character table:

       E    
A      1.00

     the symmetry operations in each class and the name of the first element:

     E        1
                                                                 

     Band symmetry, C_1 (1)     point group:

     e(  1 -  1) =    -16.47144  eV     1   --> A              
     e(  2 -  2) =    -16.43206  eV     1   --> A              
     e(  3 -  3) =    -10.40717  eV     1   --> A              
     e(  4 -  4) =    -10.35522  eV     1   --> A              
     e(  5 -  5) =     -9.55175  eV     1   --> A              
     e(  6 -  6) =     -9.47497  eV     1   --> A              
     e(  7 -  7) =     -2.67928  eV     1   --> A              
     e(  8 -  8) =     -2.32330  eV     1   --> A              
     e(  9 -  9) =      1.82374  eV     1   --> A              
     e( 10 - 10) =      2.65942  eV     1   --> A              
     e( 11 - 11) =      8.94284  eV     1   --> A              
     e( 12 - 12) =     10.13186  eV     1   --> A              
     e( 13 - 13) =     10.46624  eV     1   --> A              
     e( 14 - 14) =     11.47769  eV     1   --> A              
     e( 15 - 15) =     11.56516  eV     1   --> A              
     e( 16 - 16) =     12.40453  eV     1   --> A              
     e( 17 - 17) =     12.74923  eV     1   --> A              
     e( 18 - 18) =     13.50315  eV     1   --> A              
     e( 19 - 19) =     13.64204  eV     1   --> A              
     e( 20 - 20) =     13.77476  eV     1   --> A              

 **************************************************************************

 **************************************************************************

                    xk=(  -0.27272,   0.57735,   0.00000  )

     Band symmetry, C_1 (1)     point group:

     e(  1 -  1) =    -16.51990  eV     1   --> A              
     e(  2 -  2) =    -16.47959  eV     1   --> A              
     e(  3 -  3) =    -10.54030  eV     1   --> A              
     e(  4 -  4) =    -10.48005  eV     1   --> A              
     e(  5 -  5) =     -9.29210  eV     1   --> A              
     e(  6 -  6) =     -9.22468  eV     1   --> A              
     e(  7 -  7) =     -2.76565  eV     1   --> A              
     e(  8 -  8) =     -2.39868  eV     1   --> A              
     e(  9 -  9) =      1.86171  eV     1   --> A              
     e( 10 - 10) =      2.70202  eV     1   --> A              
     e( 11 - 11) =      9.08326  eV     1   --> A              
     e( 12 - 12) =      9.94112  eV     1   --> A              
     e( 13 - 13) =     10.46184  eV     1   --> A              
     e( 14 - 14) =     11.15305  eV     1   --> A              
     e( 15 - 15) =     11.28993  eV     1   --> A              
     e( 16 - 16) =     12.35388  eV     1   --> A              
     e( 17 - 17) =     12.60546  eV     1   --> A              
     e( 18 - 18) =     13.19445  eV     1   --> A              
     e( 19 - 19) =     13.29841  eV     1   --> A              
     e( 20 - 20) =     13.41317  eV     1   --> A              

 **************************************************************************

 **************************************************************************

                    xk=(  -0.24242,   0.57735,   0.00000  )

     Band symmetry, C_1 (1)     point group:

     e(  1 -  1) =    -16.58821  eV     1   --> A              
     e(  2 -  2) =    -16.54672  eV     1   --> A              
     e(  3 -  3) =    -10.69202  eV     1   --> A              
     e(  4 -  4) =    -10.62558  eV     1   --> A              
     e(  5 -  5) =     -8.94903  eV     1   --> A              
     e(  6 -  6) =     -8.89000  eV     1   --> A              
     e(  7 -  7) =     -2.88435  eV     1   --> A              
     e(  8 -  8) =     -2.50303  eV     1   --> A              
     e(  9 -  9) =      1.89708  eV     1   --> A              
     e( 10 - 10) =      2.74935  eV     1   --> A              
     e( 11 - 11) =      9.29760  eV     1   --> A              
     e( 12 - 12) =      9.68117  eV     1   --> A              
     e( 13 - 13) =     10.44132  eV     1   --> A              
     e( 14 - 14) =     10.82633  eV     1   --> A              
     e( 15 - 15) =     10.92902  eV     1   --> A              
     e( 16 - 16) =     12.07504  eV     1   --> A              
     e( 17 - 17) =     12.24672  eV     1   --> A              
     e( 18 - 18) =     12.85834  eV     1   --> A              
     e( 19 - 19) =     12.98953  eV     1   --> A              
     e( 20 - 20) =     13.19945  eV     1   --> A              

 **************************************************************************

 **************************************************************************

                    xk=(  -0.21212,   0.57735,   0.00000  )

     Band symmetry, C_1 (1)     point group:

     e(  1 -  1) =    -16.66694  eV     1   --> A              
     e(  2 -  2) =    -16.62443  eV     1   --> A              
     e(  3 -  3) =    -10.83877  eV     1   --> A              
     e(  4 -  4) =    -10.76757  eV     1   --> A              
     e(  5 -  5) =     -8.56352  eV     1   --> A              
     e(  6 -  6) =     -8.51253  eV     1   --> A              
     e(  7 -  7) =     -3.01784  eV     1   --> A              
     e(  8 -  8) =     -2.62170  eV     1   --> A              
     e(  9 -  9) =      1.91772  eV     1   --> A              
     e( 10 - 10) =      2.78896  eV     1   --> A              
     e( 11 - 11) =      9.27352  eV     1   --> A              
     e( 12 - 12) =      9.64820  eV     1   --> A              
     e( 13 - 13) =     10.26341  eV     1   --> A              
     e( 14 - 14) =     10.53421  eV     1   --> A              
     e( 15 - 15) =     10.62685  eV     1   --> A              
     e( 16 - 16) =     11.71689  eV     1   --> A              
     e( 17 - 17) =     11.80565  eV     1   --> A              
     e( 18 - 18) =     12.54420  eV     1   --> A              
     e( 19 - 19) =     12.68007  eV     1   --> A              
     e( 20 - 20) =     13.07715  eV     1   --> A              

 **************************************************************************

 **************************************************************************

                    xk=(  -0.18182,   0.57735,   0.00000  )

     Band symmetry, C_1 (1)     point group:

     e(  1 -  1) =    -16.74791  eV     1   --> A              
     e(  2 -  2) =    -16.70435  eV     1   --> A              
     e(  3 -  3) =    -10.97106  eV     1   --> A              
     e(  4 -  4) =    -10.89596  eV     1   --> A              
     e(  5 -  5) =     -8.16194  eV     1   --> A              
     e(  6 -  6) =     -8.11763  eV     1   --> A              
     e(  7 -  7) =     -3.15138  eV     1   --> A              
     e(  8 -  8) =     -2.74175  eV     1   --> A              
     e(  9 -  9) =      1.92106  eV     1   --> A              
     e( 10 - 10) =      2.81560  eV     1   --> A              
     e( 11 - 11) =      8.88060  eV     1   --> A              
     e( 12 - 12) =      9.78900  eV     1   --> A              
     e( 13 - 13) =      9.93319  eV     1   --> A              
     e( 14 - 14) =     10.30117  eV     1   --> A              
     e( 15 - 15) =     10.52901  eV     1   --> A              
     e( 16 - 16) =     11.37172  eV     1   --> A              
     e( 17 - 17) =     11.42052  eV     1   --> A              
     e( 18 - 18) =     12.26929  eV     1   --> A              
     e( 19 - 19) =     12.39919  eV     1   --> A              
     e( 20 - 20) =     12.96503  eV     1   --> A              

 **************************************************************************

 **************************************************************************

                    xk=(  -0.15151,   0.57735,   0.00000  )

     Band symmetry, C_1 (1)     point group:

     e(  1 -  1) =    -16.82522  eV     1   --> A              
     e(  2 -  2) =    -16.78081  eV     1   --> A              
     e(  3 -  3) =    -11.08539  eV     1   --> A              
     e(  4 -  4) =    -11.00717  eV     1   --> A              
     e(  5 -  5) =     -7.76682  eV     1   --> A              
     e(  6 -  6) =     -7.72883  eV     1   --> A              
     e(  7 -  7) =     -3.27633  eV     1   --> A              
     e(  8 -  8) =     -2.85469  eV     1   --> A              
     e(  9 -  9) =      1.90988  eV     1   --> A              
     e( 10 - 10) =      2.82876  eV     1   --> A              
     e( 11 - 11) =      8.43592  eV     1   --> A              
     e( 12 - 12) =      9.23278  eV     1   --> A              
     e( 13 - 13) =     10.01911  eV     1   --> A              
     e( 14 - 14) =     10.29518  eV     1   --> A              
     e( 15 - 15) =     10.46398  eV     1   --> A              
     e( 16 - 16) =     11.09834  eV     1   --> A              
     e( 17 - 17) =     11.12160  eV     1   --> A              
     e( 18 - 18) =     12.03709  eV     1   --> A              
     e( 19 - 19) =     12.16185  eV     1   --> A              
     e( 20 - 20) =     12.84972  eV     1   --> A              

 **************************************************************************

 **************************************************************************

                    xk=(  -0.12121,   0.57735,   0.00000  )

     Band symmetry, C_1 (1)     point group:

     e(  1 -  1) =    -16.89429  eV     1   --> A              
     e(  2 -  2) =    -16.84919  eV     1   --> A              
     e(  3 -  3) =    -11.18038  eV     1   --> A              
     e(  4 -  4) =    -11.09986  eV     1   --> A              
     e(  5 -  5) =     -7.39951  eV     1   --> A              
     e(  6 -  6) =     -7.36780  eV     1   --> A              
     e(  7 -  7) =     -3.38594  eV     1   --> A              
     e(  8 -  8) =     -2.95519  eV     1   --> A              
     e(  9 -  9) =      1.88983  eV     1   --> A              
     e( 10 - 10) =      2.83130  eV     1   --> A              
     e( 11 - 11) =      7.99172  eV     1   --> A              
     e( 12 - 12) =      8.69516  eV     1   --> A              
     e( 13 - 13) =      9.88153  eV     1   --> A              
     e( 14 - 14) =     10.39380  eV     1   --> A              
     e( 15 - 15) =     10.42449  eV     1   --> A              
     e( 16 - 16) =     10.89858  eV     1   --> A              
     e( 17 - 17) =     10.96934  eV     1   --> A              
     e( 18 - 18) =     11.84823  eV     1   --> A              
     e( 19 - 19) =     11.97228  eV     1   --> A              
     e( 20 - 20) =     12.73978  eV     1   --> A              

 **************************************************************************

 **************************************************************************

                    xk=(  -0.09091,   0.57735,   0.00000  )

     Band symmetry, C_1 (1)     point group:

     e(  1 -  1) =    -16.95114  eV     1   --> A              
     e(  2 -  2) =    -16.90549  eV     1   --> A              
     e(  3 -  3) =    -11.25462  eV     1   --> A              
     e(  4 -  4) =    -11.17236  eV     1   --> A              
     e(  5 -  5) =     -7.08180  eV     1   --> A              
     e(  6 -  6) =     -7.05550  eV     1   --> A              
     e(  7 -  7) =     -3.47492  eV     1   --> A              
     e(  8 -  8) =     -3.03712  eV     1   --> A              
     e(  9 -  9) =      1.86719  eV     1   --> A              
     e( 10 - 10) =      2.82748  eV     1   --> A              
     e( 11 - 11) =      7.59254  eV     1   --> A              
     e( 12 - 12) =      8.22815  eV     1   --> A              
     e( 13 - 13) =      9.76174  eV     1   --> A              
     e( 14 - 14) =     10.32438  eV     1   --> A              
     e( 15 - 15) =     10.38876  eV     1   --> A              
     e( 16 - 16) =     10.73804  eV     1   --> A              
     e( 17 - 17) =     11.01251  eV     1   --> A              
     e( 18 - 18) =     11.70251  eV     1   --> A              
     e( 19 - 19) =     11.83173  eV     1   --> A              
     e( 20 - 20) =     12.64527  eV     1   --> A              

 **************************************************************************

 **************************************************************************

                    xk=(  -0.06061,   0.57735,   0.00000  )

     Band symmetry, C_1 (1)     point group:

     e(  1 -  1) =    -16.99342  eV     1   --> A              
     e(  2 -  2) =    -16.94723  eV     1   --> A              
     e(  3 -  3) =    -11.30797  eV     1   --> A              
     e(  4 -  4) =    -11.22437  eV     1   --> A              
     e(  5 -  5) =     -6.83488  eV     1   --> A              
     e(  6 -  6) =     -6.81320  eV     1   --> A              
     e(  7 -  7) =     -3.53991  eV     1   --> A              
     e(  8 -  8) =     -3.09720  eV     1   --> A              
     e(  9 -  9) =      1.84755  eV     1   --> A              
     e( 10 - 10) =      2.82163  eV     1   --> A              
     e( 11 - 11) =      7.27655  eV     1   --> A              
     e( 12 - 12) =      7.86799  eV     1   --> A              
     e( 13 - 13) =      9.67530  eV     1   --> A              
     e( 14 - 14) =     10.26598  eV     1   --> A              
     e( 15 - 15) =     10.30087  eV     1   --> A              
     e( 16 - 16) =     10.63004  eV     1   --> A              
     e( 17 - 17) =     11.08915  eV     1   --> A              
     e( 18 - 18) =     11.59929  eV     1   --> A              
     e( 19 - 19) =     11.73927  eV     1   --> A              
     e( 20 - 20) =     12.57336  eV     1   --> A              

 **************************************************************************

 **************************************************************************

                    xk=(  -0.03030,   0.57735,   0.00000  )

     Band symmetry, C_1 (1)     point group:

     e(  1 -  1) =    -17.01938  eV     1   --> A              
     e(  2 -  2) =    -16.97302  eV     1   --> A              
     e(  3 -  3) =    -11.33978  eV     1   --> A              
     e(  4 -  4) =    -11.25576  eV     1   --> A              
     e(  5 -  5) =     -6.67778  eV     1   --> A              
     e(  6 -  6) =     -6.65910  eV     1   --> A              
     e(  7 -  7) =     -3.57965  eV     1   --> A              
     e(  8 -  8) =     -3.13409  eV     1   --> A              
     e(  9 -  9) =      1.83396  eV     1   --> A              
     e( 10 - 10) =      2.81660  eV     1   --> A              
     e( 11 - 11) =      7.07420  eV     1   --> A              
     e( 12 - 12) =      7.64069  eV     1   --> A              
     e( 13 - 13) =      9.62354  eV     1   --> A              
     e( 14 - 14) =     10.22724  eV     1   --> A              
     e( 15 - 15) =     10.23712  eV     1   --> A              
     e( 16 - 16) =     10.56774  eV     1   --> A              
     e( 17 - 17) =     11.13272  eV     1   --> A              
     e( 18 - 18) =     11.53780  eV     1   --> A              
     e( 19 - 19) =     11.68961  eV     1   --> A              
     e( 20 - 20) =     12.52850  eV     1   --> A              

 **************************************************************************

 **************************************************************************

                    xk=(   0.00000,   0.57735,   0.00000  )

     point group C_s (m)    
     there are  2 classes
     the character table:

       E     s    
A'     1.00  1.00
A''    1.00 -1.00

     the symmetry operations in each class and the name of the first element:

     E        1
                                                                 
     s        2
                                                                 

     Band symmetry, C_s (m)     point group:

     e(  1 -  1) =    -17.02815  eV     1   --> A'             
     e(  2 -  2) =    -16.98184  eV     1   --> A'             
     e(  3 -  3) =    -11.35053  eV     1   --> A'             
     e(  4 -  4) =    -11.26627  eV     1   --> A'             
     e(  5 -  5) =     -6.62400  eV     1   --> A''            
     e(  6 -  6) =     -6.60676  eV     1   --> A''            
     e(  7 -  7) =     -3.59339  eV     1   --> A'             
     e(  8 -  8) =     -3.14666  eV     1   --> A'             
     e(  9 -  9) =      1.82895  eV     1   --> A'             
     e( 10 - 10) =      2.81458  eV     1   --> A'             
     e( 11 - 11) =      7.00437  eV     1   --> A'             
     e( 12 - 12) =      7.56292  eV     1   --> A'             
     e( 13 - 13) =      9.60620  eV     1   --> A'             
     e( 14 - 14) =     10.21365  eV     1   --> A'             
     e( 15 - 15) =     10.21484  eV     1   --> A'             
     e( 16 - 16) =     10.54738  eV     1   --> A'             
     e( 17 - 17) =     11.14500  eV     1   --> A'             
     e( 18 - 18) =     11.51734  eV     1   --> A'             
     e( 19 - 19) =     11.67441  eV     1   --> A'             
     e( 20 - 20) =     12.51326  eV     1   --> A'             

 **************************************************************************

 **************************************************************************

                    xk=(   0.00000,   0.54528,   0.00000  )

     Band symmetry, C_s (m)     point group:

     e(  1 -  1) =    -17.07283  eV     1   --> A'             
     e(  2 -  2) =    -17.02551  eV     1   --> A'             
     e(  3 -  3) =    -11.28166  eV     1   --> A'             
     e(  4 -  4) =    -11.19855  eV     1   --> A'             
     e(  5 -  5) =     -6.60813  eV     1   --> A''            
     e(  6 -  6) =     -6.59090  eV     1   --> A''            
     e(  7 -  7) =     -3.67001  eV     1   --> A'             
     e(  8 -  8) =     -3.21181  eV     1   --> A'             
     e(  9 -  9) =      1.92635  eV     1   --> A'             
     e( 10 - 10) =      2.89928  eV     1   --> A'             
     e( 11 - 11) =      6.96260  eV     1   --> A'             
     e( 12 - 12) =      7.55347  eV     1   --> A'             
     e( 13 - 13) =      9.20301  eV     1   --> A'             
     e( 14 - 14) =      9.62130  eV     1   --> A'             
     e( 15 - 15) =     10.43570  eV     1   --> A'             
     e( 16 - 16) =     10.85077  eV     1   --> A'             
     e( 17 - 17) =     11.17066  eV     1   --> A'             
     e( 18 - 18) =     11.19571  eV     1   --> A'             
     e( 19 - 19) =     11.78910  eV     1   --> A'             
     e( 20 - 20) =     12.24401  eV     1   --> A'             

 **************************************************************************

 **************************************************************************

                    xk=(   0.00000,   0.51320,   0.00000  )

     Band symmetry, C_s (m)     point group:

     e(  1 -  1) =    -17.19972  eV     1   --> A'             
     e(  2 -  2) =    -17.14973  eV     1   --> A'             
     e(  3 -  3) =    -11.08102  eV     1   --> A'             
     e(  4 -  4) =    -10.99990  eV     1   --> A'             
     e(  5 -  5) =     -6.56082  eV     1   --> A''            
     e(  6 -  6) =     -6.54354  eV     1   --> A''            
     e(  7 -  7) =     -3.88269  eV     1   --> A'             
     e(  8 -  8) =     -3.39494  eV     1   --> A'             
     e(  9 -  9) =      2.20105  eV     1   --> A'             
     e( 10 - 10) =      3.13981  eV     1   --> A'             
     e( 11 - 11) =      6.82432  eV     1   --> A'             
     e( 12 - 12) =      7.51548  eV     1   --> A'             
     e( 13 - 13) =      8.66874  eV     1   --> A'             
     e( 14 - 14) =      8.95611  eV     1   --> A'             
     e( 15 - 15) =      9.87652  eV     1   --> A'             
     e( 16 - 16) =     10.55439  eV     1   --> A'             
     e( 17 - 17) =     11.00004  eV     1   --> A'             
     e( 18 - 18) =     11.60615  eV     1   --> A'             
     e( 19 - 19) =     11.99420  eV     1   --> A'             
     e( 20 - 20) =     12.17151  eV     1   --> A'             

 **************************************************************************

 **************************************************************************

                    xk=(   0.00000,   0.48113,   0.00000  )

     Band symmetry, C_s (m)     point group:

     e(  1 -  1) =    -17.39181  eV     1   --> A'             
     e(  2 -  2) =    -17.33801  eV     1   --> A'             
     e(  3 -  3) =    -10.76643  eV     1   --> A'             
     e(  4 -  4) =    -10.68888  eV     1   --> A'             
     e(  5 -  5) =     -6.48256  eV     1   --> A''            
     e(  6 -  6) =     -6.46496  eV     1   --> A''            
     e(  7 -  7) =     -4.19322  eV     1   --> A'             
     e(  8 -  8) =     -3.66722  eV     1   --> A'             
     e(  9 -  9) =      2.61087  eV     1   --> A'             
     e( 10 - 10) =      3.50258  eV     1   --> A'             
     e( 11 - 11) =      6.56210  eV     1   --> A'             
     e( 12 - 12) =      7.40043  eV     1   --> A'             
     e( 13 - 13) =      8.23033  eV     1   --> A'             
     e( 14 - 14) =      8.40943  eV     1   --> A'             
     e( 15 - 15) =      9.19448  eV     1   --> A'             
     e( 16 - 16) =     10.09965  eV     1   --> A'             
     e( 17 - 17) =     10.29275  eV     1   --> A'             
     e( 18 - 18) =     11.72189  eV     1   --> A'             
     e( 19 - 19) =     12.32330  eV     1   --> A'             
     e( 20 - 20) =     12.70828  eV     1   --> A'             

 **************************************************************************

 **************************************************************************

                    xk=(   0.00000,   0.44905,   0.00000  )

     Band symmetry, C_s (m)     point group:

     e(  1 -  1) =    -17.62862  eV     1   --> A'             
     e(  2 -  2) =    -17.57084  eV     1   --> A'             
     e(  3 -  3) =    -10.36026  eV     1   --> A'             
     e(  4 -  4) =    -10.28694  eV     1   --> A'             
     e(  5 -  5) =     -6.37453  eV     1   --> A''            
     e(  6 -  6) =     -6.35713  eV     1   --> A''            
     e(  7 -  7) =     -4.56281  eV     1   --> A'             
     e(  8 -  8) =     -3.99736  eV     1   --> A'             
     e(  9 -  9) =      3.10796  eV     1   --> A'             
     e( 10 - 10) =      3.94298  eV     1   --> A'             
     e( 11 - 11) =      6.17720  eV     1   --> A'             
     e( 12 - 12) =      7.12046  eV     1   --> A'             
     e( 13 - 13) =      7.87710  eV     1   --> A'             
     e( 14 - 14) =      8.08123  eV     1   --> A'             
     e( 15 - 15) =      8.58289  eV     1   --> A'             
     e( 16 - 16) =      9.63567  eV     1   --> A'             
     e( 17 - 17) =      9.64761  eV     1   --> A'             
     e( 18 - 18) =     11.23010  eV     1   --> A'             
     e( 19 - 19) =     12.31537  eV     1   --> A'             
     e( 20 - 20) =     12.94840  eV     1   --> A'             

 **************************************************************************

 **************************************************************************

                    xk=(   0.00000,   0.41698,   0.00000  )

     Band symmetry, C_s (m)     point group:

     e(  1 -  1) =    -17.89094  eV     1   --> A'             
     e(  2 -  2) =    -17.82901  eV     1   --> A'             
     e(  3 -  3) =     -9.88322  eV     1   --> A'             
     e(  4 -  4) =     -9.81426  eV     1   --> A'             
     e(  5 -  5) =     -6.23767  eV     1   --> A''            
     e(  6 -  6) =     -6.22054  eV     1   --> A''            
     e(  7 -  7) =     -4.95966  eV     1   --> A'             
     e(  8 -  8) =     -4.35844  eV     1   --> A'             
     e(  9 -  9) =      3.65000  eV     1   --> A'             
     e( 10 - 10) =      4.40578  eV     1   --> A'             
     e( 11 - 11) =      5.71708  eV     1   --> A'             
     e( 12 - 12) =      6.72105  eV     1   --> A'             
     e( 13 - 13) =      7.49526  eV     1   --> A'             
     e( 14 - 14) =      7.93812  eV     1   --> A'             
     e( 15 - 15) =      8.11443  eV     1   --> A'             
     e( 16 - 16) =      9.04989  eV     1   --> A'             
     e( 17 - 17) =      9.25449  eV     1   --> A'             
     e( 18 - 18) =     10.74099  eV     1   --> A'             
     e( 19 - 19) =     11.72881  eV     1   --> A'             
     e( 20 - 20) =     13.24665  eV     1   --> A'             

 **************************************************************************

 **************************************************************************

                    xk=(   0.00000,   0.38490,   0.00000  )

     Band symmetry, C_s (m)     point group:

     e(  1 -  1) =    -18.16399  eV     1   --> A'             
     e(  2 -  2) =    -18.09827  eV     1   --> A'             
     e(  3 -  3) =     -9.35323  eV     1   --> A'             
     e(  4 -  4) =     -9.28869  eV     1   --> A'             
     e(  5 -  5) =     -6.07386  eV     1   --> A''            
     e(  6 -  6) =     -6.05706  eV     1   --> A''            
     e(  7 -  7) =     -5.36252  eV     1   --> A'             
     e(  8 -  8) =     -4.72970  eV     1   --> A'             
     e(  9 -  9) =      4.19475  eV     1   --> A'             
     e( 10 - 10) =      4.78793  eV     1   --> A'             
     e( 11 - 11) =      5.23273  eV     1   --> A'             
     e( 12 - 12) =      6.39100  eV     1   --> A'             
     e( 13 - 13) =      7.02194  eV     1   --> A'             
     e( 14 - 14) =      7.79310  eV     1   --> A'             
     e( 15 - 15) =      7.82067  eV     1   --> A'             
     e( 16 - 16) =      8.58505  eV     1   --> A'             
     e( 17 - 17) =      8.95638  eV     1   --> A'             
     e( 18 - 18) =     10.28808  eV     1   --> A'             
     e( 19 - 19) =     11.17706  eV     1   --> A'             
     e( 20 - 20) =     13.09896  eV     1   --> A'             

 **************************************************************************

 **************************************************************************

                    xk=(   0.00000,   0.35283,   0.00000  )

     Band symmetry, C_s (m)     point group:

     e(  1 -  1) =    -18.43655  eV     1   --> A'             
     e(  2 -  2) =    -18.36725  eV     1   --> A'             
     e(  3 -  3) =     -8.78538  eV     1   --> A'             
     e(  4 -  4) =     -8.72483  eV     1   --> A'             
     e(  5 -  5) =     -5.88602  eV     1   --> A''            
     e(  6 -  6) =     -5.86938  eV     1   --> A''            
     e(  7 -  7) =     -5.75733  eV     1   --> A'             
     e(  8 -  8) =     -5.09701  eV     1   --> A'             
     e(  9 -  9) =      4.68987  eV     1   --> A'             
     e( 10 - 10) =      4.75945  eV     1   --> A'             
     e( 11 - 11) =      4.88697  eV     1   --> A'             
     e( 12 - 12) =      6.34857  eV     1   --> A'             
     e( 13 - 13) =      6.52797  eV     1   --> A'             
     e( 14 - 14) =      7.53059  eV     1   --> A'             
     e( 15 - 15) =      7.59606  eV     1   --> A'             
     e( 16 - 16) =      8.33541  eV     1   --> A'             
     e( 17 - 17) =      8.76344  eV     1   --> A'             
     e( 18 - 18) =      9.89311  eV     1   --> A'             
     e( 19 - 19) =     10.67159  eV     1   --> A'             
     e( 20 - 20) =     12.79695  eV     1   --> A'             

 **************************************************************************

 **************************************************************************

                    xk=(   0.00000,   0.32075,   0.00000  )

     Band symmetry, C_s (m)     point group:

     e(  1 -  1) =    -18.70045  eV     1   --> A'             
     e(  2 -  2) =    -18.62791  eV     1   --> A'             
     e(  3 -  3) =     -8.19273  eV     1   --> A'             
     e(  4 -  4) =     -8.13673  eV     1   --> A'             
     e(  5 -  5) =     -6.13346  eV     1   --> A'             
     e(  6 -  6) =     -5.67705  eV     1   --> A''            
     e(  7 -  7) =     -5.66130  eV     1   --> A''            
     e(  8 -  8) =     -5.45012  eV     1   --> A'             
     e(  9 -  9) =      4.30043  eV     1   --> A'             
     e( 10 - 10) =      4.66583  eV     1   --> A'             
     e( 11 - 11) =      5.07886  eV     1   --> A'             
     e( 12 - 12) =      6.07119  eV     1   --> A'             
     e( 13 - 13) =      6.53997  eV     1   --> A'             
     e( 14 - 14) =      7.31262  eV     1   --> A'             
     e( 15 - 15) =      7.36392  eV     1   --> A'             
     e( 16 - 16) =      8.26894  eV     1   --> A'             
     e( 17 - 17) =      8.65149  eV     1   --> A'             
     e( 18 - 18) =      9.57949  eV     1   --> A'             
     e( 19 - 19) =     10.22088  eV     1   --> A'             
     e( 20 - 20) =     12.47655  eV     1   --> A'             

 **************************************************************************

 **************************************************************************

                    xk=(   0.00000,   0.28868,   0.00000  )

     Band symmetry, C_s (m)     point group:

     e(  1 -  1) =    -18.94974  eV     1   --> A'             
     e(  2 -  2) =    -18.87425  eV     1   --> A'             
     e(  3 -  3) =     -7.58812  eV     1   --> A'             
     e(  4 -  4) =     -7.53612  eV     1   --> A'             
     e(  5 -  5) =     -6.48397  eV     1   --> A'             
     e(  6 -  6) =     -5.78164  eV     1   --> A'             
     e(  7 -  7) =     -5.45116  eV     1   --> A''            
     e(  8 -  8) =     -5.43608  eV     1   --> A''            
     e(  9 -  9) =      3.87834  eV     1   --> A'             
     e( 10 - 10) =      4.32900  eV     1   --> A'             
     e( 11 - 11) =      5.22860  eV     1   --> A'             
     e( 12 - 12) =      5.71586  eV     1   --> A'             
     e( 13 - 13) =      6.47632  eV     1   --> A'             
     e( 14 - 14) =      7.17612  eV     1   --> A'             
     e( 15 - 15) =      7.49877  eV     1   --> A'             
     e( 16 - 16) =      8.26886  eV     1   --> A'             
     e( 17 - 17) =      8.58972  eV     1   --> A'             
     e( 18 - 18) =      9.37083  eV     1   --> A'             
     e( 19 - 19) =      9.83823  eV     1   --> A'             
     e( 20 - 20) =     12.18298  eV     1   --> A'             

 **************************************************************************

 **************************************************************************

                    xk=(   0.00000,   0.25660,   0.00000  )

     Band symmetry, C_s (m)     point group:

     e(  1 -  1) =    -19.18018  eV     1   --> A'             
     e(  2 -  2) =    -19.10200  eV     1   --> A'             
     e(  3 -  3) =     -6.99577  eV     1   --> A'             
     e(  4 -  4) =     -6.93483  eV     1   --> A'             
     e(  5 -  5) =     -6.79134  eV     1   --> A'             
     e(  6 -  6) =     -6.08579  eV     1   --> A'             
     e(  7 -  7) =     -5.21314  eV     1   --> A''            
     e(  8 -  8) =     -5.19851  eV     1   --> A''            
     e(  9 -  9) =      3.49265  eV     1   --> A'             
     e( 10 - 10) =      3.98157  eV     1   --> A'             
     e( 11 - 11) =      5.04089  eV     1   --> A'             
     e( 12 - 12) =      5.54002  eV     1   --> A'             
     e( 13 - 13) =      6.17992  eV     1   --> A'             
     e( 14 - 14) =      7.11716  eV     1   --> A'             
     e( 15 - 15) =      7.87217  eV     1   --> A'             
     e( 16 - 16) =      8.29696  eV     1   --> A'             
     e( 17 - 17) =      8.57542  eV     1   --> A'             
     e( 18 - 18) =      9.27287  eV     1   --> A'             
     e( 19 - 19) =      9.54811  eV     1   --> A'             
     e( 20 - 20) =     11.94070  eV     1   --> A'             

 **************************************************************************

 **************************************************************************

                    xk=(   0.00000,   0.22453,   0.00000  )

     Band symmetry, C_s (m)     point group:

     e(  1 -  1) =    -19.38868  eV     1   --> A'             
     e(  2 -  2) =    -19.30829  eV     1   --> A'             
     e(  3 -  3) =     -7.10480  eV     1   --> A'             
     e(  4 -  4) =     -6.40518  eV     1   --> A'             
     e(  5 -  5) =     -6.37659  eV     1   --> A'             
     e(  6 -  6) =     -6.30036  eV     1   --> A'             
     e(  7 -  7) =     -4.96939  eV     1   --> A''            
     e(  8 -  8) =     -4.95562  eV     1   --> A''            
     e(  9 -  9) =      3.14608  eV     1   --> A'             
     e( 10 - 10) =      3.65648  eV     1   --> A'             
     e( 11 - 11) =      4.73095  eV     1   --> A'             
     e( 12 - 12) =      5.38760  eV     1   --> A'             
     e( 13 - 13) =      5.86135  eV     1   --> A'             
     e( 14 - 14) =      7.06257  eV     1   --> A'             
     e( 15 - 15) =      8.06593  eV     1   --> A'             
     e( 16 - 16) =      8.46899  eV     1   --> A'             
     e( 17 - 17) =      8.62259  eV     1   --> A'             
     e( 18 - 18) =      9.25797  eV     1   --> A'             
     e( 19 - 19) =      9.39351  eV     1   --> A'             
     e( 20 - 20) =     11.66036  eV     1   --> A'             

 **************************************************************************

 **************************************************************************

                    xk=(   0.00000,   0.19245,   0.00000  )

     Band symmetry, C_s (m)     point group:

     e(  1 -  1) =    -19.57280  eV     1   --> A'             
     e(  2 -  2) =    -19.49048  eV     1   --> A'             
     e(  3 -  3) =     -7.35719  eV     1   --> A'             
     e(  4 -  4) =     -6.61104  eV     1   --> A'             
     e(  5 -  5) =     -5.80785  eV     1   --> A'             
     e(  6 -  6) =     -5.77133  eV     1   --> A'             
     e(  7 -  7) =     -4.72708  eV     1   --> A''            
     e(  8 -  8) =     -4.71405  eV     1   --> A''            
     e(  9 -  9) =      2.84038  eV     1   --> A'             
     e( 10 - 10) =      3.36581  eV     1   --> A'             
     e( 11 - 11) =      4.43418  eV     1   --> A'             
     e( 12 - 12) =      5.20526  eV     1   --> A'             
     e( 13 - 13) =      5.56873  eV     1   --> A'             
     e( 14 - 14) =      6.96741  eV     1   --> A'             
     e( 15 - 15) =      7.99635  eV     1   --> A'             
     e( 16 - 16) =      8.71609  eV     1   --> A'             
     e( 17 - 17) =      8.73786  eV     1   --> A'             
     e( 18 - 18) =      9.28097  eV     1   --> A'             
     e( 19 - 19) =      9.43068  eV     1   --> A'             
     e( 20 - 20) =     11.25527  eV     1   --> A'             

 **************************************************************************

 **************************************************************************

                    xk=(   0.00000,   0.16038,   0.00000  )

     Band symmetry, C_s (m)     point group:

     e(  1 -  1) =    -19.73105  eV     1   --> A'             
     e(  2 -  2) =    -19.64692  eV     1   --> A'             
     e(  3 -  3) =     -7.57466  eV     1   --> A'             
     e(  4 -  4) =     -6.81850  eV     1   --> A'             
     e(  5 -  5) =     -5.27781  eV     1   --> A'             
     e(  6 -  6) =     -5.24643  eV     1   --> A'             
     e(  7 -  7) =     -4.49526  eV     1   --> A''            
     e(  8 -  8) =     -4.48316  eV     1   --> A''            
     e(  9 -  9) =      2.57671  eV     1   --> A'             
     e( 10 - 10) =      3.11475  eV     1   --> A'             
     e( 11 - 11) =      4.17489  eV     1   --> A'             
     e( 12 - 12) =      5.01950  eV     1   --> A'             
     e( 13 - 13) =      5.31425  eV     1   --> A'             
     e( 14 - 14) =      6.84449  eV     1   --> A'             
     e( 15 - 15) =      7.84941  eV     1   --> A'             
     e( 16 - 16) =      8.82138  eV     1   --> A'             
     e( 17 - 17) =      8.89821  eV     1   --> A'             
     e( 18 - 18) =      9.30158  eV     1   --> A'             
     e( 19 - 19) =      9.64490  eV     1   --> A'             
     e( 20 - 20) =     10.69428  eV     1   --> A''            

 **************************************************************************

 **************************************************************************

                    xk=(   0.00000,   0.12830,   0.00000  )

     Band symmetry, C_s (m)     point group:

     e(  1 -  1) =    -19.86206  eV     1   --> A'             
     e(  2 -  2) =    -19.77656  eV     1   --> A'             
     e(  3 -  3) =     -7.75426  eV     1   --> A'             
     e(  4 -  4) =     -6.99019  eV     1   --> A'             
     e(  5 -  5) =     -4.80453  eV     1   --> A'             
     e(  6 -  6) =     -4.77886  eV     1   --> A'             
     e(  7 -  7) =     -4.28512  eV     1   --> A''            
     e(  8 -  8) =     -4.27390  eV     1   --> A''            
     e(  9 -  9) =      2.35642  eV     1   --> A'             
     e( 10 - 10) =      2.90619  eV     1   --> A'             
     e( 11 - 11) =      3.95918  eV     1   --> A'             
     e( 12 - 12) =      4.85041  eV     1   --> A'             
     e( 13 - 13) =      5.10251  eV     1   --> A'             
     e( 14 - 14) =      6.71929  eV     1   --> A'             
     e( 15 - 15) =      7.68856  eV     1   --> A'             
     e( 16 - 16) =      8.91882  eV     1   --> A'             
     e( 17 - 17) =      8.99432  eV     1   --> A'             
     e( 18 - 18) =      9.29925  eV     1   --> A'             
     e( 19 - 19) =      9.89747  eV     1   --> A'             
     e( 20 - 20) =     10.16059  eV     1   --> A''            

 **************************************************************************

 **************************************************************************

                    xk=(   0.00000,   0.09623,   0.00000  )

     Band symmetry, C_s (m)     point group:

     e(  1 -  1) =    -19.96474  eV     1   --> A'             
     e(  2 -  2) =    -19.87819  eV     1   --> A'             
     e(  3 -  3) =     -7.89505  eV     1   --> A'             
     e(  4 -  4) =     -7.12506  eV     1   --> A'             
     e(  5 -  5) =     -4.40646  eV     1   --> A'             
     e(  6 -  6) =     -4.38685  eV     1   --> A'             
     e(  7 -  7) =     -4.10503  eV     1   --> A''            
     e(  8 -  8) =     -4.09448  eV     1   --> A''            
     e(  9 -  9) =      2.18114  eV     1   --> A'             
     e( 10 - 10) =      2.74192  eV     1   --> A'             
     e( 11 - 11) =      3.78952  eV     1   --> A'             
     e( 12 - 12) =      4.70973  eV     1   --> A'             
     e( 13 - 13) =      4.93582  eV     1   --> A'             
     e( 14 - 14) =      6.60964  eV     1   --> A'             
     e( 15 - 15) =      7.54370  eV     1   --> A'             
     e( 16 - 16) =      9.00165  eV     1   --> A'             
     e( 17 - 17) =      9.06996  eV     1   --> A'             
     e( 18 - 18) =      9.27516  eV     1   --> A'             
     e( 19 - 19) =      9.72730  eV     1   --> A''            
     e( 20 - 20) =      9.77408  eV     1   --> A''            

 **************************************************************************

 **************************************************************************

                    xk=(   0.00000,   0.06415,   0.00000  )

     Band symmetry, C_s (m)     point group:

     e(  1 -  1) =    -20.03862  eV     1   --> A'             
     e(  2 -  2) =    -19.95120  eV     1   --> A'             
     e(  3 -  3) =     -7.99596  eV     1   --> A'             
     e(  4 -  4) =     -7.22204  eV     1   --> A'             
     e(  5 -  5) =     -4.10496  eV     1   --> A'             
     e(  6 -  6) =     -4.08976  eV     1   --> A'             
     e(  7 -  7) =     -3.96697  eV     1   --> A''            
     e(  8 -  8) =     -3.95647  eV     1   --> A''            
     e(  9 -  9) =      2.05305  eV     1   --> A'             
     e( 10 - 10) =      2.62333  eV     1   --> A'             
     e( 11 - 11) =      3.66729  eV     1   --> A'             
     e( 12 - 12) =      4.60466  eV     1   --> A'             
     e( 13 - 13) =      4.81566  eV     1   --> A'             
     e( 14 - 14) =      6.52599  eV     1   --> A'             
     e( 15 - 15) =      7.43086  eV     1   --> A'             
     e( 16 - 16) =      9.06785  eV     1   --> A'             
     e( 17 - 17) =      9.13162  eV     1   --> A'             
     e( 18 - 18) =      9.24051  eV     1   --> A'             
     e( 19 - 19) =      9.40665  eV     1   --> A''            
     e( 20 - 20) =      9.45357  eV     1   --> A''            

 **************************************************************************

 **************************************************************************

                    xk=(   0.00000,   0.03208,   0.00000  )

     Band symmetry, C_s (m)     point group:

     e(  1 -  1) =    -20.08304  eV     1   --> A'             
     e(  2 -  2) =    -19.99513  eV     1   --> A'             
     e(  3 -  3) =     -8.05664  eV     1   --> A'             
     e(  4 -  4) =     -7.28016  eV     1   --> A'             
     e(  5 -  5) =     -3.91513  eV     1   --> A'             
     e(  6 -  6) =     -3.90343  eV     1   --> A'             
     e(  7 -  7) =     -3.87968  eV     1   --> A''            
     e(  8 -  8) =     -3.86904  eV     1   --> A''            
     e(  9 -  9) =      1.97472  eV     1   --> A'             
     e( 10 - 10) =      2.55168  eV     1   --> A'             
     e( 11 - 11) =      3.59352  eV     1   --> A'             
     e( 12 - 12) =      4.53982  eV     1   --> A'             
     e( 13 - 13) =      4.74311  eV     1   --> A'             
     e( 14 - 14) =      6.47395  eV     1   --> A'             
     e( 15 - 15) =      7.35958  eV     1   --> A'             
     e( 16 - 16) =      9.11753  eV     1   --> A'             
     e( 17 - 17) =      9.17426  eV     1   --> A'             
     e( 18 - 18) =      9.20598  eV     1   --> A'             
     e( 19 - 19) =      9.20952  eV     1   --> A''            
     e( 20 - 20) =      9.25666  eV     1   --> A''            

 **************************************************************************

 **************************************************************************

                    xk=(   0.00000,   0.00000,   0.00000  )

     point group C_3v (3m)  
     there are  3 classes
     the character table:

       E     2C3   3s_v 
A_1    1.00  1.00  1.00
A_2    1.00  1.00 -1.00
E      2.00 -1.00  0.00

     the symmetry operations in each class and the name of the first element:

     E        1
                                                                 
     2C3      2    3
                                                                 
     3s_v     4    5    6
                                                                 

     Band symmetry, C_3v (3m)   point group:

     e(  1 -  1) =    -20.09781  eV     1   --> A_1  L_1       
     e(  2 -  2) =    -20.00985  eV     1   --> A_1  L_1       
     e(  3 -  3) =     -8.07724  eV     1   --> A_1  L_1       
     e(  4 -  4) =     -7.29972  eV     1   --> A_1  L_1       
     e(  5 -  6) =     -3.84975  eV     2   --> E    L_3       
     e(  7 -  8) =     -3.83923  eV     2   --> E    L_3       
     e(  9 -  9) =      1.94834  eV     1   --> A_1  L_1       
     e( 10 - 10) =      2.52765  eV     1   --> A_1  L_1       
     e( 11 - 11) =      3.56882  eV     1   --> A_1  L_1       
     e( 12 - 12) =      4.51767  eV     1   --> A_1  L_1       
     e( 13 - 13) =      4.71882  eV     1   --> A_1  L_1       
     e( 14 - 14) =      6.45610  eV     1   --> A_1  L_1       
     e( 15 - 15) =      7.33515  eV     1   --> A_1  L_1       
     e( 16 - 17) =      9.14283  eV     2   --> E    L_3       
     e( 18 - 18) =      9.18474  eV     1   --> A_1  L_1       
     e( 19 - 20) =      9.18934  eV     2   --> E    L_3       

 **************************************************************************

     BANDS        :     11.86s CPU     12.14s WALL


   This run was terminated on:  16:38:51  17Apr2024            

=------------------------------------------------------------------------------=
   JOB DONE.
=------------------------------------------------------------------------------=
