
     Program BANDS v.7.2 starts on 12Apr2024 at 17:29: 2 

     This program is part of the open-source Quantum ESPRESSO suite
     for quantum simulation of materials; please cite
         "P. Giannozzi et al., J. Phys.:Condens. Matter 21 395502 (2009);
         "P. Giannozzi et al., J. Phys.:Condens. Matter 29 465901 (2017);
         "P. Giannozzi et al., J. Chem. Phys. 152 154105 (2020);
          URL http://www.quantum-espresso.org", 
     in publications or presentations arising from this work. More details at
     http://www.quantum-espresso.org/quote

     Parallel version (MPI & OpenMP), running on       8 processor cores
     Number of MPI processes:                 8
     Threads/MPI process:                     1

     MPI processes distributed on     1 nodes
     R & G space division:  proc/nbgrp/npool/nimage =       8
     0 MiB available memory on the printing compute node when the environment starts


     Reading xml data from directory:

     ./tmp/BN2L_AA_PBE_vdW.save/

     IMPORTANT: XC functional enforced from input :
     Exchange-correlation= VDW-DF2-B86R
                           (   1   4  26   0   2   0   0)
     Any further DFT definition will be discarded
     Please, verify this is what you really want


     Parallelization info
     --------------------
     sticks:   dense  smooth     PW     G-vecs:    dense   smooth      PW
     Min          45      45     15                 5775     5775    1005
     Max          46      46     16                 5804     5804    1022
     Sum         367     367    121                46381    46381    8133

     Using Slab Decomposition


     negative rho (up, down):  7.282E-06 0.000E+00


     %%%%%%%%%%%%%%%%%%%%%%%%%%%%%%%%%%%%%%%%%%%%%%%%%%%%%%%%%%%%%%%%%%%%%%%%
     %                                                                      %
     % You are using vdW-DF, which was implemented by the Thonhauser group. %
     % Please cite the following two papers that made this development      %
     % possible and the two reviews that describe the various versions:     %
     %                                                                      %
     %   T. Thonhauser et al., PRL 115, 136402 (2015).                      %
     %   T. Thonhauser et al., PRB 76, 125112 (2007).                       %
     %   K. Berland et al., Rep. Prog. Phys. 78, 066501 (2015).             %
     %   D.C. Langreth et al., J. Phys.: Condens. Matter 21, 084203 (2009). %
     %                                                                      %
     % If you are calculating stress with vdW-DF, please also cite:         %
     %                                                                      %
     %   R. Sabatini et al., J. Phys.: Condens. Matter 24, 424209 (2012).   %
     %                                                                      %
     %%%%%%%%%%%%%%%%%%%%%%%%%%%%%%%%%%%%%%%%%%%%%%%%%%%%%%%%%%%%%%%%%%%%%%%%

     %%%%%%%%%%%%%%%%%%%%%%%%%%%%%%%%%%%%%%%%%%%%%%%%%%%%%%%%%%%%%%%%%%%%%%%%
     %                                                                      %
     %  vdW-DF NEWS:                                                        %
     %                                                                      %
     %  * vdW-DF3 is now available. DOI: 10.1021/acs.jctc.0c00471           %
     %    use with input_dft = 'vdW-DF3-opt1' or 'vdW-DF3-opt2'             %
     %                                                                      %
     %  * Unscreened and range-separated hybrid vdW-DF-cx functionals       %
     %    DOI: 10.1063/1.4986522 and 10.1088/1361-648X/ac2ad2               %
     %    use with input_dft = 'vdW-DF-cx0'    and 'vdW-DF-ahcx'            %
     %  * Unscreened and range-separated hybrid vdW-DF2-b86r functionals    %
     %    DOI: 10.1063/1.4986522 and DOI: 10.1103/PhysRevX.12.041003        %
     %    use with input_dft = 'vdW-DF2-br0' and 'vdW-DF2-ahbr'             %
     %                                                                      %
     %%%%%%%%%%%%%%%%%%%%%%%%%%%%%%%%%%%%%%%%%%%%%%%%%%%%%%%%%%%%%%%%%%%%%%%%


     Reading collected, re-writing distributed wavefunctions
     high-symmetry point:  0.0000 0.0000 0.0000   x coordinate   0.0000
     high-symmetry point: -0.3333 0.5774 0.0000   x coordinate   0.6667
     high-symmetry point:  0.0000 0.5774 0.0000   x coordinate   1.0000
     high-symmetry point:  0.0000 0.0000 0.0000   x coordinate   1.5773

     Plottable bands (eV) written to file Bande_BN2L_AA_PBE_vdW.dat.gnu
     Bands written to file Bande_BN2L_AA_PBE_vdW.dat

 **************************************************************************

                    xk=(   0.00000,   0.00000,   0.00000  )

     point group C_3v (3m)  
     there are  3 classes
     the character table:

       E     2C3   3s_v 
A_1    1.00  1.00  1.00
A_2    1.00  1.00 -1.00
E      2.00 -1.00  0.00

     the symmetry operations in each class and the name of the first element:

     E        1
                                                                 
     2C3      2    3
                                                                 
     3s_v     4    5    6
                                                                 

     Band symmetry, C_3v (3m)   point group:

     e(  1 -  1) =    -20.10766  eV     1   --> A_1  L_1       
     e(  2 -  2) =    -20.01848  eV     1   --> A_1  L_1       
     e(  3 -  3) =     -8.08455  eV     1   --> A_1  L_1       
     e(  4 -  4) =     -7.30242  eV     1   --> A_1  L_1       
     e(  5 -  6) =     -3.82580  eV     2   --> E    L_3       
     e(  7 -  8) =     -3.81471  eV     2   --> E    L_3       
     e(  9 -  9) =      1.96542  eV     1   --> A_1  L_1       
     e( 10 - 10) =      2.54307  eV     1   --> A_1  L_1       
     e( 11 - 11) =      3.58701  eV     1   --> A_1  L_1       
     e( 12 - 12) =      4.54539  eV     1   --> A_1  L_1       
     e( 13 - 13) =      4.74061  eV     1   --> A_1  L_1       
     e( 14 - 14) =      6.48746  eV     1   --> A_1  L_1       
     e( 15 - 15) =      7.37428  eV     1   --> A_1  L_1       
     e( 16 - 17) =      9.20238  eV     2   --> E    L_3       
     e( 18 - 18) =      9.23759  eV     1   --> A_1  L_1       
     e( 19 - 20) =      9.25093  eV     2   --> E    L_3       

 **************************************************************************

 **************************************************************************

                    xk=(  -0.01587,   0.02749,   0.00000  )

     point group C_1 (1)    
     there are  1 classes
     the character table:

       E    
A      1.00

     the symmetry operations in each class and the name of the first element:

     E        1
                                                                 

     Band symmetry, C_1 (1)     point group:

     e(  1 -  1) =    -20.09308  eV     1   --> A              
     e(  2 -  2) =    -20.00419  eV     1   --> A              
     e(  3 -  3) =     -8.06491  eV     1   --> A              
     e(  4 -  4) =     -7.28326  eV     1   --> A              
     e(  5 -  5) =     -3.88933  eV     1   --> A              
     e(  6 -  6) =     -3.87784  eV     1   --> A              
     e(  7 -  7) =     -3.85515  eV     1   --> A              
     e(  8 -  8) =     -3.84441  eV     1   --> A              
     e(  9 -  9) =      1.99131  eV     1   --> A              
     e( 10 - 10) =      2.56662  eV     1   --> A              
     e( 11 - 11) =      3.61124  eV     1   --> A              
     e( 12 - 12) =      4.56680  eV     1   --> A              
     e( 13 - 13) =      4.76444  eV     1   --> A              
     e( 14 - 14) =      6.50462  eV     1   --> A              
     e( 15 - 15) =      7.39810  eV     1   --> A              
     e( 16 - 16) =      9.17810  eV     1   --> A              
     e( 17 - 17) =      9.23573  eV     1   --> A              
     e( 18 - 18) =      9.25325  eV     1   --> A              
     e( 19 - 19) =      9.27242  eV     1   --> A              
     e( 20 - 20) =      9.31518  eV     1   --> A              

 **************************************************************************

 **************************************************************************

                    xk=(  -0.03175,   0.05499,   0.00000  )

     Band symmetry, C_1 (1)     point group:

     e(  1 -  1) =    -20.04941  eV     1   --> A              
     e(  2 -  2) =    -19.96099  eV     1   --> A              
     e(  3 -  3) =     -8.00525  eV     1   --> A              
     e(  4 -  4) =     -7.22625  eV     1   --> A              
     e(  5 -  5) =     -4.07370  eV     1   --> A              
     e(  6 -  6) =     -4.05908  eV     1   --> A              
     e(  7 -  7) =     -3.94318  eV     1   --> A              
     e(  8 -  8) =     -3.93211  eV     1   --> A              
     e(  9 -  9) =      2.06817  eV     1   --> A              
     e( 10 - 10) =      2.63701  eV     1   --> A              
     e( 11 - 11) =      3.68375  eV     1   --> A              
     e( 12 - 12) =      4.63060  eV     1   --> A              
     e( 13 - 13) =      4.83571  eV     1   --> A              
     e( 14 - 14) =      6.55594  eV     1   --> A              
     e( 15 - 15) =      7.46822  eV     1   --> A              
     e( 16 - 16) =      9.14018  eV     1   --> A              
     e( 17 - 17) =      9.20503  eV     1   --> A              
     e( 18 - 18) =      9.28056  eV     1   --> A              
     e( 19 - 19) =      9.46248  eV     1   --> A              
     e( 20 - 20) =      9.49390  eV     1   --> A              

 **************************************************************************

 **************************************************************************

                    xk=(  -0.04762,   0.08248,   0.00000  )

     Band symmetry, C_1 (1)     point group:

     e(  1 -  1) =    -19.97677  eV     1   --> A              
     e(  2 -  2) =    -19.88919  eV     1   --> A              
     e(  3 -  3) =     -7.90611  eV     1   --> A              
     e(  4 -  4) =     -7.13099  eV     1   --> A              
     e(  5 -  5) =     -4.36392  eV     1   --> A              
     e(  6 -  6) =     -4.34432  eV     1   --> A              
     e(  7 -  7) =     -4.08619  eV     1   --> A              
     e(  8 -  8) =     -4.07466  eV     1   --> A              
     e(  9 -  9) =      2.19408  eV     1   --> A              
     e( 10 - 10) =      2.75357  eV     1   --> A              
     e( 11 - 11) =      3.80394  eV     1   --> A              
     e( 12 - 12) =      4.73413  eV     1   --> A              
     e( 13 - 13) =      4.95385  eV     1   --> A              
     e( 14 - 14) =      6.63858  eV     1   --> A              
     e( 15 - 15) =      7.58079  eV     1   --> A              
     e( 16 - 16) =      9.10567  eV     1   --> A              
     e( 17 - 17) =      9.17674  eV     1   --> A              
     e( 18 - 18) =      9.29916  eV     1   --> A              
     e( 19 - 19) =      9.72989  eV     1   --> A              
     e( 20 - 20) =      9.75958  eV     1   --> A              

 **************************************************************************

 **************************************************************************

                    xk=(  -0.06349,   0.10997,   0.00000  )

     Band symmetry, C_1 (1)     point group:

     e(  1 -  1) =    -19.87578  eV     1   --> A              
     e(  2 -  2) =    -19.78923  eV     1   --> A              
     e(  3 -  3) =     -7.76751  eV     1   --> A              
     e(  4 -  4) =     -6.99839  eV     1   --> A              
     e(  5 -  5) =     -4.74016  eV     1   --> A              
     e(  6 -  6) =     -4.71526  eV     1   --> A              
     e(  7 -  7) =     -4.28204  eV     1   --> A              
     e(  8 -  8) =     -4.26904  eV     1   --> A              
     e(  9 -  9) =      2.36685  eV     1   --> A              
     e( 10 - 10) =      2.91526  eV     1   --> A              
     e( 11 - 11) =      3.97102  eV     1   --> A              
     e( 12 - 12) =      4.87361  eV     1   --> A              
     e( 13 - 13) =      5.11799  eV     1   --> A              
     e( 14 - 14) =      6.74742  eV     1   --> A              
     e( 15 - 15) =      7.73043  eV     1   --> A              
     e( 16 - 16) =      9.08465  eV     1   --> A              
     e( 17 - 17) =      9.16733  eV     1   --> A              
     e( 18 - 18) =      9.30351  eV     1   --> A              
     e( 19 - 19) =      9.84394  eV     1   --> A              
     e( 20 - 20) =     10.12866  eV     1   --> A              

 **************************************************************************

 **************************************************************************

                    xk=(  -0.07936,   0.13746,   0.00000  )

     Band symmetry, C_1 (1)     point group:

     e(  1 -  1) =    -19.74698  eV     1   --> A              
     e(  2 -  2) =    -19.66173  eV     1   --> A              
     e(  3 -  3) =     -7.59065  eV     1   --> A              
     e(  4 -  4) =     -6.82915  eV     1   --> A              
     e(  5 -  5) =     -5.18042  eV     1   --> A              
     e(  6 -  6) =     -5.14987  eV     1   --> A              
     e(  7 -  7) =     -4.52370  eV     1   --> A              
     e(  8 -  8) =     -4.50945  eV     1   --> A              
     e(  9 -  9) =      2.58489  eV     1   --> A              
     e( 10 - 10) =      3.12095  eV     1   --> A              
     e( 11 - 11) =      4.18393  eV     1   --> A              
     e( 12 - 12) =      5.04264  eV     1   --> A              
     e( 13 - 13) =      5.32702  eV     1   --> A              
     e( 14 - 14) =      6.87301  eV     1   --> A              
     e( 15 - 15) =      7.90831  eV     1   --> A              
     e( 16 - 16) =      9.07959  eV     1   --> A              
     e( 17 - 17) =      9.17754  eV     1   --> A              
     e( 18 - 18) =      9.29161  eV     1   --> A              
     e( 19 - 19) =      9.64361  eV     1   --> A              
     e( 20 - 20) =     10.32446  eV     1   --> A              

 **************************************************************************

 **************************************************************************

                    xk=(  -0.09524,   0.16496,   0.00000  )

     Band symmetry, C_1 (1)     point group:

     e(  1 -  1) =    -19.59121  eV     1   --> A              
     e(  2 -  2) =    -19.50774  eV     1   --> A              
     e(  3 -  3) =     -7.37659  eV     1   --> A              
     e(  4 -  4) =     -6.62481  eV     1   --> A              
     e(  5 -  5) =     -5.66393  eV     1   --> A              
     e(  6 -  6) =     -5.62881  eV     1   --> A              
     e(  7 -  7) =     -4.80633  eV     1   --> A              
     e(  8 -  8) =     -4.79060  eV     1   --> A              
     e(  9 -  9) =      2.84722  eV     1   --> A              
     e( 10 - 10) =      3.36917  eV     1   --> A              
     e( 11 - 11) =      4.44096  eV     1   --> A              
     e( 12 - 12) =      5.23099  eV     1   --> A              
     e( 13 - 13) =      5.57923  eV     1   --> A              
     e( 14 - 14) =      7.00014  eV     1   --> A              
     e( 15 - 15) =      8.08972  eV     1   --> A              
     e( 16 - 16) =      9.07797  eV     1   --> A              
     e( 17 - 17) =      9.14465  eV     1   --> A              
     e( 18 - 18) =      9.28782  eV     1   --> A              
     e( 19 - 19) =      9.42753  eV     1   --> A              
     e( 20 - 20) =     10.53706  eV     1   --> A              

 **************************************************************************

 **************************************************************************

                    xk=(  -0.11111,   0.19245,   0.00000  )

     Band symmetry, C_1 (1)     point group:

     e(  1 -  1) =    -19.40959  eV     1   --> A              
     e(  2 -  2) =    -19.32799  eV     1   --> A              
     e(  3 -  3) =     -7.12695  eV     1   --> A              
     e(  4 -  4) =     -6.39276  eV     1   --> A              
     e(  5 -  5) =     -6.17324  eV     1   --> A              
     e(  6 -  6) =     -6.12773  eV     1   --> A              
     e(  7 -  7) =     -5.12211  eV     1   --> A              
     e(  8 -  8) =     -5.10414  eV     1   --> A              
     e(  9 -  9) =      3.15342  eV     1   --> A              
     e( 10 - 10) =      3.65778  eV     1   --> A              
     e( 11 - 11) =      4.73798  eV     1   --> A              
     e( 12 - 12) =      5.42072  eV     1   --> A              
     e( 13 - 13) =      5.87120  eV     1   --> A              
     e( 14 - 14) =      7.11024  eV     1   --> A              
     e( 15 - 15) =      8.17770  eV     1   --> A              
     e( 16 - 16) =      8.99031  eV     1   --> A              
     e( 17 - 17) =      9.06874  eV     1   --> A              
     e( 18 - 18) =      9.34039  eV     1   --> A              
     e( 19 - 19) =      9.45280  eV     1   --> A              
     e( 20 - 20) =     10.76542  eV     1   --> A              

 **************************************************************************

 **************************************************************************

                    xk=(  -0.12698,   0.21994,   0.00000  )

     Band symmetry, C_1 (1)     point group:

     e(  1 -  1) =    -19.20354  eV     1   --> A              
     e(  2 -  2) =    -19.12430  eV     1   --> A              
     e(  3 -  3) =     -6.85915  eV     1   --> A              
     e(  4 -  4) =     -6.67864  eV     1   --> A              
     e(  5 -  5) =     -6.66266  eV     1   --> A              
     e(  6 -  6) =     -6.10540  eV     1   --> A              
     e(  7 -  7) =     -5.46486  eV     1   --> A              
     e(  8 -  8) =     -5.44404  eV     1   --> A              
     e(  9 -  9) =      3.50322  eV     1   --> A              
     e( 10 - 10) =      3.98279  eV     1   --> A              
     e( 11 - 11) =      5.05918  eV     1   --> A              
     e( 12 - 12) =      5.58365  eV     1   --> A              
     e( 13 - 13) =      6.19360  eV     1   --> A              
     e( 14 - 14) =      7.19759  eV     1   --> A              
     e( 15 - 15) =      7.99044  eV     1   --> A              
     e( 16 - 16) =      9.05437  eV     1   --> A              
     e( 17 - 17) =      9.10095  eV     1   --> A              
     e( 18 - 18) =      9.45705  eV     1   --> A              
     e( 19 - 19) =      9.59620  eV     1   --> A              
     e( 20 - 20) =     11.00867  eV     1   --> A              

 **************************************************************************

 **************************************************************************

                    xk=(  -0.14286,   0.24744,   0.00000  )

     Band symmetry, C_1 (1)     point group:

     e(  1 -  1) =    -18.97529  eV     1   --> A              
     e(  2 -  2) =    -18.89872  eV     1   --> A              
     e(  3 -  3) =     -7.23012  eV     1   --> A              
     e(  4 -  4) =     -7.18134  eV     1   --> A              
     e(  5 -  5) =     -6.51365  eV     1   --> A              
     e(  6 -  6) =     -5.82717  eV     1   --> A              
     e(  7 -  7) =     -5.82361  eV     1   --> A              
     e(  8 -  8) =     -5.78601  eV     1   --> A              
     e(  9 -  9) =      3.89622  eV     1   --> A              
     e( 10 - 10) =      4.33527  eV     1   --> A              
     e( 11 - 11) =      5.31207  eV     1   --> A              
     e( 12 - 12) =      5.74245  eV     1   --> A              
     e( 13 - 13) =      6.51061  eV     1   --> A              
     e( 14 - 14) =      7.30490  eV     1   --> A              
     e( 15 - 15) =      7.65726  eV     1   --> A              
     e( 16 - 16) =      9.23182  eV     1   --> A              
     e( 17 - 17) =      9.32406  eV     1   --> A              
     e( 18 - 18) =      9.62470  eV     1   --> A              
     e( 19 - 19) =      9.79749  eV     1   --> A              
     e( 20 - 20) =     11.26712  eV     1   --> A              

 **************************************************************************

 **************************************************************************

                    xk=(  -0.15873,   0.27493,   0.00000  )

     Band symmetry, C_1 (1)     point group:

     e(  1 -  1) =    -18.72701  eV     1   --> A              
     e(  2 -  2) =    -18.65326  eV     1   --> A              
     e(  3 -  3) =     -7.74220  eV     1   --> A              
     e(  4 -  4) =     -7.69162  eV     1   --> A              
     e(  5 -  5) =     -6.21372  eV     1   --> A              
     e(  6 -  6) =     -6.17703  eV     1   --> A              
     e(  7 -  7) =     -6.15519  eV     1   --> A              
     e(  8 -  8) =     -5.47499  eV     1   --> A              
     e(  9 -  9) =      4.33222  eV     1   --> A              
     e( 10 - 10) =      4.69277  eV     1   --> A              
     e( 11 - 11) =      5.26782  eV     1   --> A              
     e( 12 - 12) =      6.07375  eV     1   --> A              
     e( 13 - 13) =      6.65827  eV     1   --> A              
     e( 14 - 14) =      7.50182  eV     1   --> A              
     e( 15 - 15) =      7.50690  eV     1   --> A              
     e( 16 - 16) =      9.46869  eV     1   --> A              
     e( 17 - 17) =      9.67605  eV     1   --> A              
     e( 18 - 18) =      9.83413  eV     1   --> A              
     e( 19 - 19) =     10.04678  eV     1   --> A              
     e( 20 - 20) =     11.54249  eV     1   --> A              

 **************************************************************************

 **************************************************************************

                    xk=(  -0.17460,   0.30242,   0.00000  )

     Band symmetry, C_1 (1)     point group:

     e(  1 -  1) =    -18.46218  eV     1   --> A              
     e(  2 -  2) =    -18.39148  eV     1   --> A              
     e(  3 -  3) =     -8.23774  eV     1   --> A              
     e(  4 -  4) =     -8.18457  eV     1   --> A              
     e(  5 -  5) =     -6.58667  eV     1   --> A              
     e(  6 -  6) =     -6.55559  eV     1   --> A              
     e(  7 -  7) =     -5.78938  eV     1   --> A              
     e(  8 -  8) =     -5.12146  eV     1   --> A              
     e(  9 -  9) =      4.81026  eV     1   --> A              
     e( 10 - 10) =      4.98435  eV     1   --> A              
     e( 11 - 11) =      4.98472  eV     1   --> A              
     e( 12 - 12) =      6.51280  eV     1   --> A              
     e( 13 - 13) =      6.53629  eV     1   --> A              
     e( 14 - 14) =      7.78101  eV     1   --> A              
     e( 15 - 15) =      7.80713  eV     1   --> A              
     e( 16 - 16) =      9.78493  eV     1   --> A              
     e( 17 - 17) =     10.07078  eV     1   --> A              
     e( 18 - 18) =     10.07769  eV     1   --> A              
     e( 19 - 19) =     10.33638  eV     1   --> A              
     e( 20 - 20) =     11.83592  eV     1   --> A              

 **************************************************************************

 **************************************************************************

                    xk=(  -0.19047,   0.32992,   0.00000  )

     Band symmetry, C_1 (1)     point group:

     e(  1 -  1) =    -18.18478  eV     1   --> A              
     e(  2 -  2) =    -18.11769  eV     1   --> A              
     e(  3 -  3) =     -8.70591  eV     1   --> A              
     e(  4 -  4) =     -8.65047  eV     1   --> A              
     e(  5 -  5) =     -6.97046  eV     1   --> A              
     e(  6 -  6) =     -6.93570  eV     1   --> A              
     e(  7 -  7) =     -5.39124  eV     1   --> A              
     e(  8 -  8) =     -4.74883  eV     1   --> A              
     e(  9 -  9) =      4.58495  eV     1   --> A              
     e( 10 - 10) =      5.03446  eV     1   --> A              
     e( 11 - 11) =      5.33076  eV     1   --> A              
     e( 12 - 12) =      6.49752  eV     1   --> A              
     e( 13 - 13) =      7.06360  eV     1   --> A              
     e( 14 - 14) =      8.19492  eV     1   --> A              
     e( 15 - 15) =      8.25246  eV     1   --> A              
     e( 16 - 16) =     10.13787  eV     1   --> A              
     e( 17 - 17) =     10.35322  eV     1   --> A              
     e( 18 - 18) =     10.48915  eV     1   --> A              
     e( 19 - 19) =     10.66041  eV     1   --> A              
     e( 20 - 20) =     12.05545  eV     1   --> A              

 **************************************************************************

 **************************************************************************

                    xk=(  -0.20635,   0.35741,   0.00000  )

     Band symmetry, C_1 (1)     point group:

     e(  1 -  1) =    -17.90045  eV     1   --> A              
     e(  2 -  2) =    -17.83704  eV     1   --> A              
     e(  3 -  3) =     -9.13863  eV     1   --> A              
     e(  4 -  4) =     -9.08127  eV     1   --> A              
     e(  5 -  5) =     -7.35110  eV     1   --> A              
     e(  6 -  6) =     -7.31194  eV     1   --> A              
     e(  7 -  7) =     -4.97651  eV     1   --> A              
     e(  8 -  8) =     -4.36378  eV     1   --> A              
     e(  9 -  9) =      4.13475  eV     1   --> A              
     e( 10 - 10) =      4.77362  eV     1   --> A              
     e( 11 - 11) =      5.89080  eV     1   --> A              
     e( 12 - 12) =      6.81010  eV     1   --> A              
     e( 13 - 13) =      7.63950  eV     1   --> A              
     e( 14 - 14) =      8.63238  eV     1   --> A              
     e( 15 - 15) =      8.80300  eV     1   --> A              
     e( 16 - 16) =     10.45071  eV     1   --> A              
     e( 17 - 17) =     10.67722  eV     1   --> A              
     e( 18 - 18) =     10.89706  eV     1   --> A              
     e( 19 - 19) =     11.02794  eV     1   --> A              
     e( 20 - 20) =     12.15972  eV     1   --> A              

 **************************************************************************

 **************************************************************************

                    xk=(  -0.22222,   0.38490,   0.00000  )

     Band symmetry, C_1 (1)     point group:

     e(  1 -  1) =    -17.61597  eV     1   --> A              
     e(  2 -  2) =    -17.55663  eV     1   --> A              
     e(  3 -  3) =     -9.52583  eV     1   --> A              
     e(  4 -  4) =     -9.46684  eV     1   --> A              
     e(  5 -  5) =     -7.72386  eV     1   --> A              
     e(  6 -  6) =     -7.68035  eV     1   --> A              
     e(  7 -  7) =     -4.55322  eV     1   --> A              
     e(  8 -  8) =     -3.97422  eV     1   --> A              
     e(  9 -  9) =      3.67285  eV     1   --> A              
     e( 10 - 10) =      4.38072  eV     1   --> A              
     e( 11 - 11) =      6.48879  eV     1   --> A              
     e( 12 - 12) =      7.30753  eV     1   --> A              
     e( 13 - 13) =      8.25386  eV     1   --> A              
     e( 14 - 14) =      9.08399  eV     1   --> A              
     e( 15 - 15) =      9.40584  eV     1   --> A              
     e( 16 - 16) =     10.65602  eV     1   --> A              
     e( 17 - 17) =     11.04013  eV     1   --> A              
     e( 18 - 18) =     11.23468  eV     1   --> A              
     e( 19 - 19) =     11.46772  eV     1   --> A              
     e( 20 - 20) =     12.31538  eV     1   --> A              

 **************************************************************************

 **************************************************************************

                    xk=(  -0.23809,   0.41239,   0.00000  )

     Band symmetry, C_1 (1)     point group:

     e(  1 -  1) =    -17.34029  eV     1   --> A              
     e(  2 -  2) =    -17.28514  eV     1   --> A              
     e(  3 -  3) =     -9.85858  eV     1   --> A              
     e(  4 -  4) =     -9.79795  eV     1   --> A              
     e(  5 -  5) =     -8.08541  eV     1   --> A              
     e(  6 -  6) =     -8.03712  eV     1   --> A              
     e(  7 -  7) =     -4.13225  eV     1   --> A              
     e(  8 -  8) =     -3.59085  eV     1   --> A              
     e(  9 -  9) =      3.22520  eV     1   --> A              
     e( 10 - 10) =      3.96846  eV     1   --> A              
     e( 11 - 11) =      7.12094  eV     1   --> A              
     e( 12 - 12) =      7.88973  eV     1   --> A              
     e( 13 - 13) =      8.87961  eV     1   --> A              
     e( 14 - 14) =      9.50044  eV     1   --> A              
     e( 15 - 15) =     10.04953  eV     1   --> A              
     e( 16 - 16) =     10.77329  eV     1   --> A              
     e( 17 - 17) =     11.38803  eV     1   --> A              
     e( 18 - 18) =     11.49295  eV     1   --> A              
     e( 19 - 19) =     11.94868  eV     1   --> A              
     e( 20 - 20) =     12.58756  eV     1   --> A              

 **************************************************************************

 **************************************************************************

                    xk=(  -0.25397,   0.43989,   0.00000  )

     Band symmetry, C_1 (1)     point group:

     e(  1 -  1) =    -17.08372  eV     1   --> A              
     e(  2 -  2) =    -17.03271  eV     1   --> A              
     e(  3 -  3) =    -10.12558  eV     1   --> A              
     e(  4 -  4) =    -10.06364  eV     1   --> A              
     e(  5 -  5) =     -8.43120  eV     1   --> A              
     e(  6 -  6) =     -8.37823  eV     1   --> A              
     e(  7 -  7) =     -3.72738  eV     1   --> A              
     e(  8 -  8) =     -3.22762  eV     1   --> A              
     e(  9 -  9) =      2.81324  eV     1   --> A              
     e( 10 - 10) =      3.58315  eV     1   --> A              
     e( 11 - 11) =      7.78126  eV     1   --> A              
     e( 12 - 12) =      8.51634  eV     1   --> A              
     e( 13 - 13) =      9.36100  eV     1   --> A              
     e( 14 - 14) =      9.90861  eV     1   --> A              
     e( 15 - 15) =     10.72206  eV     1   --> A              
     e( 16 - 16) =     10.91725  eV     1   --> A              
     e( 17 - 17) =     11.64169  eV     1   --> A              
     e( 18 - 18) =     11.72450  eV     1   --> A              
     e( 19 - 19) =     12.44311  eV     1   --> A              
     e( 20 - 20) =     12.94392  eV     1   --> A              

 **************************************************************************

 **************************************************************************

                    xk=(  -0.26984,   0.46738,   0.00000  )

     Band symmetry, C_1 (1)     point group:

     e(  1 -  1) =    -16.85824  eV     1   --> A              
     e(  2 -  2) =    -16.81105  eV     1   --> A              
     e(  3 -  3) =    -10.31585  eV     1   --> A              
     e(  4 -  4) =    -10.25419  eV     1   --> A              
     e(  5 -  5) =     -8.75817  eV     1   --> A              
     e(  6 -  6) =     -8.70009  eV     1   --> A              
     e(  7 -  7) =     -3.35762  eV     1   --> A              
     e(  8 -  8) =     -2.90138  eV     1   --> A              
     e(  9 -  9) =      2.45635  eV     1   --> A              
     e( 10 - 10) =      3.25013  eV     1   --> A              
     e( 11 - 11) =      8.45749  eV     1   --> A              
     e( 12 - 12) =      9.15766  eV     1   --> A              
     e( 13 - 13) =      9.42451  eV     1   --> A              
     e( 14 - 14) =     10.51612  eV     1   --> A              
     e( 15 - 15) =     11.16003  eV     1   --> A              
     e( 16 - 16) =     11.39424  eV     1   --> A              
     e( 17 - 17) =     11.65481  eV     1   --> A              
     e( 18 - 18) =     12.10243  eV     1   --> A              
     e( 19 - 19) =     12.90245  eV     1   --> A              
     e( 20 - 20) =     13.21933  eV     1   --> A              

 **************************************************************************

 **************************************************************************

                    xk=(  -0.28571,   0.49487,   0.00000  )

     Band symmetry, C_1 (1)     point group:

     e(  1 -  1) =    -16.67536  eV     1   --> A              
     e(  2 -  2) =    -16.63129  eV     1   --> A              
     e(  3 -  3) =    -10.42203  eV     1   --> A              
     e(  4 -  4) =    -10.36100  eV     1   --> A              
     e(  5 -  5) =     -9.06115  eV     1   --> A              
     e(  6 -  6) =     -8.99715  eV     1   --> A              
     e(  7 -  7) =     -3.04448  eV     1   --> A              
     e(  8 -  8) =     -2.62980  eV     1   --> A              
     e(  9 -  9) =      2.17176  eV     1   --> A              
     e( 10 - 10) =      2.98666  eV     1   --> A              
     e( 11 - 11) =      9.11852  eV     1   --> A              
     e( 12 - 12) =      9.28684  eV     1   --> A              
     e( 13 - 13) =      9.76750  eV     1   --> A              
     e( 14 - 14) =     11.07951  eV     1   --> A              
     e( 15 - 15) =     11.54740  eV     1   --> A              
     e( 16 - 16) =     11.54928  eV     1   --> A              
     e( 17 - 17) =     12.05555  eV     1   --> A              
     e( 18 - 18) =     12.54376  eV     1   --> A              
     e( 19 - 19) =     13.23386  eV     1   --> A              
     e( 20 - 20) =     13.30469  eV     1   --> A              

 **************************************************************************

 **************************************************************************

                    xk=(  -0.30158,   0.52237,   0.00000  )

     Band symmetry, C_1 (1)     point group:

     e(  1 -  1) =    -16.54397  eV     1   --> A              
     e(  2 -  2) =    -16.50252  eV     1   --> A              
     e(  3 -  3) =    -10.44305  eV     1   --> A              
     e(  4 -  4) =    -10.38546  eV     1   --> A              
     e(  5 -  5) =     -9.33141  eV     1   --> A              
     e(  6 -  6) =     -9.26098  eV     1   --> A              
     e(  7 -  7) =     -2.81087  eV     1   --> A              
     e(  8 -  8) =     -2.42979  eV     1   --> A              
     e(  9 -  9) =      1.97318  eV     1   --> A              
     e( 10 - 10) =      2.80387  eV     1   --> A              
     e( 11 - 11) =      9.10352  eV     1   --> A              
     e( 12 - 12) =      9.73000  eV     1   --> A              
     e( 13 - 13) =     10.24745  eV     1   --> A              
     e( 14 - 14) =     11.32619  eV     1   --> A              
     e( 15 - 15) =     11.51741  eV     1   --> A              
     e( 16 - 16) =     12.24646  eV     1   --> A              
     e( 17 - 17) =     12.54178  eV     1   --> A              
     e( 18 - 18) =     12.80076  eV     1   --> A              
     e( 19 - 19) =     13.46807  eV     1   --> A              
     e( 20 - 20) =     13.57109  eV     1   --> A              

 **************************************************************************

 **************************************************************************

                    xk=(  -0.31746,   0.54986,   0.00000  )

     Band symmetry, C_1 (1)     point group:

     e(  1 -  1) =    -16.46766  eV     1   --> A              
     e(  2 -  2) =    -16.42777  eV     1   --> A              
     e(  3 -  3) =    -10.39883  eV     1   --> A              
     e(  4 -  4) =    -10.34714  eV     1   --> A              
     e(  5 -  5) =     -9.54622  eV     1   --> A              
     e(  6 -  6) =     -9.46819  eV     1   --> A              
     e(  7 -  7) =     -2.67178  eV     1   --> A              
     e(  8 -  8) =     -2.31113  eV     1   --> A              
     e(  9 -  9) =      1.86449  eV     1   --> A              
     e( 10 - 10) =      2.70346  eV     1   --> A              
     e( 11 - 11) =      8.97567  eV     1   --> A              
     e( 12 - 12) =     10.14168  eV     1   --> A              
     e( 13 - 13) =     10.47344  eV     1   --> A              
     e( 14 - 14) =     11.53652  eV     1   --> A              
     e( 15 - 15) =     11.64018  eV     1   --> A              
     e( 16 - 16) =     12.50585  eV     1   --> A              
     e( 17 - 17) =     12.77853  eV     1   --> A              
     e( 18 - 18) =     13.17272  eV     1   --> A              
     e( 19 - 19) =     13.88345  eV     1   --> A              
     e( 20 - 20) =     13.97801  eV     1   --> A              

 **************************************************************************

 **************************************************************************

                    xk=(  -0.33333,   0.57735,   0.00000  )

     point group C_3 (3)    
     there are  3 classes
     the character table:

       E     C3    C3^2 
A      1.00  1.00  1.00
E      1.00 -0.50 -0.50
E*     1.00 -0.50 -0.50
     imaginary part
A      0.00  0.00  0.00
E      0.00  0.87 -0.87
E*     0.00 -0.87  0.87

     the symmetry operations in each class and the name of the first element:

     E        1
                                                                 
     C3       2
                                                                 
     C3^2     3
                                                                 

     Band symmetry, C_3 (3)     point group:

     e(  1 -  1) =    -16.44396  eV     1   --> E*             
     e(  2 -  2) =    -16.40470  eV     1   --> E*             
     e(  3 -  3) =    -10.35801  eV     1   --> E              
     e(  4 -  4) =    -10.31142  eV     1   --> E              
     e(  5 -  5) =     -9.64155  eV     1   --> A              
     e(  6 -  6) =     -9.55900  eV     1   --> A              
     e(  7 -  7) =     -2.62831  eV     1   --> E*             
     e(  8 -  8) =     -2.27428  eV     1   --> E*             
     e(  9 -  9) =      1.83354  eV     1   --> A              
     e( 10 - 10) =      2.67421  eV     1   --> A              
     e( 11 - 11) =      8.92778  eV     1   --> E              
     e( 12 - 12) =     10.26895  eV     1   --> A              
     e( 13 - 13) =     10.51110  eV     1   --> E              
     e( 14 - 14) =     11.70907  eV     1   --> E              
     e( 15 - 15) =     11.74158  eV     1   --> A              
     e( 16 - 16) =     12.35175  eV     1   --> E*             
     e( 17 - 17) =     12.82000  eV     1   --> E*             
     e( 18 - 18) =     13.84618  eV     1   --> A              
     e( 19 - 19) =     13.98730  eV     1   --> E*             
     e( 20 - 20) =     14.14343  eV     1   --> E              

 **************************************************************************

 **************************************************************************

                    xk=(  -0.30303,   0.57735,   0.00000  )

     point group C_1 (1)    
     there are  1 classes
     the character table:

       E    
A      1.00

     the symmetry operations in each class and the name of the first element:

     E        1
                                                                 

     Band symmetry, C_1 (1)     point group:

     e(  1 -  1) =    -16.46249  eV     1   --> A              
     e(  2 -  2) =    -16.42266  eV     1   --> A              
     e(  3 -  3) =    -10.41351  eV     1   --> A              
     e(  4 -  4) =    -10.36135  eV     1   --> A              
     e(  5 -  5) =     -9.54064  eV     1   --> A              
     e(  6 -  6) =     -9.46295  eV     1   --> A              
     e(  7 -  7) =     -2.66145  eV     1   --> A              
     e(  8 -  8) =     -2.30301  eV     1   --> A              
     e(  9 -  9) =      1.85244  eV     1   --> A              
     e( 10 - 10) =      2.69346  eV     1   --> A              
     e( 11 - 11) =      8.97503  eV     1   --> A              
     e( 12 - 12) =     10.18904  eV     1   --> A              
     e( 13 - 13) =     10.50501  eV     1   --> A              
     e( 14 - 14) =     11.52529  eV     1   --> A              
     e( 15 - 15) =     11.63098  eV     1   --> A              
     e( 16 - 16) =     12.45283  eV     1   --> A              
     e( 17 - 17) =     12.79893  eV     1   --> A              
     e( 18 - 18) =     13.55262  eV     1   --> A              
     e( 19 - 19) =     13.69122  eV     1   --> A              
     e( 20 - 20) =     13.83069  eV     1   --> A              

 **************************************************************************

 **************************************************************************

                    xk=(  -0.27272,   0.57735,   0.00000  )

     Band symmetry, C_1 (1)     point group:

     e(  1 -  1) =    -16.51141  eV     1   --> A              
     e(  2 -  2) =    -16.47063  eV     1   --> A              
     e(  3 -  3) =    -10.54435  eV     1   --> A              
     e(  4 -  4) =    -10.48403  eV     1   --> A              
     e(  5 -  5) =     -9.28294  eV     1   --> A              
     e(  6 -  6) =     -9.21479  eV     1   --> A              
     e(  7 -  7) =     -2.74840  eV     1   --> A              
     e(  8 -  8) =     -2.37884  eV     1   --> A              
     e(  9 -  9) =      1.89040  eV     1   --> A              
     e( 10 - 10) =      2.73611  eV     1   --> A              
     e( 11 - 11) =      9.11671  eV     1   --> A              
     e( 12 - 12) =      9.99728  eV     1   --> A              
     e( 13 - 13) =     10.50137  eV     1   --> A              
     e( 14 - 14) =     11.19956  eV     1   --> A              
     e( 15 - 15) =     11.35354  eV     1   --> A              
     e( 16 - 16) =     12.40610  eV     1   --> A              
     e( 17 - 17) =     12.66069  eV     1   --> A              
     e( 18 - 18) =     13.24299  eV     1   --> A              
     e( 19 - 19) =     13.34665  eV     1   --> A              
     e( 20 - 20) =     13.46560  eV     1   --> A              

 **************************************************************************

 **************************************************************************

                    xk=(  -0.24242,   0.57735,   0.00000  )

     Band symmetry, C_1 (1)     point group:

     e(  1 -  1) =    -16.58024  eV     1   --> A              
     e(  2 -  2) =    -16.53830  eV     1   --> A              
     e(  3 -  3) =    -10.69461  eV     1   --> A              
     e(  4 -  4) =    -10.62790  eV     1   --> A              
     e(  5 -  5) =     -8.94073  eV     1   --> A              
     e(  6 -  6) =     -8.88095  eV     1   --> A              
     e(  7 -  7) =     -2.86780  eV     1   --> A              
     e(  8 -  8) =     -2.48374  eV     1   --> A              
     e(  9 -  9) =      1.92560  eV     1   --> A              
     e( 10 - 10) =      2.78342  eV     1   --> A              
     e( 11 - 11) =      9.33388  eV     1   --> A              
     e( 12 - 12) =      9.73632  eV     1   --> A              
     e( 13 - 13) =     10.48300  eV     1   --> A              
     e( 14 - 14) =     10.87202  eV     1   --> A              
     e( 15 - 15) =     10.99247  eV     1   --> A              
     e( 16 - 16) =     12.12842  eV     1   --> A              
     e( 17 - 17) =     12.30451  eV     1   --> A              
     e( 18 - 18) =     12.90595  eV     1   --> A              
     e( 19 - 19) =     13.03775  eV     1   --> A              
     e( 20 - 20) =     13.24708  eV     1   --> A              

 **************************************************************************

 **************************************************************************

                    xk=(  -0.21212,   0.57735,   0.00000  )

     Band symmetry, C_1 (1)     point group:

     e(  1 -  1) =    -16.65930  eV     1   --> A              
     e(  2 -  2) =    -16.61650  eV     1   --> A              
     e(  3 -  3) =    -10.84023  eV     1   --> A              
     e(  4 -  4) =    -10.76860  eV     1   --> A              
     e(  5 -  5) =     -8.55496  eV     1   --> A              
     e(  6 -  6) =     -8.50342  eV     1   --> A              
     e(  7 -  7) =     -3.00199  eV     1   --> A              
     e(  8 -  8) =     -2.60262  eV     1   --> A              
     e(  9 -  9) =      1.94600  eV     1   --> A              
     e( 10 - 10) =      2.82305  eV     1   --> A              
     e( 11 - 11) =      9.32908  eV     1   --> A              
     e( 12 - 12) =      9.68836  eV     1   --> A              
     e( 13 - 13) =     10.31903  eV     1   --> A              
     e( 14 - 14) =     10.57903  eV     1   --> A              
     e( 15 - 15) =     10.68045  eV     1   --> A              
     e( 16 - 16) =     11.76981  eV     1   --> A              
     e( 17 - 17) =     11.85997  eV     1   --> A              
     e( 18 - 18) =     12.59090  eV     1   --> A              
     e( 19 - 19) =     12.72726  eV     1   --> A              
     e( 20 - 20) =     13.12353  eV     1   --> A              

 **************************************************************************

 **************************************************************************

                    xk=(  -0.18182,   0.57735,   0.00000  )

     Band symmetry, C_1 (1)     point group:

     e(  1 -  1) =    -16.74098  eV     1   --> A              
     e(  2 -  2) =    -16.69702  eV     1   --> A              
     e(  3 -  3) =    -10.97206  eV     1   --> A              
     e(  4 -  4) =    -10.89671  eV     1   --> A              
     e(  5 -  5) =     -8.15279  eV     1   --> A              
     e(  6 -  6) =     -8.10817  eV     1   --> A              
     e(  7 -  7) =     -3.13633  eV     1   --> A              
     e(  8 -  8) =     -2.72338  eV     1   --> A              
     e(  9 -  9) =      1.94877  eV     1   --> A              
     e( 10 - 10) =      2.84930  eV     1   --> A              
     e( 11 - 11) =      8.93990  eV     1   --> A              
     e( 12 - 12) =      9.85657  eV     1   --> A              
     e( 13 - 13) =      9.97491  eV     1   --> A              
     e( 14 - 14) =     10.34418  eV     1   --> A              
     e( 15 - 15) =     10.57411  eV     1   --> A              
     e( 16 - 16) =     11.42301  eV     1   --> A              
     e( 17 - 17) =     11.47009  eV     1   --> A              
     e( 18 - 18) =     12.31510  eV     1   --> A              
     e( 19 - 19) =     12.44493  eV     1   --> A              
     e( 20 - 20) =     13.01180  eV     1   --> A              

 **************************************************************************

 **************************************************************************

                    xk=(  -0.15151,   0.57735,   0.00000  )

     Band symmetry, C_1 (1)     point group:

     e(  1 -  1) =    -16.81902  eV     1   --> A              
     e(  2 -  2) =    -16.77407  eV     1   --> A              
     e(  3 -  3) =    -11.08654  eV     1   --> A              
     e(  4 -  4) =    -11.00742  eV     1   --> A              
     e(  5 -  5) =     -7.75732  eV     1   --> A              
     e(  6 -  6) =     -7.71905  eV     1   --> A              
     e(  7 -  7) =     -3.26175  eV     1   --> A              
     e(  8 -  8) =     -2.83730  eV     1   --> A              
     e(  9 -  9) =      1.93709  eV     1   --> A              
     e( 10 - 10) =      2.86209  eV     1   --> A              
     e( 11 - 11) =      8.49685  eV     1   --> A              
     e( 12 - 12) =      9.30355  eV     1   --> A              
     e( 13 - 13) =     10.06322  eV     1   --> A              
     e( 14 - 14) =     10.33661  eV     1   --> A              
     e( 15 - 15) =     10.50722  eV     1   --> A              
     e( 16 - 16) =     11.14789  eV     1   --> A              
     e( 17 - 17) =     11.16765  eV     1   --> A              
     e( 18 - 18) =     12.08212  eV     1   --> A              
     e( 19 - 19) =     12.20636  eV     1   --> A              
     e( 20 - 20) =     12.89687  eV     1   --> A              

 **************************************************************************

 **************************************************************************

                    xk=(  -0.12121,   0.57735,   0.00000  )

     Band symmetry, C_1 (1)     point group:

     e(  1 -  1) =    -16.88851  eV     1   --> A              
     e(  2 -  2) =    -16.84281  eV     1   --> A              
     e(  3 -  3) =    -11.18127  eV     1   --> A              
     e(  4 -  4) =    -11.09968  eV     1   --> A              
     e(  5 -  5) =     -7.38940  eV     1   --> A              
     e(  6 -  6) =     -7.35740  eV     1   --> A              
     e(  7 -  7) =     -3.37145  eV     1   --> A              
     e(  8 -  8) =     -2.93770  eV     1   --> A              
     e(  9 -  9) =      1.91666  eV     1   --> A              
     e( 10 - 10) =      2.86422  eV     1   --> A              
     e( 11 - 11) =      8.05423  eV     1   --> A              
     e( 12 - 12) =      8.76683  eV     1   --> A              
     e( 13 - 13) =      9.92428  eV     1   --> A              
     e( 14 - 14) =     10.43609  eV     1   --> A              
     e( 15 - 15) =     10.46731  eV     1   --> A              
     e( 16 - 16) =     10.94260  eV     1   --> A              
     e( 17 - 17) =     11.01843  eV     1   --> A              
     e( 18 - 18) =     11.89266  eV     1   --> A              
     e( 19 - 19) =     12.01592  eV     1   --> A              
     e( 20 - 20) =     12.78702  eV     1   --> A              

 **************************************************************************

 **************************************************************************

                    xk=(  -0.09091,   0.57735,   0.00000  )

     Band symmetry, C_1 (1)     point group:

     e(  1 -  1) =    -16.94566  eV     1   --> A              
     e(  2 -  2) =    -16.89940  eV     1   --> A              
     e(  3 -  3) =    -11.25514  eV     1   --> A              
     e(  4 -  4) =    -11.17214  eV     1   --> A              
     e(  5 -  5) =     -7.07107  eV     1   --> A              
     e(  6 -  6) =     -7.04463  eV     1   --> A              
     e(  7 -  7) =     -3.46114  eV     1   --> A              
     e(  8 -  8) =     -3.01983  eV     1   --> A              
     e(  9 -  9) =      1.89376  eV     1   --> A              
     e( 10 - 10) =      2.86025  eV     1   --> A              
     e( 11 - 11) =      7.65608  eV     1   --> A              
     e( 12 - 12) =      8.29998  eV     1   --> A              
     e( 13 - 13) =      9.80379  eV     1   --> A              
     e( 14 - 14) =     10.36594  eV     1   --> A              
     e( 15 - 15) =     10.43129  eV     1   --> A              
     e( 16 - 16) =     10.78088  eV     1   --> A              
     e( 17 - 17) =     11.06217  eV     1   --> A              
     e( 18 - 18) =     11.74653  eV     1   --> A              
     e( 19 - 19) =     11.87491  eV     1   --> A              
     e( 20 - 20) =     12.69237  eV     1   --> A              

 **************************************************************************

 **************************************************************************

                    xk=(  -0.06061,   0.57735,   0.00000  )

     Band symmetry, C_1 (1)     point group:

     e(  1 -  1) =    -16.98828  eV     1   --> A              
     e(  2 -  2) =    -16.94154  eV     1   --> A              
     e(  3 -  3) =    -11.30844  eV     1   --> A              
     e(  4 -  4) =    -11.22426  eV     1   --> A              
     e(  5 -  5) =     -6.82388  eV     1   --> A              
     e(  6 -  6) =     -6.80193  eV     1   --> A              
     e(  7 -  7) =     -3.52666  eV     1   --> A              
     e(  8 -  8) =     -3.08084  eV     1   --> A              
     e(  9 -  9) =      1.87335  eV     1   --> A              
     e( 10 - 10) =      2.85393  eV     1   --> A              
     e( 11 - 11) =      7.34051  eV     1   --> A              
     e( 12 - 12) =      7.93940  eV     1   --> A              
     e( 13 - 13) =      9.71675  eV     1   --> A              
     e( 14 - 14) =     10.30690  eV     1   --> A              
     e( 15 - 15) =     10.34269  eV     1   --> A              
     e( 16 - 16) =     10.67212  eV     1   --> A              
     e( 17 - 17) =     11.13864  eV     1   --> A              
     e( 18 - 18) =     11.64303  eV     1   --> A              
     e( 19 - 19) =     11.78240  eV     1   --> A              
     e( 20 - 20) =     12.62021  eV     1   --> A              

 **************************************************************************

 **************************************************************************

                    xk=(  -0.03030,   0.57735,   0.00000  )

     Band symmetry, C_1 (1)     point group:

     e(  1 -  1) =    -17.01432  eV     1   --> A              
     e(  2 -  2) =    -16.96753  eV     1   --> A              
     e(  3 -  3) =    -11.34045  eV     1   --> A              
     e(  4 -  4) =    -11.25571  eV     1   --> A              
     e(  5 -  5) =     -6.66628  eV     1   --> A              
     e(  6 -  6) =     -6.64768  eV     1   --> A              
     e(  7 -  7) =     -3.56697  eV     1   --> A              
     e(  8 -  8) =     -3.11770  eV     1   --> A              
     e(  9 -  9) =      1.85944  eV     1   --> A              
     e( 10 - 10) =      2.84876  eV     1   --> A              
     e( 11 - 11) =      7.13814  eV     1   --> A              
     e( 12 - 12) =      7.71171  eV     1   --> A              
     e( 13 - 13) =      9.66455  eV     1   --> A              
     e( 14 - 14) =     10.26777  eV     1   --> A              
     e( 15 - 15) =     10.27849  eV     1   --> A              
     e( 16 - 16) =     10.60950  eV     1   --> A              
     e( 17 - 17) =     11.18174  eV     1   --> A              
     e( 18 - 18) =     11.58135  eV     1   --> A              
     e( 19 - 19) =     11.73295  eV     1   --> A              
     e( 20 - 20) =     12.57519  eV     1   --> A              

 **************************************************************************

 **************************************************************************

                    xk=(   0.00000,   0.57735,   0.00000  )

     point group C_s (m)    
     there are  2 classes
     the character table:

       E     s    
A'     1.00  1.00
A''    1.00 -1.00

     the symmetry operations in each class and the name of the first element:

     E        1
                                                                 
     s        2
                                                                 

     Band symmetry, C_s (m)     point group:

     e(  1 -  1) =    -17.02331  eV     1   --> A'             
     e(  2 -  2) =    -16.97650  eV     1   --> A'             
     e(  3 -  3) =    -11.35109  eV     1   --> A'             
     e(  4 -  4) =    -11.26636  eV     1   --> A'             
     e(  5 -  5) =     -6.61265  eV     1   --> A''            
     e(  6 -  6) =     -6.59552  eV     1   --> A''            
     e(  7 -  7) =     -3.58084  eV     1   --> A'             
     e(  8 -  8) =     -3.13077  eV     1   --> A'             
     e(  9 -  9) =      1.85432  eV     1   --> A'             
     e( 10 - 10) =      2.84649  eV     1   --> A'             
     e( 11 - 11) =      7.06842  eV     1   --> A'             
     e( 12 - 12) =      7.63382  eV     1   --> A'             
     e( 13 - 13) =      9.64714  eV     1   --> A'             
     e( 14 - 14) =     10.25399  eV     1   --> A'             
     e( 15 - 15) =     10.25606  eV     1   --> A'             
     e( 16 - 16) =     10.58896  eV     1   --> A'             
     e( 17 - 17) =     11.19382  eV     1   --> A'             
     e( 18 - 18) =     11.56084  eV     1   --> A'             
     e( 19 - 19) =     11.71788  eV     1   --> A'             
     e( 20 - 20) =     12.55984  eV     1   --> A'             

 **************************************************************************

 **************************************************************************

                    xk=(   0.00000,   0.54528,   0.00000  )

     Band symmetry, C_s (m)     point group:

     e(  1 -  1) =    -17.06820  eV     1   --> A'             
     e(  2 -  2) =    -17.02035  eV     1   --> A'             
     e(  3 -  3) =    -11.28177  eV     1   --> A'             
     e(  4 -  4) =    -11.19788  eV     1   --> A'             
     e(  5 -  5) =     -6.59665  eV     1   --> A''            
     e(  6 -  6) =     -6.57942  eV     1   --> A''            
     e(  7 -  7) =     -3.65772  eV     1   --> A'             
     e(  8 -  8) =     -3.19591  eV     1   --> A'             
     e(  9 -  9) =      1.95257  eV     1   --> A'             
     e( 10 - 10) =      2.93179  eV     1   --> A'             
     e( 11 - 11) =      7.02515  eV     1   --> A'             
     e( 12 - 12) =      7.62393  eV     1   --> A'             
     e( 13 - 13) =      9.24392  eV     1   --> A'             
     e( 14 - 14) =      9.66045  eV     1   --> A'             
     e( 15 - 15) =     10.47815  eV     1   --> A'             
     e( 16 - 16) =     10.89208  eV     1   --> A'             
     e( 17 - 17) =     11.21440  eV     1   --> A'             
     e( 18 - 18) =     11.24460  eV     1   --> A'             
     e( 19 - 19) =     11.83287  eV     1   --> A'             
     e( 20 - 20) =     12.29129  eV     1   --> A'             

 **************************************************************************

 **************************************************************************

                    xk=(   0.00000,   0.51320,   0.00000  )

     Band symmetry, C_s (m)     point group:

     e(  1 -  1) =    -17.19604  eV     1   --> A'             
     e(  2 -  2) =    -17.14543  eV     1   --> A'             
     e(  3 -  3) =    -11.08004  eV     1   --> A'             
     e(  4 -  4) =    -10.99844  eV     1   --> A'             
     e(  5 -  5) =     -6.54932  eV     1   --> A''            
     e(  6 -  6) =     -6.53156  eV     1   --> A''            
     e(  7 -  7) =     -3.87138  eV     1   --> A'             
     e(  8 -  8) =     -3.38009  eV     1   --> A'             
     e(  9 -  9) =      2.22913  eV     1   --> A'             
     e( 10 - 10) =      3.17366  eV     1   --> A'             
     e( 11 - 11) =      6.88190  eV     1   --> A'             
     e( 12 - 12) =      7.58305  eV     1   --> A'             
     e( 13 - 13) =      8.71150  eV     1   --> A'             
     e( 14 - 14) =      8.99538  eV     1   --> A'             
     e( 15 - 15) =      9.91525  eV     1   --> A'             
     e( 16 - 16) =     10.59984  eV     1   --> A'             
     e( 17 - 17) =     11.04118  eV     1   --> A'             
     e( 18 - 18) =     11.65383  eV     1   --> A'             
     e( 19 - 19) =     12.04149  eV     1   --> A'             
     e( 20 - 20) =     12.21902  eV     1   --> A'             

 **************************************************************************

 **************************************************************************

                    xk=(   0.00000,   0.48113,   0.00000  )

     Band symmetry, C_s (m)     point group:

     e(  1 -  1) =    -17.38939  eV     1   --> A'             
     e(  2 -  2) =    -17.33498  eV     1   --> A'             
     e(  3 -  3) =    -10.76403  eV     1   --> A'             
     e(  4 -  4) =    -10.68563  eV     1   --> A'             
     e(  5 -  5) =     -6.47078  eV     1   --> A''            
     e(  6 -  6) =     -6.45294  eV     1   --> A''            
     e(  7 -  7) =     -4.18368  eV     1   --> A'             
     e(  8 -  8) =     -3.65373  eV     1   --> A'             
     e(  9 -  9) =      2.64124  eV     1   --> A'             
     e( 10 - 10) =      3.53837  eV     1   --> A'             
     e( 11 - 11) =      6.61154  eV     1   --> A'             
     e( 12 - 12) =      7.45965  eV     1   --> A'             
     e( 13 - 13) =      8.27641  eV     1   --> A'             
     e( 14 - 14) =      8.45449  eV     1   --> A'             
     e( 15 - 15) =      9.23170  eV     1   --> A'             
     e( 16 - 16) =     10.14480  eV     1   --> A'             
     e( 17 - 17) =     10.33191  eV     1   --> A'             
     e( 18 - 18) =     11.76866  eV     1   --> A'             
     e( 19 - 19) =     12.37367  eV     1   --> A'             
     e( 20 - 20) =     12.76036  eV     1   --> A'             

 **************************************************************************

 **************************************************************************

                    xk=(   0.00000,   0.44905,   0.00000  )

     Band symmetry, C_s (m)     point group:

     e(  1 -  1) =    -17.62732  eV     1   --> A'             
     e(  2 -  2) =    -17.56898  eV     1   --> A'             
     e(  3 -  3) =    -10.35545  eV     1   --> A'             
     e(  4 -  4) =    -10.28179  eV     1   --> A'             
     e(  5 -  5) =     -6.36162  eV     1   --> A''            
     e(  6 -  6) =     -6.34442  eV     1   --> A''            
     e(  7 -  7) =     -4.55526  eV     1   --> A'             
     e(  8 -  8) =     -3.98561  eV     1   --> A'             
     e(  9 -  9) =      3.14148  eV     1   --> A'             
     e( 10 - 10) =      3.98164  eV     1   --> A'             
     e( 11 - 11) =      6.21841  eV     1   --> A'             
     e( 12 - 12) =      7.16512  eV     1   --> A'             
     e( 13 - 13) =      7.92338  eV     1   --> A'             
     e( 14 - 14) =      8.13778  eV     1   --> A'             
     e( 15 - 15) =      8.62157  eV     1   --> A'             
     e( 16 - 16) =      9.67345  eV     1   --> A'             
     e( 17 - 17) =      9.69295  eV     1   --> A'             
     e( 18 - 18) =     11.27493  eV     1   --> A'             
     e( 19 - 19) =     12.36358  eV     1   --> A'             
     e( 20 - 20) =     13.00576  eV     1   --> A'             

 **************************************************************************

 **************************************************************************

                    xk=(   0.00000,   0.41698,   0.00000  )

     Band symmetry, C_s (m)     point group:

     e(  1 -  1) =    -17.89128  eV     1   --> A'             
     e(  2 -  2) =    -17.82874  eV     1   --> A'             
     e(  3 -  3) =     -9.87670  eV     1   --> A'             
     e(  4 -  4) =     -9.80743  eV     1   --> A'             
     e(  5 -  5) =     -6.22436  eV     1   --> A''            
     e(  6 -  6) =     -6.20738  eV     1   --> A''            
     e(  7 -  7) =     -4.95432  eV     1   --> A'             
     e(  8 -  8) =     -4.34847  eV     1   --> A'             
     e(  9 -  9) =      3.68605  eV     1   --> A'             
     e( 10 - 10) =      4.44571  eV     1   --> A'             
     e( 11 - 11) =      5.75189  eV     1   --> A'             
     e( 12 - 12) =      6.75692  eV     1   --> A'             
     e( 13 - 13) =      7.53416  eV     1   --> A'             
     e( 14 - 14) =      7.99973  eV     1   --> A'             
     e( 15 - 15) =      8.15843  eV     1   --> A'             
     e( 16 - 16) =      9.08802  eV     1   --> A'             
     e( 17 - 17) =      9.30147  eV     1   --> A'             
     e( 18 - 18) =     10.78434  eV     1   --> A'             
     e( 19 - 19) =     11.77479  eV     1   --> A'             
     e( 20 - 20) =     13.30610  eV     1   --> A'             

 **************************************************************************

 **************************************************************************

                    xk=(   0.00000,   0.38490,   0.00000  )

     Band symmetry, C_s (m)     point group:

     e(  1 -  1) =    -18.16576  eV     1   --> A'             
     e(  2 -  2) =    -18.09936  eV     1   --> A'             
     e(  3 -  3) =     -9.34461  eV     1   --> A'             
     e(  4 -  4) =     -9.27961  eV     1   --> A'             
     e(  5 -  5) =     -6.05996  eV     1   --> A''            
     e(  6 -  6) =     -6.04332  eV     1   --> A''            
     e(  7 -  7) =     -5.35917  eV     1   --> A'             
     e(  8 -  8) =     -4.72161  eV     1   --> A'             
     e(  9 -  9) =      4.23354  eV     1   --> A'             
     e( 10 - 10) =      4.82683  eV     1   --> A'             
     e( 11 - 11) =      5.26309  eV     1   --> A'             
     e( 12 - 12) =      6.42581  eV     1   --> A'             
     e( 13 - 13) =      7.05371  eV     1   --> A'             
     e( 14 - 14) =      7.83888  eV     1   --> A'             
     e( 15 - 15) =      7.87725  eV     1   --> A'             
     e( 16 - 16) =      8.62900  eV     1   --> A'             
     e( 17 - 17) =      9.00689  eV     1   --> A'             
     e( 18 - 18) =     10.33046  eV     1   --> A'             
     e( 19 - 19) =     11.22135  eV     1   --> A'             
     e( 20 - 20) =     13.15428  eV     1   --> A'             

 **************************************************************************

 **************************************************************************

                    xk=(   0.00000,   0.35283,   0.00000  )

     Band symmetry, C_s (m)     point group:

     e(  1 -  1) =    -18.43963  eV     1   --> A'             
     e(  2 -  2) =    -18.36950  eV     1   --> A'             
     e(  3 -  3) =     -8.77470  eV     1   --> A'             
     e(  4 -  4) =     -8.71379  eV     1   --> A'             
     e(  5 -  5) =     -5.87140  eV     1   --> A''            
     e(  6 -  6) =     -5.85493  eV     1   --> A''            
     e(  7 -  7) =     -5.75535  eV     1   --> A'             
     e(  8 -  8) =     -5.09068  eV     1   --> A'             
     e(  9 -  9) =      4.73030  eV     1   --> A'             
     e( 10 - 10) =      4.78722  eV     1   --> A'             
     e( 11 - 11) =      4.91903  eV     1   --> A'             
     e( 12 - 12) =      6.38882  eV     1   --> A'             
     e( 13 - 13) =      6.55606  eV     1   --> A'             
     e( 14 - 14) =      7.57384  eV     1   --> A'             
     e( 15 - 15) =      7.64051  eV     1   --> A'             
     e( 16 - 16) =      8.39166  eV     1   --> A'             
     e( 17 - 17) =      8.81783  eV     1   --> A'             
     e( 18 - 18) =      9.93535  eV     1   --> A'             
     e( 19 - 19) =     10.71477  eV     1   --> A'             
     e( 20 - 20) =     12.84984  eV     1   --> A'             

 **************************************************************************

 **************************************************************************

                    xk=(   0.00000,   0.32075,   0.00000  )

     Band symmetry, C_s (m)     point group:

     e(  1 -  1) =    -18.70470  eV     1   --> A'             
     e(  2 -  2) =    -18.63135  eV     1   --> A'             
     e(  3 -  3) =     -8.18017  eV     1   --> A'             
     e(  4 -  4) =     -8.12378  eV     1   --> A'             
     e(  5 -  5) =     -6.13338  eV     1   --> A'             
     e(  6 -  6) =     -5.66141  eV     1   --> A''            
     e(  7 -  7) =     -5.64547  eV     1   --> A''            
     e(  8 -  8) =     -5.44526  eV     1   --> A'             
     e(  9 -  9) =      4.32525  eV     1   --> A'             
     e( 10 - 10) =      4.69201  eV     1   --> A'             
     e( 11 - 11) =      5.12038  eV     1   --> A'             
     e( 12 - 12) =      6.09746  eV     1   --> A'             
     e( 13 - 13) =      6.58114  eV     1   --> A'             
     e( 14 - 14) =      7.35349  eV     1   --> A'             
     e( 15 - 15) =      7.40651  eV     1   --> A'             
     e( 16 - 16) =      8.33144  eV     1   --> A'             
     e( 17 - 17) =      8.70811  eV     1   --> A'             
     e( 18 - 18) =      9.62273  eV     1   --> A'             
     e( 19 - 19) =     10.26351  eV     1   --> A'             
     e( 20 - 20) =     12.52773  eV     1   --> A'             

 **************************************************************************

 **************************************************************************

                    xk=(   0.00000,   0.28868,   0.00000  )

     Band symmetry, C_s (m)     point group:

     e(  1 -  1) =    -18.95517  eV     1   --> A'             
     e(  2 -  2) =    -18.87879  eV     1   --> A'             
     e(  3 -  3) =     -7.57375  eV     1   --> A'             
     e(  4 -  4) =     -7.52127  eV     1   --> A'             
     e(  5 -  5) =     -6.48553  eV     1   --> A'             
     e(  6 -  6) =     -5.77859  eV     1   --> A'             
     e(  7 -  7) =     -5.43493  eV     1   --> A''            
     e(  8 -  8) =     -5.41970  eV     1   --> A''            
     e(  9 -  9) =      3.90118  eV     1   --> A'             
     e( 10 - 10) =      4.35182  eV     1   --> A'             
     e( 11 - 11) =      5.26438  eV     1   --> A'             
     e( 12 - 12) =      5.74400  eV     1   --> A'             
     e( 13 - 13) =      6.50808  eV     1   --> A'             
     e( 14 - 14) =      7.21609  eV     1   --> A'             
     e( 15 - 15) =      7.55044  eV     1   --> A'             
     e( 16 - 16) =      8.33274  eV     1   --> A'             
     e( 17 - 17) =      8.64683  eV     1   --> A'             
     e( 18 - 18) =      9.41638  eV     1   --> A'             
     e( 19 - 19) =      9.88138  eV     1   --> A'             
     e( 20 - 20) =     12.23309  eV     1   --> A'             

 **************************************************************************

 **************************************************************************

                    xk=(   0.00000,   0.25660,   0.00000  )

     Band symmetry, C_s (m)     point group:

     e(  1 -  1) =    -19.18647  eV     1   --> A'             
     e(  2 -  2) =    -19.10743  eV     1   --> A'             
     e(  3 -  3) =     -6.98144  eV     1   --> A'             
     e(  4 -  4) =     -6.91807  eV     1   --> A'             
     e(  5 -  5) =     -6.79208  eV     1   --> A'             
     e(  6 -  6) =     -6.08384  eV     1   --> A'             
     e(  7 -  7) =     -5.19556  eV     1   --> A''            
     e(  8 -  8) =     -5.18107  eV     1   --> A''            
     e(  9 -  9) =      3.51399  eV     1   --> A'             
     e( 10 - 10) =      4.00236  eV     1   --> A'             
     e( 11 - 11) =      5.06755  eV     1   --> A'             
     e( 12 - 12) =      5.57297  eV     1   --> A'             
     e( 13 - 13) =      6.20772  eV     1   --> A'             
     e( 14 - 14) =      7.15693  eV     1   --> A'             
     e( 15 - 15) =      7.92611  eV     1   --> A'             
     e( 16 - 16) =      8.36242  eV     1   --> A'             
     e( 17 - 17) =      8.63334  eV     1   --> A'             
     e( 18 - 18) =      9.32158  eV     1   --> A'             
     e( 19 - 19) =      9.59359  eV     1   --> A'             
     e( 20 - 20) =     11.99054  eV     1   --> A'             

 **************************************************************************

 **************************************************************************

                    xk=(   0.00000,   0.22453,   0.00000  )

     Band symmetry, C_s (m)     point group:

     e(  1 -  1) =    -19.39581  eV     1   --> A'             
     e(  2 -  2) =    -19.31452  eV     1   --> A'             
     e(  3 -  3) =     -7.10858  eV     1   --> A'             
     e(  4 -  4) =     -6.39839  eV     1   --> A'             
     e(  5 -  5) =     -6.35851  eV     1   --> A'             
     e(  6 -  6) =     -6.28767  eV     1   --> A'             
     e(  7 -  7) =     -4.95074  eV     1   --> A''            
     e(  8 -  8) =     -4.93698  eV     1   --> A''            
     e(  9 -  9) =      3.16615  eV     1   --> A'             
     e( 10 - 10) =      3.67581  eV     1   --> A'             
     e( 11 - 11) =      4.75406  eV     1   --> A'             
     e( 12 - 12) =      5.41997  eV     1   --> A'             
     e( 13 - 13) =      5.88725  eV     1   --> A'             
     e( 14 - 14) =      7.10058  eV     1   --> A'             
     e( 15 - 15) =      8.11481  eV     1   --> A'             
     e( 16 - 16) =      8.53784  eV     1   --> A'             
     e( 17 - 17) =      8.68198  eV     1   --> A'             
     e( 18 - 18) =      9.30893  eV     1   --> A'             
     e( 19 - 19) =      9.44422  eV     1   --> A'             
     e( 20 - 20) =     11.73059  eV     1   --> A'             

 **************************************************************************

 **************************************************************************

                    xk=(   0.00000,   0.19245,   0.00000  )

     Band symmetry, C_s (m)     point group:

     e(  1 -  1) =    -19.58061  eV     1   --> A'             
     e(  2 -  2) =    -19.49735  eV     1   --> A'             
     e(  3 -  3) =     -7.36235  eV     1   --> A'             
     e(  4 -  4) =     -6.61117  eV     1   --> A'             
     e(  5 -  5) =     -5.78812  eV     1   --> A'             
     e(  6 -  6) =     -5.75119  eV     1   --> A'             
     e(  7 -  7) =     -4.70672  eV     1   --> A''            
     e(  8 -  8) =     -4.69404  eV     1   --> A''            
     e(  9 -  9) =      2.85947  eV     1   --> A'             
     e( 10 - 10) =      3.38397  eV     1   --> A'             
     e( 11 - 11) =      4.45555  eV     1   --> A'             
     e( 12 - 12) =      5.23604  eV     1   --> A'             
     e( 13 - 13) =      5.59334  eV     1   --> A'             
     e( 14 - 14) =      7.00326  eV     1   --> A'             
     e( 15 - 15) =      8.04153  eV     1   --> A'             
     e( 16 - 16) =      8.77692  eV     1   --> A'             
     e( 17 - 17) =      8.80485  eV     1   --> A'             
     e( 18 - 18) =      9.33331  eV     1   --> A'             
     e( 19 - 19) =      9.49039  eV     1   --> A'             
     e( 20 - 20) =     11.32642  eV     1   --> A'             

 **************************************************************************

 **************************************************************************

                    xk=(   0.00000,   0.16038,   0.00000  )

     Band symmetry, C_s (m)     point group:

     e(  1 -  1) =    -19.73945  eV     1   --> A'             
     e(  2 -  2) =    -19.65445  eV     1   --> A'             
     e(  3 -  3) =     -7.58067  eV     1   --> A'             
     e(  4 -  4) =     -6.81934  eV     1   --> A'             
     e(  5 -  5) =     -5.25607  eV     1   --> A'             
     e(  6 -  6) =     -5.22513  eV     1   --> A'             
     e(  7 -  7) =     -4.47393  eV     1   --> A''            
     e(  8 -  8) =     -4.46199  eV     1   --> A''            
     e(  9 -  9) =      2.59504  eV     1   --> A'             
     e( 10 - 10) =      3.13196  eV     1   --> A'             
     e( 11 - 11) =      4.19512  eV     1   --> A'             
     e( 12 - 12) =      5.04901  eV     1   --> A'             
     e( 13 - 13) =      5.33787  eV     1   --> A'             
     e( 14 - 14) =      6.87856  eV     1   --> A'             
     e( 15 - 15) =      7.89137  eV     1   --> A'             
     e( 16 - 16) =      8.88326  eV     1   --> A'             
     e( 17 - 17) =      8.96236  eV     1   --> A'             
     e( 18 - 18) =      9.35451  eV     1   --> A'             
     e( 19 - 19) =      9.71330  eV     1   --> A'             
     e( 20 - 20) =     10.76170  eV     1   --> A''            

 **************************************************************************

 **************************************************************************

                    xk=(   0.00000,   0.12830,   0.00000  )

     Band symmetry, C_s (m)     point group:

     e(  1 -  1) =    -19.87095  eV     1   --> A'             
     e(  2 -  2) =    -19.78452  eV     1   --> A'             
     e(  3 -  3) =     -7.76111  eV     1   --> A'             
     e(  4 -  4) =     -6.99205  eV     1   --> A'             
     e(  5 -  5) =     -4.78218  eV     1   --> A'             
     e(  6 -  6) =     -4.75632  eV     1   --> A'             
     e(  7 -  7) =     -4.26240  eV     1   --> A''            
     e(  8 -  8) =     -4.25074  eV     1   --> A''            
     e(  9 -  9) =      2.37423  eV     1   --> A'             
     e( 10 - 10) =      2.92265  eV     1   --> A'             
     e( 11 - 11) =      3.97861  eV     1   --> A'             
     e( 12 - 12) =      4.87901  eV     1   --> A'             
     e( 13 - 13) =      5.12539  eV     1   --> A'             
     e( 14 - 14) =      6.75202  eV     1   --> A'             
     e( 15 - 15) =      7.72874  eV     1   --> A'             
     e( 16 - 16) =      8.97996  eV     1   --> A'             
     e( 17 - 17) =      9.05720  eV     1   --> A'             
     e( 18 - 18) =      9.35181  eV     1   --> A'             
     e( 19 - 19) =      9.97220  eV     1   --> A'             
     e( 20 - 20) =     10.22535  eV     1   --> A''            

 **************************************************************************

 **************************************************************************

                    xk=(   0.00000,   0.09623,   0.00000  )

     Band symmetry, C_s (m)     point group:

     e(  1 -  1) =    -19.97407  eV     1   --> A'             
     e(  2 -  2) =    -19.88651  eV     1   --> A'             
     e(  3 -  3) =     -7.90230  eV     1   --> A'             
     e(  4 -  4) =     -7.12742  eV     1   --> A'             
     e(  5 -  5) =     -4.38354  eV     1   --> A'             
     e(  6 -  6) =     -4.36345  eV     1   --> A'             
     e(  7 -  7) =     -4.08174  eV     1   --> A''            
     e(  8 -  8) =     -4.07107  eV     1   --> A''            
     e(  9 -  9) =      2.19858  eV     1   --> A'             
     e( 10 - 10) =      2.75786  eV     1   --> A'             
     e( 11 - 11) =      3.80837  eV     1   --> A'             
     e( 12 - 12) =      4.73777  eV     1   --> A'             
     e( 13 - 13) =      4.95818  eV     1   --> A'             
     e( 14 - 14) =      6.64157  eV     1   --> A'             
     e( 15 - 15) =      7.58307  eV     1   --> A'             
     e( 16 - 16) =      9.06209  eV     1   --> A'             
     e( 17 - 17) =      9.13208  eV     1   --> A'             
     e( 18 - 18) =      9.32764  eV     1   --> A'             
     e( 19 - 19) =      9.78981  eV     1   --> A''            
     e( 20 - 20) =      9.83708  eV     1   --> A''            

 **************************************************************************

 **************************************************************************

                    xk=(   0.00000,   0.06415,   0.00000  )

     Band symmetry, C_s (m)     point group:

     e(  1 -  1) =    -20.04816  eV     1   --> A'             
     e(  2 -  2) =    -19.95979  eV     1   --> A'             
     e(  3 -  3) =     -8.00367  eV     1   --> A'             
     e(  4 -  4) =     -7.22465  eV     1   --> A'             
     e(  5 -  5) =     -4.08064  eV     1   --> A'             
     e(  6 -  6) =     -4.06555  eV     1   --> A'             
     e(  7 -  7) =     -3.94303  eV     1   --> A''            
     e(  8 -  8) =     -3.93260  eV     1   --> A''            
     e(  9 -  9) =      2.07029  eV     1   --> A'             
     e( 10 - 10) =      2.63895  eV     1   --> A'             
     e( 11 - 11) =      3.68575  eV     1   --> A'             
     e( 12 - 12) =      4.63228  eV     1   --> A'             
     e( 13 - 13) =      4.83768  eV     1   --> A'             
     e( 14 - 14) =      6.55729  eV     1   --> A'             
     e( 15 - 15) =      7.46994  eV     1   --> A'             
     e( 16 - 16) =      9.12784  eV     1   --> A'             
     e( 17 - 17) =      9.19307  eV     1   --> A'             
     e( 18 - 18) =      9.29317  eV     1   --> A'             
     e( 19 - 19) =      9.46759  eV     1   --> A''            
     e( 20 - 20) =      9.51490  eV     1   --> A''            

 **************************************************************************

 **************************************************************************

                    xk=(   0.00000,   0.03208,   0.00000  )

     Band symmetry, C_s (m)     point group:

     e(  1 -  1) =    -20.09277  eV     1   --> A'             
     e(  2 -  2) =    -20.00389  eV     1   --> A'             
     e(  3 -  3) =     -8.06454  eV     1   --> A'             
     e(  4 -  4) =     -7.28297  eV     1   --> A'             
     e(  5 -  5) =     -3.89077  eV     1   --> A'             
     e(  6 -  6) =     -3.87908  eV     1   --> A'             
     e(  7 -  7) =     -3.85564  eV     1   --> A''            
     e(  8 -  8) =     -3.84472  eV     1   --> A''            
     e(  9 -  9) =      1.99185  eV     1   --> A'             
     e( 10 - 10) =      2.56709  eV     1   --> A'             
     e( 11 - 11) =      3.61175  eV     1   --> A'             
     e( 12 - 12) =      4.56723  eV     1   --> A'             
     e( 13 - 13) =      4.76493  eV     1   --> A'             
     e( 14 - 14) =      6.50500  eV     1   --> A'             
     e( 15 - 15) =      7.39859  eV     1   --> A'             
     e( 16 - 16) =      9.17653  eV     1   --> A'             
     e( 17 - 17) =      9.23461  eV     1   --> A'             
     e( 18 - 18) =      9.25906  eV     1   --> A'             
     e( 19 - 19) =      9.26941  eV     1   --> A''            
     e( 20 - 20) =      9.31699  eV     1   --> A''            

 **************************************************************************

 **************************************************************************

                    xk=(   0.00000,   0.00000,   0.00000  )

     point group C_3v (3m)  
     there are  3 classes
     the character table:

       E     2C3   3s_v 
A_1    1.00  1.00  1.00
A_2    1.00  1.00 -1.00
E      2.00 -1.00  0.00

     the symmetry operations in each class and the name of the first element:

     E        1
                                                                 
     2C3      2    3
                                                                 
     3s_v     4    5    6
                                                                 

     Band symmetry, C_3v (3m)   point group:

     e(  1 -  1) =    -20.10766  eV     1   --> A_1  L_1       
     e(  2 -  2) =    -20.01848  eV     1   --> A_1  L_1       
     e(  3 -  3) =     -8.08455  eV     1   --> A_1  L_1       
     e(  4 -  4) =     -7.30242  eV     1   --> A_1  L_1       
     e(  5 -  6) =     -3.82580  eV     2   --> E    L_3       
     e(  7 -  8) =     -3.81471  eV     2   --> E    L_3       
     e(  9 -  9) =      1.96542  eV     1   --> A_1  L_1       
     e( 10 - 10) =      2.54307  eV     1   --> A_1  L_1       
     e( 11 - 11) =      3.58701  eV     1   --> A_1  L_1       
     e( 12 - 12) =      4.54539  eV     1   --> A_1  L_1       
     e( 13 - 13) =      4.74061  eV     1   --> A_1  L_1       
     e( 14 - 14) =      6.48746  eV     1   --> A_1  L_1       
     e( 15 - 15) =      7.37428  eV     1   --> A_1  L_1       
     e( 16 - 17) =      9.20238  eV     2   --> E    L_3       
     e( 18 - 18) =      9.23759  eV     1   --> A_1  L_1       
     e( 19 - 20) =      9.25093  eV     2   --> E    L_3       

 **************************************************************************

     BANDS        :     10.30s CPU     10.45s WALL


   This run was terminated on:  17:29:12  12Apr2024            

=------------------------------------------------------------------------------=
   JOB DONE.
=------------------------------------------------------------------------------=
