
     Program PWSCF v.7.2 starts on 12Apr2024 at 17:28:35 

     This program is part of the open-source Quantum ESPRESSO suite
     for quantum simulation of materials; please cite
         "P. Giannozzi et al., J. Phys.:Condens. Matter 21 395502 (2009);
         "P. Giannozzi et al., J. Phys.:Condens. Matter 29 465901 (2017);
         "P. Giannozzi et al., J. Chem. Phys. 152 154105 (2020);
          URL http://www.quantum-espresso.org", 
     in publications or presentations arising from this work. More details at
     http://www.quantum-espresso.org/quote

     Parallel version (MPI & OpenMP), running on       8 processor cores
     Number of MPI processes:                 8
     Threads/MPI process:                     1

     MPI processes distributed on     1 nodes
     0 MiB available memory on the printing compute node when the environment starts

     Waiting for input...
     Reading input from standard input
Warning: card &IONS ignored
Warning: card / ignored
Warning: card &CELL ignored
Warning: card CELL_DOFREE = 'Z' ignored
Warning: card / ignored

     Current dimensions of program PWSCF are:
     Max number of different atomic species (ntypx) = 10
     Max number of k-points (npk) =  40000
     Max angular momentum in pseudopotentials (lmaxx) =  4

     Atomic positions and unit cell read from directory:
     ./tmp/BN2L_AA_PBE_vdW.save/
     Atomic positions from file used, from input discarded


     IMPORTANT: XC functional enforced from input :
     Exchange-correlation= VDW-DF2-B86R
                           (   1   4  26   0   2   0   0)
     Any further DFT definition will be discarded
     Please, verify this is what you really want


     R & G space division:  proc/nbgrp/npool/nimage =       8
     Subspace diagonalization in iterative solution of the eigenvalue problem:
     a serial algorithm will be used


     Parallelization info
     --------------------
     sticks:   dense  smooth     PW     G-vecs:    dense   smooth      PW
     Min          45      45     15                 5775     5775    1005
     Max          46      46     16                 5804     5804    1022
     Sum         367     367    121                46381    46381    8133

     Using Slab Decomposition



     bravais-lattice index     =            4
     lattice parameter (alat)  =       4.7400  a.u.
     unit-cell volume          =     737.8289 (a.u.)^3
     number of atoms/cell      =            4
     number of atomic types    =            2
     number of electrons       =        16.00
     number of Kohn-Sham states=           20
     kinetic-energy cutoff     =      60.0000  Ry
     charge density cutoff     =     240.0000  Ry
     Exchange-correlation= VDW-DF2-B86R
                           (   1   4  26   0   2   0   0)

     celldm(1)=   4.740000  celldm(2)=   0.000000  celldm(3)=   8.000000
     celldm(4)=   0.000000  celldm(5)=   0.000000  celldm(6)=   0.000000

     crystal axes: (cart. coord. in units of alat)
               a(1) = (   1.000000   0.000000   0.000000 )  
               a(2) = (  -0.500000   0.866025   0.000000 )  
               a(3) = (   0.000000   0.000000   8.000000 )  

     reciprocal axes: (cart. coord. in units 2 pi/alat)
               b(1) = (  1.000000  0.577350 -0.000000 )  
               b(2) = (  0.000000  1.154701  0.000000 )  
               b(3) = (  0.000000 -0.000000  0.125000 )  


     PseudoPot. # 1 for B  read from file:
     ../../../../Pseudo/PBE/B.upf
     MD5 check sum: 72f82fc31bc892420d0cab7e25c88ab8
     Pseudo is Norm-conserving + core correction, Zval =  3.0
     Generated using ONCVPSP code by D. R. Hamann
     Using radial grid of 1534 points,  4 beta functions with: 
                l(1) =   0
                l(2) =   0
                l(3) =   1
                l(4) =   1

     PseudoPot. # 2 for N  read from file:
     ../../../../Pseudo/PBE/N.upf
     MD5 check sum: d34365f73bb0e2ee98afc20ec3e87676
     Pseudo is Norm-conserving + core correction, Zval =  5.0
     Generated using ONCVPSP code by D. R. Hamann
     Using radial grid of 1058 points,  4 beta functions with: 
                l(1) =   0
                l(2) =   0
                l(3) =   1
                l(4) =   1

     atomic species   valence    mass     pseudopotential
        B              3.00    10.00000     B ( 1.00)
        N              5.00    14.01100     N ( 1.00)

      6 Sym. Ops. (no inversion) found


                                    s                        frac. trans.

      isym =  1     identity                                     

 cryst.   s( 1) = (     1          0          0      )
                  (     0          1          0      )
                  (     0          0          1      )

 cart.    s( 1) = (  1.0000000  0.0000000  0.0000000 )
                  (  0.0000000  1.0000000  0.0000000 )
                  (  0.0000000  0.0000000  1.0000000 )


      isym =  2     120 deg rotation - cryst. axis [0,0,1]       

 cryst.   s( 2) = (     0          1          0      )
                  (    -1         -1          0      )
                  (     0          0          1      )

 cart.    s( 2) = ( -0.5000000 -0.8660254  0.0000000 )
                  (  0.8660254 -0.5000000  0.0000000 )
                  (  0.0000000  0.0000000  1.0000000 )


      isym =  3     120 deg rotation - cryst. axis [0,0,-1]      

 cryst.   s( 3) = (    -1         -1          0      )
                  (     1          0          0      )
                  (     0          0          1      )

 cart.    s( 3) = ( -0.5000000  0.8660254  0.0000000 )
                  ( -0.8660254 -0.5000000  0.0000000 )
                  (  0.0000000  0.0000000  1.0000000 )


      isym =  4     inv. 180 deg rotation - cart. axis [1,0,0]   

 cryst.   s( 4) = (    -1          0          0      )
                  (     1          1          0      )
                  (     0          0          1      )

 cart.    s( 4) = ( -1.0000000  0.0000000  0.0000000 )
                  (  0.0000000  1.0000000  0.0000000 )
                  (  0.0000000  0.0000000  1.0000000 )


      isym =  5     inv. 180 deg rotation - cryst. axis [0,1,0]  

 cryst.   s( 5) = (     1          1          0      )
                  (     0         -1          0      )
                  (     0          0          1      )

 cart.    s( 5) = (  0.5000000  0.8660254  0.0000000 )
                  (  0.8660254 -0.5000000  0.0000000 )
                  (  0.0000000  0.0000000  1.0000000 )


      isym =  6     inv. 180 deg rotation - cryst. axis [1,1,0]  

 cryst.   s( 6) = (     0         -1          0      )
                  (    -1          0          0      )
                  (     0          0          1      )

 cart.    s( 6) = (  0.5000000 -0.8660254  0.0000000 )
                  ( -0.8660254 -0.5000000  0.0000000 )
                  (  0.0000000  0.0000000  1.0000000 )


     point group C_3v (3m)  
     there are  3 classes
     the character table:

       E     2C3   3s_v 
A_1    1.00  1.00  1.00
A_2    1.00  1.00 -1.00
E      2.00 -1.00  0.00

     the symmetry operations in each class and the name of the first element:

     E        1
          identity                                               
     2C3      2    3
          120 deg rotation - cryst. axis [0,0,1]                 
     3s_v     4    5    6
          inv. 180 deg rotation - cart. axis [1,0,0]             

   Cartesian axes

     site n.     atom                  positions (alat units)
         1           B   tau(   1) = (   0.0000000   0.0000000   0.0000000  )
         2           N   tau(   2) = (   0.5000005   0.2886748   0.0000000  )
         3           B   tau(   3) = (   0.0000000   0.0000000   1.4181600  )
         4           N   tau(   4) = (   0.5000005   0.2886748   1.4181600  )

   Crystallographic axes

     site n.     atom                  positions (cryst. coord.)
         1           B   tau(   1) = (  0.0000000  0.0000000  0.0000000  )
         2           N   tau(   2) = (  0.6666670  0.3333330  0.0000000  )
         3           B   tau(   3) = (  0.0000000  0.0000000  0.1772700  )
         4           N   tau(   4) = (  0.6666670  0.3333330  0.1772700  )

     number of k points=    51  Marzari-Vanderbilt smearing, width (Ry)=  0.0050
                       cart. coord. in units 2pi/alat
        k(    1) = (   0.0000000   0.0000000   0.0000000), wk =   0.0392157
        k(    2) = (  -0.0158729   0.0274930   0.0000000), wk =   0.0392157
        k(    3) = (  -0.0317457   0.0549860   0.0000000), wk =   0.0392157
        k(    4) = (  -0.0476186   0.0824789   0.0000000), wk =   0.0392157
        k(    5) = (  -0.0634914   0.1099719   0.0000000), wk =   0.0392157
        k(    6) = (  -0.0793643   0.1374649   0.0000000), wk =   0.0392157
        k(    7) = (  -0.0952371   0.1649579   0.0000000), wk =   0.0392157
        k(    8) = (  -0.1111100   0.1924509   0.0000000), wk =   0.0392157
        k(    9) = (  -0.1269829   0.2199438   0.0000000), wk =   0.0392157
        k(   10) = (  -0.1428557   0.2474368   0.0000000), wk =   0.0392157
        k(   11) = (  -0.1587286   0.2749298   0.0000000), wk =   0.0392157
        k(   12) = (  -0.1746014   0.3024228   0.0000000), wk =   0.0392157
        k(   13) = (  -0.1904743   0.3299158   0.0000000), wk =   0.0392157
        k(   14) = (  -0.2063471   0.3574087   0.0000000), wk =   0.0392157
        k(   15) = (  -0.2222200   0.3849017   0.0000000), wk =   0.0392157
        k(   16) = (  -0.2380929   0.4123947   0.0000000), wk =   0.0392157
        k(   17) = (  -0.2539657   0.4398877   0.0000000), wk =   0.0392157
        k(   18) = (  -0.2698386   0.4673807   0.0000000), wk =   0.0392157
        k(   19) = (  -0.2857114   0.4948736   0.0000000), wk =   0.0392157
        k(   20) = (  -0.3015843   0.5223666   0.0000000), wk =   0.0392157
        k(   21) = (  -0.3174571   0.5498596   0.0000000), wk =   0.0392157
        k(   22) = (  -0.3333300   0.5773526   0.0000000), wk =   0.0392157
        k(   23) = (  -0.3030273   0.5773524   0.0000000), wk =   0.0392157
        k(   24) = (  -0.2727245   0.5773522   0.0000000), wk =   0.0392157
        k(   25) = (  -0.2424218   0.5773519   0.0000000), wk =   0.0392157
        k(   26) = (  -0.2121191   0.5773517   0.0000000), wk =   0.0392157
        k(   27) = (  -0.1818164   0.5773515   0.0000000), wk =   0.0392157
        k(   28) = (  -0.1515136   0.5773513   0.0000000), wk =   0.0392157
        k(   29) = (  -0.1212109   0.5773511   0.0000000), wk =   0.0392157
        k(   30) = (  -0.0909082   0.5773509   0.0000000), wk =   0.0392157
        k(   31) = (  -0.0606055   0.5773507   0.0000000), wk =   0.0392157
        k(   32) = (  -0.0303027   0.5773505   0.0000000), wk =   0.0392157
        k(   33) = (   0.0000000   0.5773503   0.0000000), wk =   0.0392157
        k(   34) = (   0.0000000   0.5452753   0.0000000), wk =   0.0392157
        k(   35) = (   0.0000000   0.5132002   0.0000000), wk =   0.0392157
        k(   36) = (   0.0000000   0.4811252   0.0000000), wk =   0.0392157
        k(   37) = (   0.0000000   0.4490502   0.0000000), wk =   0.0392157
        k(   38) = (   0.0000000   0.4169752   0.0000000), wk =   0.0392157
        k(   39) = (   0.0000000   0.3849002   0.0000000), wk =   0.0392157
        k(   40) = (   0.0000000   0.3528252   0.0000000), wk =   0.0392157
        k(   41) = (   0.0000000   0.3207501   0.0000000), wk =   0.0392157
        k(   42) = (   0.0000000   0.2886751   0.0000000), wk =   0.0392157
        k(   43) = (   0.0000000   0.2566001   0.0000000), wk =   0.0392157
        k(   44) = (   0.0000000   0.2245251   0.0000000), wk =   0.0392157
        k(   45) = (   0.0000000   0.1924501   0.0000000), wk =   0.0392157
        k(   46) = (   0.0000000   0.1603751   0.0000000), wk =   0.0392157
        k(   47) = (   0.0000000   0.1283001   0.0000000), wk =   0.0392157
        k(   48) = (   0.0000000   0.0962250   0.0000000), wk =   0.0392157
        k(   49) = (   0.0000000   0.0641500   0.0000000), wk =   0.0392157
        k(   50) = (   0.0000000   0.0320750   0.0000000), wk =   0.0392157
        k(   51) = (   0.0000000   0.0000000   0.0000000), wk =   0.0392157

                       cryst. coord.
        k(    1) = (   0.0000000   0.0000000   0.0000000), wk =   0.0392157
        k(    2) = (  -0.0158729   0.0317460   0.0000000), wk =   0.0392157
        k(    3) = (  -0.0317457   0.0634921   0.0000000), wk =   0.0392157
        k(    4) = (  -0.0476186   0.0952381   0.0000000), wk =   0.0392157
        k(    5) = (  -0.0634914   0.1269842   0.0000000), wk =   0.0392157
        k(    6) = (  -0.0793643   0.1587302   0.0000000), wk =   0.0392157
        k(    7) = (  -0.0952371   0.1904763   0.0000000), wk =   0.0392157
        k(    8) = (  -0.1111100   0.2222223   0.0000000), wk =   0.0392157
        k(    9) = (  -0.1269829   0.2539684   0.0000000), wk =   0.0392157
        k(   10) = (  -0.1428557   0.2857144   0.0000000), wk =   0.0392157
        k(   11) = (  -0.1587286   0.3174605   0.0000000), wk =   0.0392157
        k(   12) = (  -0.1746014   0.3492065   0.0000000), wk =   0.0392157
        k(   13) = (  -0.1904743   0.3809526   0.0000000), wk =   0.0392157
        k(   14) = (  -0.2063471   0.4126986   0.0000000), wk =   0.0392157
        k(   15) = (  -0.2222200   0.4444447   0.0000000), wk =   0.0392157
        k(   16) = (  -0.2380929   0.4761907   0.0000000), wk =   0.0392157
        k(   17) = (  -0.2539657   0.5079368   0.0000000), wk =   0.0392157
        k(   18) = (  -0.2698386   0.5396828   0.0000000), wk =   0.0392157
        k(   19) = (  -0.2857114   0.5714289   0.0000000), wk =   0.0392157
        k(   20) = (  -0.3015843   0.6031749   0.0000000), wk =   0.0392157
        k(   21) = (  -0.3174571   0.6349210   0.0000000), wk =   0.0392157
        k(   22) = (  -0.3333300   0.6666670   0.0000000), wk =   0.0392157
        k(   23) = (  -0.3030273   0.6515155   0.0000000), wk =   0.0392157
        k(   24) = (  -0.2727245   0.6363639   0.0000000), wk =   0.0392157
        k(   25) = (  -0.2424218   0.6212124   0.0000000), wk =   0.0392157
        k(   26) = (  -0.2121191   0.6060608   0.0000000), wk =   0.0392157
        k(   27) = (  -0.1818164   0.5909093   0.0000000), wk =   0.0392157
        k(   28) = (  -0.1515136   0.5757577   0.0000000), wk =   0.0392157
        k(   29) = (  -0.1212109   0.5606062   0.0000000), wk =   0.0392157
        k(   30) = (  -0.0909082   0.5454546   0.0000000), wk =   0.0392157
        k(   31) = (  -0.0606055   0.5303031   0.0000000), wk =   0.0392157
        k(   32) = (  -0.0303027   0.5151515   0.0000000), wk =   0.0392157
        k(   33) = (   0.0000000   0.5000000   0.0000000), wk =   0.0392157
        k(   34) = (   0.0000000   0.4722222   0.0000000), wk =   0.0392157
        k(   35) = (   0.0000000   0.4444444   0.0000000), wk =   0.0392157
        k(   36) = (   0.0000000   0.4166667   0.0000000), wk =   0.0392157
        k(   37) = (   0.0000000   0.3888889   0.0000000), wk =   0.0392157
        k(   38) = (   0.0000000   0.3611111   0.0000000), wk =   0.0392157
        k(   39) = (   0.0000000   0.3333333   0.0000000), wk =   0.0392157
        k(   40) = (   0.0000000   0.3055556   0.0000000), wk =   0.0392157
        k(   41) = (   0.0000000   0.2777778   0.0000000), wk =   0.0392157
        k(   42) = (   0.0000000   0.2500000   0.0000000), wk =   0.0392157
        k(   43) = (   0.0000000   0.2222222   0.0000000), wk =   0.0392157
        k(   44) = (   0.0000000   0.1944444   0.0000000), wk =   0.0392157
        k(   45) = (   0.0000000   0.1666667   0.0000000), wk =   0.0392157
        k(   46) = (   0.0000000   0.1388889   0.0000000), wk =   0.0392157
        k(   47) = (   0.0000000   0.1111111   0.0000000), wk =   0.0392157
        k(   48) = (   0.0000000   0.0833333   0.0000000), wk =   0.0392157
        k(   49) = (   0.0000000   0.0555556   0.0000000), wk =   0.0392157
        k(   50) = (   0.0000000   0.0277778   0.0000000), wk =   0.0392157
        k(   51) = (   0.0000000   0.0000000   0.0000000), wk =   0.0392157

     Dense  grid:    46381 G-vectors     FFT dimensions: (  24,  24, 192)

     Dynamical RAM for                 wfc:       0.22 MB

     Dynamical RAM for     wfc (w. buffer):       0.22 MB

     Dynamical RAM for           str. fact:       0.18 MB

     Dynamical RAM for           local pot:       0.00 MB

     Dynamical RAM for          nlocal pot:       0.35 MB

     Dynamical RAM for                qrad:       0.71 MB

     Dynamical RAM for          rho,v,vnew:       0.58 MB

     Dynamical RAM for           G-vectors:       0.38 MB

     Dynamical RAM for          h,s,v(r/c):       0.07 MB

     Dynamical RAM for          <psi|beta>:       0.01 MB

     Dynamical RAM for                 psi:       0.44 MB

     Dynamical RAM for                hpsi:       0.44 MB

     Dynamical RAM for      wfcinit/wfcrot:       0.45 MB

     Estimated static dynamical RAM per process >       3.21 MB

     Estimated max dynamical RAM per process >       4.18 MB

     Estimated total dynamical RAM >      33.43 MB

     The potential is recalculated from file :
     ./tmp/BN2L_AA_PBE_vdW.save/charge-density


     negative rho (up, down):  7.282E-06 0.000E+00


     %%%%%%%%%%%%%%%%%%%%%%%%%%%%%%%%%%%%%%%%%%%%%%%%%%%%%%%%%%%%%%%%%%%%%%%%
     %                                                                      %
     % You are using vdW-DF, which was implemented by the Thonhauser group. %
     % Please cite the following two papers that made this development      %
     % possible and the two reviews that describe the various versions:     %
     %                                                                      %
     %   T. Thonhauser et al., PRL 115, 136402 (2015).                      %
     %   T. Thonhauser et al., PRB 76, 125112 (2007).                       %
     %   K. Berland et al., Rep. Prog. Phys. 78, 066501 (2015).             %
     %   D.C. Langreth et al., J. Phys.: Condens. Matter 21, 084203 (2009). %
     %                                                                      %
     % If you are calculating stress with vdW-DF, please also cite:         %
     %                                                                      %
     %   R. Sabatini et al., J. Phys.: Condens. Matter 24, 424209 (2012).   %
     %                                                                      %
     %%%%%%%%%%%%%%%%%%%%%%%%%%%%%%%%%%%%%%%%%%%%%%%%%%%%%%%%%%%%%%%%%%%%%%%%

     %%%%%%%%%%%%%%%%%%%%%%%%%%%%%%%%%%%%%%%%%%%%%%%%%%%%%%%%%%%%%%%%%%%%%%%%
     %                                                                      %
     %  vdW-DF NEWS:                                                        %
     %                                                                      %
     %  * vdW-DF3 is now available. DOI: 10.1021/acs.jctc.0c00471           %
     %    use with input_dft = 'vdW-DF3-opt1' or 'vdW-DF3-opt2'             %
     %                                                                      %
     %  * Unscreened and range-separated hybrid vdW-DF-cx functionals       %
     %    DOI: 10.1063/1.4986522 and 10.1088/1361-648X/ac2ad2               %
     %    use with input_dft = 'vdW-DF-cx0'    and 'vdW-DF-ahcx'            %
     %  * Unscreened and range-separated hybrid vdW-DF2-b86r functionals    %
     %    DOI: 10.1063/1.4986522 and DOI: 10.1103/PhysRevX.12.041003        %
     %    use with input_dft = 'vdW-DF2-br0' and 'vdW-DF2-ahbr'             %
     %                                                                      %
     %%%%%%%%%%%%%%%%%%%%%%%%%%%%%%%%%%%%%%%%%%%%%%%%%%%%%%%%%%%%%%%%%%%%%%%%


     Carrying out vdW-DF run using the following parameters:
     Nqs    =  20  Npoints =  1024  r_max =  100.000
     q_mesh =  0.00001000  0.04494208  0.09755937  0.15916263
               0.23128650  0.31572767  0.41458969  0.53033537
               0.66584808  0.82450364  1.01025438  1.22772762
               1.48234092  1.78043706  2.12944203  2.53805004
               3.01644009  3.57652955  4.23227104  5.00000000


     -----------------------------------------------
     Non-local corr. energy    =       0.20394533 Ry
     -----------------------------------------------

     Starting wfcs are   16 randomized atomic wfcs +    4 random wfcs

     Band Structure Calculation
     Davidson diagonalization with overlap

     Computing kpt #:     1  of    51
     total cpu time spent up to now is        9.6 secs

     Computing kpt #:     2  of    51
     total cpu time spent up to now is        9.8 secs

     Computing kpt #:     3  of    51
     total cpu time spent up to now is       10.2 secs

     Computing kpt #:     4  of    51
     total cpu time spent up to now is       10.5 secs

     Computing kpt #:     5  of    51
     total cpu time spent up to now is       10.9 secs

     Computing kpt #:     6  of    51
     total cpu time spent up to now is       11.4 secs

     Computing kpt #:     7  of    51
     total cpu time spent up to now is       11.7 secs

     Computing kpt #:     8  of    51
     total cpu time spent up to now is       12.1 secs

     Computing kpt #:     9  of    51
     total cpu time spent up to now is       12.4 secs

     Computing kpt #:    10  of    51
     total cpu time spent up to now is       12.8 secs

     Computing kpt #:    11  of    51
     total cpu time spent up to now is       13.1 secs

     Computing kpt #:    12  of    51
     total cpu time spent up to now is       13.5 secs

     Computing kpt #:    13  of    51
     total cpu time spent up to now is       13.8 secs

     Computing kpt #:    14  of    51
     total cpu time spent up to now is       14.0 secs

     Computing kpt #:    15  of    51
     total cpu time spent up to now is       14.3 secs

     Computing kpt #:    16  of    51
     total cpu time spent up to now is       14.5 secs

     Computing kpt #:    17  of    51
     total cpu time spent up to now is       14.8 secs

     Computing kpt #:    18  of    51
     total cpu time spent up to now is       15.2 secs

     Computing kpt #:    19  of    51
     total cpu time spent up to now is       15.5 secs

     Computing kpt #:    20  of    51
     total cpu time spent up to now is       15.8 secs

     Computing kpt #:    21  of    51
     total cpu time spent up to now is       16.1 secs

     Computing kpt #:    22  of    51
     total cpu time spent up to now is       16.5 secs

     Computing kpt #:    23  of    51
     total cpu time spent up to now is       16.8 secs

     Computing kpt #:    24  of    51
     total cpu time spent up to now is       17.1 secs

     Computing kpt #:    25  of    51
     total cpu time spent up to now is       17.4 secs

     Computing kpt #:    26  of    51
     total cpu time spent up to now is       17.6 secs

     Computing kpt #:    27  of    51
     total cpu time spent up to now is       17.9 secs

     Computing kpt #:    28  of    51
     total cpu time spent up to now is       18.2 secs

     Computing kpt #:    29  of    51
     total cpu time spent up to now is       18.7 secs

     Computing kpt #:    30  of    51
     total cpu time spent up to now is       19.1 secs

     Computing kpt #:    31  of    51
     total cpu time spent up to now is       19.5 secs

     Computing kpt #:    32  of    51
     total cpu time spent up to now is       19.8 secs

     Computing kpt #:    33  of    51
     total cpu time spent up to now is       20.3 secs

     Computing kpt #:    34  of    51
     total cpu time spent up to now is       20.6 secs

     Computing kpt #:    35  of    51
     total cpu time spent up to now is       20.9 secs

     Computing kpt #:    36  of    51
     total cpu time spent up to now is       21.1 secs

     Computing kpt #:    37  of    51
     total cpu time spent up to now is       21.4 secs

     Computing kpt #:    38  of    51
     total cpu time spent up to now is       21.6 secs

     Computing kpt #:    39  of    51
     total cpu time spent up to now is       21.9 secs

     Computing kpt #:    40  of    51
     total cpu time spent up to now is       22.2 secs

     Computing kpt #:    41  of    51
     total cpu time spent up to now is       22.5 secs

     Computing kpt #:    42  of    51
     total cpu time spent up to now is       22.9 secs

     Computing kpt #:    43  of    51
     total cpu time spent up to now is       23.2 secs

     Computing kpt #:    44  of    51
     total cpu time spent up to now is       23.6 secs

     Computing kpt #:    45  of    51
     total cpu time spent up to now is       24.1 secs

     Computing kpt #:    46  of    51
     total cpu time spent up to now is       24.5 secs

     Computing kpt #:    47  of    51
     total cpu time spent up to now is       24.8 secs

     Computing kpt #:    48  of    51
     total cpu time spent up to now is       25.2 secs

     Computing kpt #:    49  of    51
     total cpu time spent up to now is       25.5 secs

     Computing kpt #:    50  of    51
     total cpu time spent up to now is       25.7 secs

     Computing kpt #:    51  of    51
     total cpu time spent up to now is       26.0 secs

     ethr =  6.25E-09,  avg # of iterations = 53.4

     total cpu time spent up to now is       26.0 secs

     End of band structure calculation

          k = 0.0000 0.0000 0.0000 (  5727 PWs)   bands (ev):

   -20.1077 -20.0185  -8.0845  -7.3024  -3.8258  -3.8257  -3.8147  -3.8147
     1.9654   2.5431   3.5870   4.5454   4.7406   6.4875   7.3743   9.2024
     9.2024   9.2376   9.2509   9.2510

          k =-0.0159 0.0275 0.0000 (  5747 PWs)   bands (ev):

   -20.0931 -20.0042  -8.0649  -7.2833  -3.8893  -3.8778  -3.8551  -3.8444
     1.9913   2.5666   3.6112   4.5668   4.7644   6.5046   7.3981   9.1781
     9.2357   9.2533   9.2724   9.3152

          k =-0.0317 0.0550 0.0000 (  5755 PWs)   bands (ev):

   -20.0494 -19.9610  -8.0052  -7.2262  -4.0737  -4.0591  -3.9432  -3.9321
     2.0682   2.6370   3.6838   4.6306   4.8357   6.5559   7.4682   9.1402
     9.2050   9.2806   9.4625   9.4939

          k =-0.0476 0.0825 0.0000 (  5749 PWs)   bands (ev):

   -19.9768 -19.8892  -7.9061  -7.1310  -4.3639  -4.3443  -4.0862  -4.0747
     2.1941   2.7536   3.8039   4.7341   4.9538   6.6386   7.5808   9.1057
     9.1767   9.2992   9.7299   9.7596

          k =-0.0635 0.1100 0.0000 (  5751 PWs)   bands (ev):

   -19.8758 -19.7892  -7.7675  -6.9984  -4.7402  -4.7153  -4.2820  -4.2690
     2.3669   2.9153   3.9710   4.8736   5.1180   6.7474   7.7304   9.0846
     9.1673   9.3035   9.8439  10.1287

          k =-0.0794 0.1375 0.0000 (  5752 PWs)   bands (ev):

   -19.7470 -19.6617  -7.5907  -6.8291  -5.1804  -5.1499  -4.5237  -4.5095
     2.5849   3.1209   4.1839   5.0426   5.3270   6.8730   7.9083   9.0796
     9.1775   9.2916   9.6436  10.3245

          k =-0.0952 0.1650 0.0000 (  5768 PWs)   bands (ev):

   -19.5912 -19.5077  -7.3766  -6.6248  -5.6639  -5.6288  -4.8063  -4.7906
     2.8472   3.3692   4.4410   5.2310   5.5792   7.0001   8.0897   9.0780
     9.1446   9.2878   9.4275  10.5371

          k =-0.1111 0.1925 0.0000 (  5758 PWs)   bands (ev):

   -19.4096 -19.3280  -7.1269  -6.3928  -6.1732  -6.1277  -5.1221  -5.1041
     3.1534   3.6578   4.7380   5.4207   5.8712   7.1102   8.1777   8.9903
     9.0687   9.3404   9.4528  10.7654

          k =-0.1270 0.2199 0.0000 (  5758 PWs)   bands (ev):

   -19.2035 -19.1243  -6.8592  -6.6786  -6.6627  -6.1054  -5.4649  -5.4440
     3.5032   3.9828   5.0592   5.5837   6.1936   7.1976   7.9904   9.0544
     9.1009   9.4571   9.5962  11.0087

          k =-0.1429 0.2474 0.0000 (  5786 PWs)   bands (ev):

   -18.9753 -18.8987  -7.2301  -7.1813  -6.5137  -5.8272  -5.8236  -5.7860
     3.8962   4.3353   5.3121   5.7425   6.5106   7.3049   7.6573   9.2318
     9.3241   9.6247   9.7975  11.2671

          k =-0.1587 0.2749 0.0000 (  5774 PWs)   bands (ev):

   -18.7270 -18.6533  -7.7422  -7.6916  -6.2137  -6.1770  -6.1552  -5.4750
     4.3322   4.6928   5.2678   6.0737   6.6583   7.5018   7.5069   9.4687
     9.6761   9.8341  10.0468  11.5425

          k =-0.1746 0.3024 0.0000 (  5786 PWs)   bands (ev):

   -18.4622 -18.3915  -8.2377  -8.1846  -6.5867  -6.5556  -5.7894  -5.1215
     4.8103   4.9844   4.9847   6.5128   6.5363   7.7810   7.8071   9.7849
    10.0708  10.0777  10.3364  11.8359

          k =-0.1905 0.3299 0.0000 (  5790 PWs)   bands (ev):

   -18.1848 -18.1177  -8.7059  -8.6505  -6.9705  -6.9357  -5.3912  -4.7488
     4.5850   5.0345   5.3308   6.4975   7.0636   8.1949   8.2525  10.1379
    10.3532  10.4891  10.6604  12.0555

          k =-0.2063 0.3574 0.0000 (  5808 PWs)   bands (ev):

   -17.9005 -17.8370  -9.1386  -9.0813  -7.3511  -7.3119  -4.9765  -4.3638
     4.1348   4.7736   5.8908   6.8101   7.6395   8.6324   8.8030  10.4507
    10.6772  10.8971  11.0279  12.1597

          k =-0.2222 0.3849 0.0000 (  5812 PWs)   bands (ev):

   -17.6160 -17.5566  -9.5258  -9.4668  -7.7239  -7.6804  -4.5532  -3.9742
     3.6728   4.3807   6.4888   7.3075   8.2539   9.0840   9.4058  10.6560
    11.0401  11.2347  11.4677  12.3154

          k =-0.2381 0.4124 0.0000 (  5826 PWs)   bands (ev):

   -17.3403 -17.2851  -9.8586  -9.7979  -8.0854  -8.0371  -4.1323  -3.5908
     3.2252   3.9685   7.1209   7.8897   8.8796   9.5004  10.0495  10.7733
    11.3880  11.4929  11.9487  12.5876

          k =-0.2540 0.4399 0.0000 (  5816 PWs)   bands (ev):

   -17.0837 -17.0327 -10.1256 -10.0636  -8.4312  -8.3782  -3.7274  -3.2276
     2.8132   3.5832   7.7813   8.5163   9.3610   9.9086  10.7221  10.9172
    11.6417  11.7245  12.4431  12.9439

          k =-0.2698 0.4674 0.0000 (  5810 PWs)   bands (ev):

   -16.8582 -16.8111 -10.3159 -10.2542  -8.7582  -8.7001  -3.3576  -2.9014
     2.4563   3.2501   8.4575   9.1577   9.4245  10.5161  11.1600  11.3942
    11.6548  12.1024  12.9025  13.2193

          k =-0.2857 0.4949 0.0000 (  5794 PWs)   bands (ev):

   -16.6754 -16.6313 -10.4220 -10.3610  -9.0611  -8.9972  -3.0445  -2.6298
     2.1718   2.9867   9.1185   9.2868   9.7675  11.0795  11.5474  11.5493
    12.0555  12.5438  13.2339  13.3047

          k =-0.3016 0.5224 0.0000 (  5796 PWs)   bands (ev):

   -16.5440 -16.5025 -10.4430 -10.3855  -9.3314  -9.2610  -2.8109  -2.4298
     1.9732   2.8039   9.1035   9.7300  10.2474  11.3262  11.5174  12.2465
    12.5418  12.8008  13.4681  13.5711

          k =-0.3175 0.5499 0.0000 (  5792 PWs)   bands (ev):

   -16.4677 -16.4278 -10.3988 -10.3471  -9.5462  -9.4682  -2.6718  -2.3111
     1.8645   2.7035   8.9757  10.1417  10.4734  11.5365  11.6402  12.5059
    12.7785  13.1727  13.8835  13.9780

          k =-0.3333 0.5774 0.0000 (  5814 PWs)   bands (ev):

   -16.4440 -16.4047 -10.3580 -10.3114  -9.6416  -9.5590  -2.6283  -2.2743
     1.8335   2.6742   8.9278  10.2689  10.5111  11.7091  11.7416  12.3517
    12.8200  13.8462  13.9873  14.1434

          k =-0.3030 0.5774 0.0000 (  5792 PWs)   bands (ev):

   -16.4625 -16.4227 -10.4135 -10.3614  -9.5406  -9.4629  -2.6615  -2.3030
     1.8524   2.6935   8.9750  10.1890  10.5050  11.5253  11.6310  12.4528
    12.7989  13.5526  13.6912  13.8307

          k =-0.2727 0.5774 0.0000 (  5788 PWs)   bands (ev):

   -16.5114 -16.4706 -10.5444 -10.4840  -9.2829  -9.2148  -2.7484  -2.3788
     1.8904   2.7361   9.1167   9.9973  10.5014  11.1996  11.3535  12.4061
    12.6607  13.2430  13.3466  13.4656

          k =-0.2424 0.5774 0.0000 (  5788 PWs)   bands (ev):

   -16.5802 -16.5383 -10.6946 -10.6279  -8.9407  -8.8809  -2.8678  -2.4837
     1.9256   2.7834   9.3339   9.7363  10.4830  10.8720  10.9925  12.1284
    12.3045  12.9059  13.0377  13.2471

          k =-0.2121 0.5774 0.0000 (  5796 PWs)   bands (ev):

   -16.6593 -16.6165 -10.8402 -10.7686  -8.5550  -8.5034  -3.0020  -2.6026
     1.9460   2.8231   9.3291   9.6884  10.3190  10.5790  10.6804  11.7698
    11.8600  12.5909  12.7273  13.1235

          k =-0.1818 0.5774 0.0000 (  5788 PWs)   bands (ev):

   -16.7410 -16.6970 -10.9721 -10.8967  -8.1528  -8.1082  -3.1363  -2.7234
     1.9488   2.8493   8.9399   9.8566   9.9749  10.3442  10.5741  11.4230
    11.4701  12.3151  12.4449  13.0118

          k =-0.1515 0.5774 0.0000 (  5794 PWs)   bands (ev):

   -16.8190 -16.7741 -11.0865 -11.0074  -7.7573  -7.7190  -3.2618  -2.8373
     1.9371   2.8621   8.4969   9.3036  10.0632  10.3366  10.5072  11.1479
    11.1676  12.0821  12.2064  12.8969

          k =-0.1212 0.5774 0.0000 (  5800 PWs)   bands (ev):

   -16.8885 -16.8428 -11.1813 -11.0997  -7.3894  -7.3574  -3.3715  -2.9377
     1.9167   2.8642   8.0542   8.7668   9.9243  10.4361  10.4673  10.9426
    11.0184  11.8927  12.0159  12.7870

          k =-0.0909 0.5774 0.0000 (  5794 PWs)   bands (ev):

   -16.9457 -16.8994 -11.2551 -11.1721  -7.0711  -7.0446  -3.4611  -3.0198
     1.8938   2.8602   7.6561   8.3000   9.8038  10.3659  10.4313  10.7809
    11.0622  11.7465  11.8749  12.6924

          k =-0.0606 0.5774 0.0000 (  5794 PWs)   bands (ev):

   -16.9883 -16.9415 -11.3084 -11.2243  -6.8239  -6.8019  -3.5267  -3.0808
     1.8734   2.8539   7.3405   7.9394   9.7168  10.3069  10.3427  10.6721
    11.1386  11.6430  11.7824  12.6202

          k =-0.0303 0.5774 0.0000 (  5788 PWs)   bands (ev):

   -17.0143 -16.9675 -11.3404 -11.2557  -6.6663  -6.6477  -3.5670  -3.1177
     1.8594   2.8488   7.1381   7.7117   9.6645  10.2678  10.2785  10.6095
    11.1817  11.5814  11.7330  12.5752

          k = 0.0000 0.5774 0.0000 (  5812 PWs)   bands (ev):

   -17.0233 -16.9765 -11.3511 -11.2664  -6.6127  -6.5955  -3.5808  -3.1308
     1.8543   2.8465   7.0684   7.6338   9.6471  10.2540  10.2561  10.5890
    11.1938  11.5608  11.7179  12.5598

          k = 0.0000 0.5453 0.0000 (  5818 PWs)   bands (ev):

   -17.0682 -17.0204 -11.2818 -11.1979  -6.5967  -6.5794  -3.6577  -3.1959
     1.9526   2.9318   7.0252   7.6239   9.2439   9.6605  10.4781  10.8921
    11.2144  11.2446  11.8329  12.2913

          k = 0.0000 0.5132 0.0000 (  5824 PWs)   bands (ev):

   -17.1960 -17.1454 -11.0800 -10.9984  -6.5493  -6.5316  -3.8714  -3.3801
     2.2291   3.1737   6.8819   7.5831   8.7115   8.9954   9.9153  10.5998
    11.0412  11.6538  12.0415  12.2190

          k = 0.0000 0.4811 0.0000 (  5816 PWs)   bands (ev):

   -17.3894 -17.3350 -10.7640 -10.6856  -6.4708  -6.4529  -4.1837  -3.6537
     2.6412   3.5384   6.6115   7.4597   8.2764   8.4545   9.2317  10.1448
    10.3319  11.7687  12.3737  12.7604

          k = 0.0000 0.4491 0.0000 (  5808 PWs)   bands (ev):

   -17.6273 -17.5690 -10.3554 -10.2818  -6.3616  -6.3444  -4.5553  -3.9856
     3.1415   3.9816   6.2184   7.1651   7.9234   8.1378   8.6216   9.6735
     9.6930  11.2749  12.3636  13.0058

          k = 0.0000 0.4170 0.0000 (  5822 PWs)   bands (ev):

   -17.8913 -17.8287  -9.8767  -9.8074  -6.2244  -6.2074  -4.9543  -4.3485
     3.6860   4.4457   5.7519   6.7569   7.5342   7.9997   8.1584   9.0880
     9.3015  10.7843  11.7748  13.3061

          k = 0.0000 0.3849 0.0000 (  5814 PWs)   bands (ev):

   -18.1658 -18.0994  -9.3446  -9.2796  -6.0600  -6.0433  -5.3592  -4.7216
     4.2335   4.8268   5.2631   6.4258   7.0537   7.8389   7.8773   8.6290
     9.0069  10.3305  11.2214  13.1543

          k = 0.0000 0.3528 0.0000 (  5800 PWs)   bands (ev):

   -18.4396 -18.3695  -8.7747  -8.7138  -5.8714  -5.8549  -5.7554  -5.0907
     4.7303   4.7872   4.9190   6.3888   6.5561   7.5738   7.6405   8.3917
     8.8178   9.9354  10.7148  12.8498

          k = 0.0000 0.3208 0.0000 (  5792 PWs)   bands (ev):

   -18.7047 -18.6314  -8.1802  -8.1238  -6.1334  -5.6614  -5.6455  -5.4453
     4.3252   4.6920   5.1204   6.0975   6.5811   7.3535   7.4065   8.3314
     8.7081   9.6227  10.2635  12.5277

          k = 0.0000 0.2887 0.0000 (  5802 PWs)   bands (ev):

   -18.9552 -18.8788  -7.5738  -7.5213  -6.4855  -5.7786  -5.4349  -5.4197
     3.9012   4.3518   5.2644   5.7440   6.5081   7.2161   7.5504   8.3327
     8.6468   9.4164   9.8814  12.2331

          k = 0.0000 0.2566 0.0000 (  5764 PWs)   bands (ev):

   -19.1865 -19.1074  -6.9814  -6.9181  -6.7921  -6.0838  -5.1956  -5.1811
     3.5140   4.0024   5.0676   5.5730   6.2077   7.1569   7.9261   8.3624
     8.6333   9.3216   9.5936  11.9905

          k = 0.0000 0.2245 0.0000 (  5762 PWs)   bands (ev):

   -19.3958 -19.3145  -7.1086  -6.3984  -6.3585  -6.2877  -4.9507  -4.9370
     3.1662   3.6758   4.7541   5.4200   5.8873   7.1006   8.1148   8.5378
     8.6820   9.3089   9.4442  11.7306

          k = 0.0000 0.1925 0.0000 (  5740 PWs)   bands (ev):

   -19.5806 -19.4974  -7.3623  -6.6112  -5.7881  -5.7512  -4.7067  -4.6940
     2.8595   3.3840   4.4556   5.2360   5.5933   7.0033   8.0415   8.7769
     8.8049   9.3333   9.4904  11.3264

          k = 0.0000 0.1604 0.0000 (  5732 PWs)   bands (ev):

   -19.7395 -19.6544  -7.5807  -6.8193  -5.2561  -5.2251  -4.4739  -4.4620
     2.5950   3.1320   4.1951   5.0490   5.3379   6.8786   7.8914   8.8833
     8.9624   9.3545   9.7133  10.7617

          k = 0.0000 0.1283 0.0000 (  5750 PWs)   bands (ev):

   -19.8710 -19.7845  -7.7611  -6.9920  -4.7822  -4.7563  -4.2624  -4.2507
     2.3742   2.9226   3.9786   4.8790   5.1254   6.7520   7.7287   8.9800
     9.0572   9.3518   9.9722  10.2253

          k = 0.0000 0.0962 0.0000 (  5752 PWs)   bands (ev):

   -19.9741 -19.8865  -7.9023  -7.1274  -4.3835  -4.3635  -4.0817  -4.0711
     2.1986   2.7579   3.8084   4.7378   4.9582   6.6416   7.5831   9.0621
     9.1321   9.3276   9.7898   9.8371

          k = 0.0000 0.0642 0.0000 (  5753 PWs)   bands (ev):

   -20.0482 -19.9598  -8.0037  -7.2246  -4.0806  -4.0656  -3.9430  -3.9326
     2.0703   2.6390   3.6858   4.6323   4.8377   6.5573   7.4699   9.1278
     9.1931   9.2932   9.4676   9.5149

          k = 0.0000 0.0321 0.0000 (  5747 PWs)   bands (ev):

   -20.0928 -20.0039  -8.0645  -7.2830  -3.8908  -3.8791  -3.8556  -3.8447
     1.9919   2.5671   3.6117   4.5672   4.7649   6.5050   7.3986   9.1765
     9.2346   9.2591   9.2694   9.3170

          k = 0.0000 0.0000 0.0000 (  5727 PWs)   bands (ev):

   -20.1077 -20.0185  -8.0845  -7.3024  -3.8258  -3.8257  -3.8147  -3.8147
     1.9654   2.5431   3.5870   4.5454   4.7406   6.4875   7.3743   9.2024
     9.2024   9.2376   9.2509   9.2510

     Writing all to output data dir ./tmp/BN2L_AA_PBE_vdW.save/

     init_run     :      9.20s CPU      9.23s WALL (       1 calls)
     electrons    :     17.79s CPU     16.66s WALL (       1 calls)

     Called by init_run:
     wfcinit      :      0.00s CPU      0.00s WALL (       1 calls)
     wfcinit:atom :      0.01s CPU      0.01s WALL (      51 calls)
     wfcinit:wfcr :      0.44s CPU      0.44s WALL (      51 calls)
     potinit      :      8.82s CPU      8.85s WALL (       1 calls)
     hinit0       :      0.35s CPU      0.35s WALL (       1 calls)

     Called by electrons:
     c_bands      :     17.79s CPU     16.66s WALL (       1 calls)
     v_of_rho     :      8.82s CPU      8.85s WALL (       1 calls)
     v_h          :      0.00s CPU      0.00s WALL (       1 calls)
     v_xc         :      8.82s CPU      8.85s WALL (       1 calls)
     vdW_kernel   :      8.78s CPU      8.80s WALL (       1 calls)

     Called by c_bands:
     init_us_2    :      0.01s CPU      0.01s WALL (      51 calls)
     init_us_2:cp :      0.01s CPU      0.01s WALL (      51 calls)
     cegterg      :     17.30s CPU     16.16s WALL (     160 calls)

     Called by sum_band:

     Called by *egterg:
     cdiaghg      :      1.57s CPU      1.58s WALL (    2773 calls)
     cegterg:over :      1.83s CPU      1.40s WALL (    2722 calls)
     cegterg:upda :      1.27s CPU      1.00s WALL (    2722 calls)
     cegterg:last :      2.01s CPU      1.33s WALL (    1306 calls)
     h_psi        :     10.41s CPU     10.53s WALL (    2933 calls)
     g_psi        :      0.11s CPU      0.15s WALL (    2722 calls)

     Called by h_psi:
     h_psi:calbec :      0.76s CPU      0.78s WALL (    2933 calls)
     vloc_psi     :      8.59s CPU      8.87s WALL (    2933 calls)
     add_vuspsi   :      0.96s CPU      0.77s WALL (    2933 calls)

     General routines
     calbec       :      0.76s CPU      0.77s WALL (    2933 calls)
     fft          :      0.27s CPU      0.27s WALL (      61 calls)
     fftw         :      7.67s CPU      7.89s WALL (   51956 calls)
     davcio       :      0.00s CPU      0.01s WALL (     102 calls)

     Parallel routines

     PWSCF        :     27.20s CPU     26.18s WALL


   This run was terminated on:  17:29: 2  12Apr2024            

=------------------------------------------------------------------------------=
   JOB DONE.
=------------------------------------------------------------------------------=
