
     Program PWSCF v.7.2 starts on 17Apr2024 at 16:38: 9 

     This program is part of the open-source Quantum ESPRESSO suite
     for quantum simulation of materials; please cite
         "P. Giannozzi et al., J. Phys.:Condens. Matter 21 395502 (2009);
         "P. Giannozzi et al., J. Phys.:Condens. Matter 29 465901 (2017);
         "P. Giannozzi et al., J. Chem. Phys. 152 154105 (2020);
          URL http://www.quantum-espresso.org", 
     in publications or presentations arising from this work. More details at
     http://www.quantum-espresso.org/quote

     Parallel version (MPI & OpenMP), running on       8 processor cores
     Number of MPI processes:                 8
     Threads/MPI process:                     1

     MPI processes distributed on     1 nodes
     0 MiB available memory on the printing compute node when the environment starts

     Waiting for input...
     Reading input from standard input
Warning: card &IONS ignored
Warning: card / ignored
Warning: card &CELL ignored
Warning: card CELL_DOFREE = 'Z' ignored
Warning: card / ignored

     Current dimensions of program PWSCF are:
     Max number of different atomic species (ntypx) = 10
     Max number of k-points (npk) =  40000
     Max angular momentum in pseudopotentials (lmaxx) =  4

     Atomic positions and unit cell read from directory:
     ./tmp/BN2L_AA_PBE_vdW.save/
     Atomic positions from file used, from input discarded


     IMPORTANT: XC functional enforced from input :
     Exchange-correlation= VDW-DF2-B86R
                           (   1   4  26   0   2   0   0)
     Any further DFT definition will be discarded
     Please, verify this is what you really want


     R & G space division:  proc/nbgrp/npool/nimage =       8
     Subspace diagonalization in iterative solution of the eigenvalue problem:
     a serial algorithm will be used


     Parallelization info
     --------------------
     sticks:   dense  smooth     PW     G-vecs:    dense   smooth      PW
     Min          45      45     14                 5791     5791    1010
     Max          46      46     16                 5824     5824    1027
     Sum         367     367    121                46525    46525    8181

     Using Slab Decomposition



     bravais-lattice index     =            4
     lattice parameter (alat)  =       4.7476  a.u.
     unit-cell volume          =     741.3977 (a.u.)^3
     number of atoms/cell      =            4
     number of atomic types    =            2
     number of electrons       =        16.00
     number of Kohn-Sham states=           20
     kinetic-energy cutoff     =      60.0000  Ry
     charge density cutoff     =     240.0000  Ry
     Exchange-correlation= VDW-DF2-B86R
                           (   1   4  26   0   2   0   0)

     celldm(1)=   4.747630  celldm(2)=   0.000000  celldm(3)=   8.000000
     celldm(4)=   0.000000  celldm(5)=   0.000000  celldm(6)=   0.000000

     crystal axes: (cart. coord. in units of alat)
               a(1) = (   1.000000   0.000000   0.000000 )  
               a(2) = (  -0.500000   0.866025   0.000000 )  
               a(3) = (   0.000000   0.000000   8.000000 )  

     reciprocal axes: (cart. coord. in units 2 pi/alat)
               b(1) = (  1.000000  0.577350 -0.000000 )  
               b(2) = (  0.000000  1.154701  0.000000 )  
               b(3) = (  0.000000 -0.000000  0.125000 )  


     PseudoPot. # 1 for B  read from file:
     ../../../../Pseudo/PBE/B.upf
     MD5 check sum: 72f82fc31bc892420d0cab7e25c88ab8
     Pseudo is Norm-conserving + core correction, Zval =  3.0
     Generated using ONCVPSP code by D. R. Hamann
     Using radial grid of 1534 points,  4 beta functions with: 
                l(1) =   0
                l(2) =   0
                l(3) =   1
                l(4) =   1

     PseudoPot. # 2 for N  read from file:
     ../../../../Pseudo/PBE/N.upf
     MD5 check sum: d34365f73bb0e2ee98afc20ec3e87676
     Pseudo is Norm-conserving + core correction, Zval =  5.0
     Generated using ONCVPSP code by D. R. Hamann
     Using radial grid of 1058 points,  4 beta functions with: 
                l(1) =   0
                l(2) =   0
                l(3) =   1
                l(4) =   1

     atomic species   valence    mass     pseudopotential
        B              3.00    10.00000     B ( 1.00)
        N              5.00    14.01100     N ( 1.00)

      6 Sym. Ops. (no inversion) found


                                    s                        frac. trans.

      isym =  1     identity                                     

 cryst.   s( 1) = (     1          0          0      )
                  (     0          1          0      )
                  (     0          0          1      )

 cart.    s( 1) = (  1.0000000  0.0000000  0.0000000 )
                  (  0.0000000  1.0000000  0.0000000 )
                  (  0.0000000  0.0000000  1.0000000 )


      isym =  2     120 deg rotation - cryst. axis [0,0,1]       

 cryst.   s( 2) = (     0          1          0      )
                  (    -1         -1          0      )
                  (     0          0          1      )

 cart.    s( 2) = ( -0.5000000 -0.8660254  0.0000000 )
                  (  0.8660254 -0.5000000  0.0000000 )
                  (  0.0000000  0.0000000  1.0000000 )


      isym =  3     120 deg rotation - cryst. axis [0,0,-1]      

 cryst.   s( 3) = (    -1         -1          0      )
                  (     1          0          0      )
                  (     0          0          1      )

 cart.    s( 3) = ( -0.5000000  0.8660254  0.0000000 )
                  ( -0.8660254 -0.5000000  0.0000000 )
                  (  0.0000000  0.0000000  1.0000000 )


      isym =  4     inv. 180 deg rotation - cart. axis [1,0,0]   

 cryst.   s( 4) = (    -1          0          0      )
                  (     1          1          0      )
                  (     0          0          1      )

 cart.    s( 4) = ( -1.0000000  0.0000000  0.0000000 )
                  (  0.0000000  1.0000000  0.0000000 )
                  (  0.0000000  0.0000000  1.0000000 )


      isym =  5     inv. 180 deg rotation - cryst. axis [0,1,0]  

 cryst.   s( 5) = (     1          1          0      )
                  (     0         -1          0      )
                  (     0          0          1      )

 cart.    s( 5) = (  0.5000000  0.8660254  0.0000000 )
                  (  0.8660254 -0.5000000  0.0000000 )
                  (  0.0000000  0.0000000  1.0000000 )


      isym =  6     inv. 180 deg rotation - cryst. axis [1,1,0]  

 cryst.   s( 6) = (     0         -1          0      )
                  (    -1          0          0      )
                  (     0          0          1      )

 cart.    s( 6) = (  0.5000000 -0.8660254  0.0000000 )
                  ( -0.8660254 -0.5000000  0.0000000 )
                  (  0.0000000  0.0000000  1.0000000 )


     point group C_3v (3m)  
     there are  3 classes
     the character table:

       E     2C3   3s_v 
A_1    1.00  1.00  1.00
A_2    1.00  1.00 -1.00
E      2.00 -1.00  0.00

     the symmetry operations in each class and the name of the first element:

     E        1
          identity                                               
     2C3      2    3
          120 deg rotation - cryst. axis [0,0,1]                 
     3s_v     4    5    6
          inv. 180 deg rotation - cart. axis [1,0,0]             

   Cartesian axes

     site n.     atom                  positions (alat units)
         1           B   tau(   1) = (   0.0000000   0.0000000   0.0000000  )
         2           N   tau(   2) = (   0.5000005   0.2886748   0.0000000  )
         3           B   tau(   3) = (   0.0000000   0.0000000   1.4181600  )
         4           N   tau(   4) = (   0.5000005   0.2886748   1.4181600  )

   Crystallographic axes

     site n.     atom                  positions (cryst. coord.)
         1           B   tau(   1) = (  0.0000000  0.0000000  0.0000000  )
         2           N   tau(   2) = (  0.6666670  0.3333330  0.0000000  )
         3           B   tau(   3) = (  0.0000000  0.0000000  0.1772700  )
         4           N   tau(   4) = (  0.6666670  0.3333330  0.1772700  )

     number of k points=    51  Marzari-Vanderbilt smearing, width (Ry)=  0.0050
                       cart. coord. in units 2pi/alat
        k(    1) = (   0.0000000   0.0000000   0.0000000), wk =   0.0392157
        k(    2) = (  -0.0158729   0.0274930   0.0000000), wk =   0.0392157
        k(    3) = (  -0.0317457   0.0549860   0.0000000), wk =   0.0392157
        k(    4) = (  -0.0476186   0.0824789   0.0000000), wk =   0.0392157
        k(    5) = (  -0.0634914   0.1099719   0.0000000), wk =   0.0392157
        k(    6) = (  -0.0793643   0.1374649   0.0000000), wk =   0.0392157
        k(    7) = (  -0.0952371   0.1649579   0.0000000), wk =   0.0392157
        k(    8) = (  -0.1111100   0.1924509   0.0000000), wk =   0.0392157
        k(    9) = (  -0.1269829   0.2199438   0.0000000), wk =   0.0392157
        k(   10) = (  -0.1428557   0.2474368   0.0000000), wk =   0.0392157
        k(   11) = (  -0.1587286   0.2749298   0.0000000), wk =   0.0392157
        k(   12) = (  -0.1746014   0.3024228   0.0000000), wk =   0.0392157
        k(   13) = (  -0.1904743   0.3299158   0.0000000), wk =   0.0392157
        k(   14) = (  -0.2063471   0.3574087   0.0000000), wk =   0.0392157
        k(   15) = (  -0.2222200   0.3849017   0.0000000), wk =   0.0392157
        k(   16) = (  -0.2380929   0.4123947   0.0000000), wk =   0.0392157
        k(   17) = (  -0.2539657   0.4398877   0.0000000), wk =   0.0392157
        k(   18) = (  -0.2698386   0.4673807   0.0000000), wk =   0.0392157
        k(   19) = (  -0.2857114   0.4948736   0.0000000), wk =   0.0392157
        k(   20) = (  -0.3015843   0.5223666   0.0000000), wk =   0.0392157
        k(   21) = (  -0.3174571   0.5498596   0.0000000), wk =   0.0392157
        k(   22) = (  -0.3333300   0.5773526   0.0000000), wk =   0.0392157
        k(   23) = (  -0.3030273   0.5773524   0.0000000), wk =   0.0392157
        k(   24) = (  -0.2727245   0.5773522   0.0000000), wk =   0.0392157
        k(   25) = (  -0.2424218   0.5773519   0.0000000), wk =   0.0392157
        k(   26) = (  -0.2121191   0.5773517   0.0000000), wk =   0.0392157
        k(   27) = (  -0.1818164   0.5773515   0.0000000), wk =   0.0392157
        k(   28) = (  -0.1515136   0.5773513   0.0000000), wk =   0.0392157
        k(   29) = (  -0.1212109   0.5773511   0.0000000), wk =   0.0392157
        k(   30) = (  -0.0909082   0.5773509   0.0000000), wk =   0.0392157
        k(   31) = (  -0.0606055   0.5773507   0.0000000), wk =   0.0392157
        k(   32) = (  -0.0303027   0.5773505   0.0000000), wk =   0.0392157
        k(   33) = (   0.0000000   0.5773503   0.0000000), wk =   0.0392157
        k(   34) = (   0.0000000   0.5452753   0.0000000), wk =   0.0392157
        k(   35) = (   0.0000000   0.5132002   0.0000000), wk =   0.0392157
        k(   36) = (   0.0000000   0.4811252   0.0000000), wk =   0.0392157
        k(   37) = (   0.0000000   0.4490502   0.0000000), wk =   0.0392157
        k(   38) = (   0.0000000   0.4169752   0.0000000), wk =   0.0392157
        k(   39) = (   0.0000000   0.3849002   0.0000000), wk =   0.0392157
        k(   40) = (   0.0000000   0.3528252   0.0000000), wk =   0.0392157
        k(   41) = (   0.0000000   0.3207501   0.0000000), wk =   0.0392157
        k(   42) = (   0.0000000   0.2886751   0.0000000), wk =   0.0392157
        k(   43) = (   0.0000000   0.2566001   0.0000000), wk =   0.0392157
        k(   44) = (   0.0000000   0.2245251   0.0000000), wk =   0.0392157
        k(   45) = (   0.0000000   0.1924501   0.0000000), wk =   0.0392157
        k(   46) = (   0.0000000   0.1603751   0.0000000), wk =   0.0392157
        k(   47) = (   0.0000000   0.1283001   0.0000000), wk =   0.0392157
        k(   48) = (   0.0000000   0.0962250   0.0000000), wk =   0.0392157
        k(   49) = (   0.0000000   0.0641500   0.0000000), wk =   0.0392157
        k(   50) = (   0.0000000   0.0320750   0.0000000), wk =   0.0392157
        k(   51) = (   0.0000000   0.0000000   0.0000000), wk =   0.0392157

                       cryst. coord.
        k(    1) = (   0.0000000   0.0000000   0.0000000), wk =   0.0392157
        k(    2) = (  -0.0158729   0.0317460   0.0000000), wk =   0.0392157
        k(    3) = (  -0.0317457   0.0634921   0.0000000), wk =   0.0392157
        k(    4) = (  -0.0476186   0.0952381   0.0000000), wk =   0.0392157
        k(    5) = (  -0.0634914   0.1269842   0.0000000), wk =   0.0392157
        k(    6) = (  -0.0793643   0.1587302   0.0000000), wk =   0.0392157
        k(    7) = (  -0.0952371   0.1904763   0.0000000), wk =   0.0392157
        k(    8) = (  -0.1111100   0.2222223   0.0000000), wk =   0.0392157
        k(    9) = (  -0.1269829   0.2539684   0.0000000), wk =   0.0392157
        k(   10) = (  -0.1428557   0.2857144   0.0000000), wk =   0.0392157
        k(   11) = (  -0.1587286   0.3174605   0.0000000), wk =   0.0392157
        k(   12) = (  -0.1746014   0.3492065   0.0000000), wk =   0.0392157
        k(   13) = (  -0.1904743   0.3809526   0.0000000), wk =   0.0392157
        k(   14) = (  -0.2063471   0.4126986   0.0000000), wk =   0.0392157
        k(   15) = (  -0.2222200   0.4444447   0.0000000), wk =   0.0392157
        k(   16) = (  -0.2380929   0.4761907   0.0000000), wk =   0.0392157
        k(   17) = (  -0.2539657   0.5079368   0.0000000), wk =   0.0392157
        k(   18) = (  -0.2698386   0.5396828   0.0000000), wk =   0.0392157
        k(   19) = (  -0.2857114   0.5714289   0.0000000), wk =   0.0392157
        k(   20) = (  -0.3015843   0.6031749   0.0000000), wk =   0.0392157
        k(   21) = (  -0.3174571   0.6349210   0.0000000), wk =   0.0392157
        k(   22) = (  -0.3333300   0.6666670   0.0000000), wk =   0.0392157
        k(   23) = (  -0.3030273   0.6515155   0.0000000), wk =   0.0392157
        k(   24) = (  -0.2727245   0.6363639   0.0000000), wk =   0.0392157
        k(   25) = (  -0.2424218   0.6212124   0.0000000), wk =   0.0392157
        k(   26) = (  -0.2121191   0.6060608   0.0000000), wk =   0.0392157
        k(   27) = (  -0.1818164   0.5909093   0.0000000), wk =   0.0392157
        k(   28) = (  -0.1515136   0.5757577   0.0000000), wk =   0.0392157
        k(   29) = (  -0.1212109   0.5606062   0.0000000), wk =   0.0392157
        k(   30) = (  -0.0909082   0.5454546   0.0000000), wk =   0.0392157
        k(   31) = (  -0.0606055   0.5303031   0.0000000), wk =   0.0392157
        k(   32) = (  -0.0303027   0.5151515   0.0000000), wk =   0.0392157
        k(   33) = (   0.0000000   0.5000000   0.0000000), wk =   0.0392157
        k(   34) = (   0.0000000   0.4722222   0.0000000), wk =   0.0392157
        k(   35) = (   0.0000000   0.4444444   0.0000000), wk =   0.0392157
        k(   36) = (   0.0000000   0.4166667   0.0000000), wk =   0.0392157
        k(   37) = (   0.0000000   0.3888889   0.0000000), wk =   0.0392157
        k(   38) = (   0.0000000   0.3611111   0.0000000), wk =   0.0392157
        k(   39) = (   0.0000000   0.3333333   0.0000000), wk =   0.0392157
        k(   40) = (   0.0000000   0.3055556   0.0000000), wk =   0.0392157
        k(   41) = (   0.0000000   0.2777778   0.0000000), wk =   0.0392157
        k(   42) = (   0.0000000   0.2500000   0.0000000), wk =   0.0392157
        k(   43) = (   0.0000000   0.2222222   0.0000000), wk =   0.0392157
        k(   44) = (   0.0000000   0.1944444   0.0000000), wk =   0.0392157
        k(   45) = (   0.0000000   0.1666667   0.0000000), wk =   0.0392157
        k(   46) = (   0.0000000   0.1388889   0.0000000), wk =   0.0392157
        k(   47) = (   0.0000000   0.1111111   0.0000000), wk =   0.0392157
        k(   48) = (   0.0000000   0.0833333   0.0000000), wk =   0.0392157
        k(   49) = (   0.0000000   0.0555556   0.0000000), wk =   0.0392157
        k(   50) = (   0.0000000   0.0277778   0.0000000), wk =   0.0392157
        k(   51) = (   0.0000000   0.0000000   0.0000000), wk =   0.0392157

     Dense  grid:    46525 G-vectors     FFT dimensions: (  24,  24, 192)

     Dynamical RAM for                 wfc:       0.22 MB

     Dynamical RAM for     wfc (w. buffer):       0.22 MB

     Dynamical RAM for           str. fact:       0.18 MB

     Dynamical RAM for           local pot:       0.00 MB

     Dynamical RAM for          nlocal pot:       0.35 MB

     Dynamical RAM for                qrad:       0.71 MB

     Dynamical RAM for          rho,v,vnew:       0.58 MB

     Dynamical RAM for           G-vectors:       0.38 MB

     Dynamical RAM for          h,s,v(r/c):       0.07 MB

     Dynamical RAM for          <psi|beta>:       0.01 MB

     Dynamical RAM for                 psi:       0.44 MB

     Dynamical RAM for                hpsi:       0.44 MB

     Dynamical RAM for      wfcinit/wfcrot:       0.45 MB

     Estimated static dynamical RAM per process >       3.22 MB

     Estimated max dynamical RAM per process >       4.19 MB

     Estimated total dynamical RAM >      33.51 MB

     The potential is recalculated from file :
     ./tmp/BN2L_AA_PBE_vdW.save/charge-density


     negative rho (up, down):  7.742E-06 0.000E+00


     %%%%%%%%%%%%%%%%%%%%%%%%%%%%%%%%%%%%%%%%%%%%%%%%%%%%%%%%%%%%%%%%%%%%%%%%
     %                                                                      %
     % You are using vdW-DF, which was implemented by the Thonhauser group. %
     % Please cite the following two papers that made this development      %
     % possible and the two reviews that describe the various versions:     %
     %                                                                      %
     %   T. Thonhauser et al., PRL 115, 136402 (2015).                      %
     %   T. Thonhauser et al., PRB 76, 125112 (2007).                       %
     %   K. Berland et al., Rep. Prog. Phys. 78, 066501 (2015).             %
     %   D.C. Langreth et al., J. Phys.: Condens. Matter 21, 084203 (2009). %
     %                                                                      %
     % If you are calculating stress with vdW-DF, please also cite:         %
     %                                                                      %
     %   R. Sabatini et al., J. Phys.: Condens. Matter 24, 424209 (2012).   %
     %                                                                      %
     %%%%%%%%%%%%%%%%%%%%%%%%%%%%%%%%%%%%%%%%%%%%%%%%%%%%%%%%%%%%%%%%%%%%%%%%

     %%%%%%%%%%%%%%%%%%%%%%%%%%%%%%%%%%%%%%%%%%%%%%%%%%%%%%%%%%%%%%%%%%%%%%%%
     %                                                                      %
     %  vdW-DF NEWS:                                                        %
     %                                                                      %
     %  * vdW-DF3 is now available. DOI: 10.1021/acs.jctc.0c00471           %
     %    use with input_dft = 'vdW-DF3-opt1' or 'vdW-DF3-opt2'             %
     %                                                                      %
     %  * Unscreened and range-separated hybrid vdW-DF-cx functionals       %
     %    DOI: 10.1063/1.4986522 and 10.1088/1361-648X/ac2ad2               %
     %    use with input_dft = 'vdW-DF-cx0'    and 'vdW-DF-ahcx'            %
     %  * Unscreened and range-separated hybrid vdW-DF2-b86r functionals    %
     %    DOI: 10.1063/1.4986522 and DOI: 10.1103/PhysRevX.12.041003        %
     %    use with input_dft = 'vdW-DF2-br0' and 'vdW-DF2-ahbr'             %
     %                                                                      %
     %%%%%%%%%%%%%%%%%%%%%%%%%%%%%%%%%%%%%%%%%%%%%%%%%%%%%%%%%%%%%%%%%%%%%%%%


     Carrying out vdW-DF run using the following parameters:
     Nqs    =  20  Npoints =  1024  r_max =  100.000
     q_mesh =  0.00001000  0.04494208  0.09755937  0.15916263
               0.23128650  0.31572767  0.41458969  0.53033537
               0.66584808  0.82450364  1.01025438  1.22772762
               1.48234092  1.78043706  2.12944203  2.53805004
               3.01644009  3.57652955  4.23227104  5.00000000


     -----------------------------------------------
     Non-local corr. energy    =       0.20411289 Ry
     -----------------------------------------------

     Starting wfcs are   16 randomized atomic wfcs +    4 random wfcs

     Band Structure Calculation
     Davidson diagonalization with overlap

     Computing kpt #:     1  of    51
     total cpu time spent up to now is       11.2 secs

     Computing kpt #:     2  of    51
     total cpu time spent up to now is       11.6 secs

     Computing kpt #:     3  of    51
     total cpu time spent up to now is       12.0 secs

     Computing kpt #:     4  of    51
     total cpu time spent up to now is       12.3 secs

     Computing kpt #:     5  of    51
     total cpu time spent up to now is       12.8 secs

     Computing kpt #:     6  of    51
     total cpu time spent up to now is       13.2 secs

     Computing kpt #:     7  of    51
     total cpu time spent up to now is       13.6 secs

     Computing kpt #:     8  of    51
     total cpu time spent up to now is       14.0 secs

     Computing kpt #:     9  of    51
     total cpu time spent up to now is       14.3 secs

     Computing kpt #:    10  of    51
     total cpu time spent up to now is       14.7 secs

     Computing kpt #:    11  of    51
     total cpu time spent up to now is       15.1 secs

     Computing kpt #:    12  of    51
     total cpu time spent up to now is       15.6 secs

     Computing kpt #:    13  of    51
     total cpu time spent up to now is       16.0 secs

     Computing kpt #:    14  of    51
     total cpu time spent up to now is       16.3 secs

     Computing kpt #:    15  of    51
     total cpu time spent up to now is       16.6 secs

     Computing kpt #:    16  of    51
     total cpu time spent up to now is       16.8 secs

     Computing kpt #:    17  of    51
     total cpu time spent up to now is       17.1 secs

     Computing kpt #:    18  of    51
     total cpu time spent up to now is       17.5 secs

     Computing kpt #:    19  of    51
     total cpu time spent up to now is       17.8 secs

     Computing kpt #:    20  of    51
     total cpu time spent up to now is       18.1 secs

     Computing kpt #:    21  of    51
     total cpu time spent up to now is       18.5 secs

     Computing kpt #:    22  of    51
     total cpu time spent up to now is       19.0 secs

     Computing kpt #:    23  of    51
     total cpu time spent up to now is       19.3 secs

     Computing kpt #:    24  of    51
     total cpu time spent up to now is       19.6 secs

     Computing kpt #:    25  of    51
     total cpu time spent up to now is       19.9 secs

     Computing kpt #:    26  of    51
     total cpu time spent up to now is       20.3 secs

     Computing kpt #:    27  of    51
     total cpu time spent up to now is       20.6 secs

     Computing kpt #:    28  of    51
     total cpu time spent up to now is       20.9 secs

     Computing kpt #:    29  of    51
     total cpu time spent up to now is       21.3 secs

     Computing kpt #:    30  of    51
     total cpu time spent up to now is       21.8 secs

     Computing kpt #:    31  of    51
     total cpu time spent up to now is       22.3 secs

     Computing kpt #:    32  of    51
     total cpu time spent up to now is       22.7 secs

     Computing kpt #:    33  of    51
     total cpu time spent up to now is       23.0 secs

     Computing kpt #:    34  of    51
     total cpu time spent up to now is       23.3 secs

     Computing kpt #:    35  of    51
     total cpu time spent up to now is       23.6 secs

     Computing kpt #:    36  of    51
     total cpu time spent up to now is       23.9 secs

     Computing kpt #:    37  of    51
     total cpu time spent up to now is       24.1 secs

     Computing kpt #:    38  of    51
     total cpu time spent up to now is       24.4 secs

     Computing kpt #:    39  of    51
     total cpu time spent up to now is       24.7 secs

     Computing kpt #:    40  of    51
     total cpu time spent up to now is       25.1 secs

     Computing kpt #:    41  of    51
     total cpu time spent up to now is       25.4 secs

     Computing kpt #:    42  of    51
     total cpu time spent up to now is       25.8 secs

     Computing kpt #:    43  of    51
     total cpu time spent up to now is       26.2 secs

     Computing kpt #:    44  of    51
     total cpu time spent up to now is       26.7 secs

     Computing kpt #:    45  of    51
     total cpu time spent up to now is       27.2 secs

     Computing kpt #:    46  of    51
     total cpu time spent up to now is       27.6 secs

     Computing kpt #:    47  of    51
     total cpu time spent up to now is       28.0 secs

     Computing kpt #:    48  of    51
     total cpu time spent up to now is       28.3 secs

     Computing kpt #:    49  of    51
     total cpu time spent up to now is       28.7 secs

     Computing kpt #:    50  of    51
     total cpu time spent up to now is       29.1 secs

     Computing kpt #:    51  of    51
     total cpu time spent up to now is       29.4 secs

     ethr =  6.25E-09,  avg # of iterations = 51.4

     total cpu time spent up to now is       29.4 secs

     End of band structure calculation

          k = 0.0000 0.0000 0.0000 (  5775 PWs)   bands (ev):

   -20.0978 -20.0099  -8.0772  -7.2997  -3.8498  -3.8497  -3.8392  -3.8392
     1.9483   2.5277   3.5688   4.5177   4.7188   6.4561   7.3352   9.1428
     9.1429   9.1847   9.1893   9.1894

          k =-0.0159 0.0275 0.0000 (  5783 PWs)   bands (ev):

   -20.0834 -19.9954  -8.0571  -7.2806  -3.9141  -3.9018  -3.8797  -3.8687
     1.9742   2.5512   3.5930   4.5394   4.7426   6.4735   7.3591   9.1189
     9.1755   9.1977   9.2146   9.2544

          k =-0.0317 0.0550 0.0000 (  5783 PWs)   bands (ev):

   -20.0398 -19.9524  -7.9976  -7.2235  -4.0979  -4.0831  -3.9670  -3.9558
     2.0510   2.6214   3.6653   4.6029   4.8137   6.5245   7.4292   9.0803
     9.1436   9.2274   9.4020   9.4321

          k =-0.0476 0.0825 0.0000 (  5773 PWs)   bands (ev):

   -19.9675 -19.8808  -7.8988  -7.1286  -4.3870  -4.3677  -4.1095  -4.0975
     2.1767   2.7376   3.7851   4.7061   4.9315   6.6066   7.5415   9.0453
     9.1150   9.2459   9.6639   9.6975

          k =-0.0635 0.1100 0.0000 (  5767 PWs)   bands (ev):

   -19.8668 -19.7812  -7.7609  -6.9964  -4.7627  -4.7376  -4.3037  -4.2908
     2.3491   2.8988   3.9516   4.8449   5.0952   6.7145   7.6907   9.0240
     9.1048   9.2500   9.7685  10.0644

          k =-0.0794 0.1375 0.0000 (  5770 PWs)   bands (ev):

   -19.7385 -19.6542  -7.5846  -6.8278  -5.2018  -5.1715  -4.5443  -4.5305
     2.5666   3.1038   4.1638   5.0131   5.3035   6.8389   7.8677   9.0190
     9.1132   9.2376   9.5725  10.2577

          k =-0.0952 0.1650 0.0000 (  5772 PWs)   bands (ev):

   -19.5832 -19.5007  -7.3713  -6.6242  -5.6841  -5.6492  -4.8255  -4.8099
     2.8283   3.3512   4.4198   5.2004   5.5548   6.9647   8.0476   9.0200
     9.0752   9.2327   9.3668  10.4674

          k =-0.1111 0.1925 0.0000 (  5772 PWs)   bands (ev):

   -19.4023 -19.3217  -7.1228  -6.3939  -6.1919  -6.1464  -5.1402  -5.1225
     3.1336   3.6387   4.7152   5.3885   5.8456   7.0728   8.1306   8.9255
     9.0155   9.2825   9.3942  10.6936

          k =-0.1270 0.2199 0.0000 (  5786 PWs)   bands (ev):

   -19.1972 -19.1189  -6.8589  -6.6935  -6.6805  -6.1074  -5.4817  -5.4614
     3.4824   3.9622   5.0335   5.5502   6.1663   7.1590   7.9366   8.9979
     9.0527   9.3972   9.5370  10.9351

          k =-0.1429 0.2474 0.0000 (  5804 PWs)   bands (ev):

   -18.9699 -18.8941  -7.2459  -7.1975  -6.5121  -5.8426  -5.8336  -5.7947
     3.8741   4.3129   5.2780   5.7128   6.4799   7.2668   7.6058   9.1872
     9.2689   9.5636   9.7382  11.1929

          k =-0.1587 0.2749 0.0000 (  5806 PWs)   bands (ev):

   -18.7227 -18.6497  -7.7567  -7.7065  -6.2256  -6.1915  -6.1576  -5.4794
     4.3086   4.6677   5.2262   6.0477   6.6184   7.4645   7.4663   9.4259
     9.6188   9.7719   9.9869  11.4681

          k =-0.1746 0.3024 0.0000 (  5808 PWs)   bands (ev):

   -18.4590 -18.3891  -8.2503  -8.1973  -6.5995  -6.5689  -5.7908  -5.1274
     4.7851   4.9415   4.9543   6.4705   6.5094   7.7469   7.7700   9.7424
    10.0100  10.0153  10.2760  11.7623

          k =-0.1905 0.3299 0.0000 (  5830 PWs)   bands (ev):

   -18.1830 -18.1166  -8.7167  -8.6616  -6.9824  -6.9479  -5.3947  -4.7567
     4.5427   4.9957   5.3036   6.4622   7.0349   8.1570   8.2184  10.0930
    10.2919  10.4240  10.5987  11.9765

          k =-0.2063 0.3574 0.0000 (  5840 PWs)   bands (ev):

   -17.9001 -17.8373  -9.1474  -9.0902  -7.3620  -7.3231  -4.9817  -4.3735
     4.0945   4.7314   5.8616   6.7786   7.6088   8.5933   8.7674  10.3993
    10.6217  10.8290  10.9632  12.0837

          k =-0.2222 0.3849 0.0000 (  5856 PWs)   bands (ev):

   -17.6172 -17.5584  -9.5329  -9.4739  -7.7341  -7.6909  -4.5606  -3.9860
     3.6346   4.3383   6.4573   7.2758   8.2207   9.0441   9.3682  10.6016
    10.9868  11.1652  11.3980  12.2427

          k =-0.2381 0.4124 0.0000 (  5854 PWs)   bands (ev):

   -17.3429 -17.2885  -9.8631  -9.8029  -8.0945  -8.0469  -4.1417  -3.6045
     3.1895   3.9280   7.0871   7.8564   8.8434   9.4611  10.0095  10.7189
    11.3339  11.4220  11.8766  12.5181

          k =-0.2540 0.4399 0.0000 (  5854 PWs)   bands (ev):

   -17.0881 -17.0377 -10.1282 -10.0664  -8.4401  -8.3875  -3.7392  -3.2434
     2.7795   3.5444   7.7444   8.4808   9.3218   9.8712  10.6794  10.8608
    11.5722  11.6704  12.3707  12.8759

          k =-0.2698 0.4674 0.0000 (  5838 PWs)   bands (ev):

   -16.8641 -16.8174 -10.3166 -10.2548  -8.7668  -8.7091  -3.3710  -2.9183
     2.4244   3.2132   8.4172   9.1199   9.3873  10.4750  11.1028  11.3503
    11.5883  12.0497  12.8364  13.1561

          k =-0.2857 0.4949 0.0000 (  5832 PWs)   bands (ev):

   -16.6825 -16.6391 -10.4202 -10.3599  -9.0700  -9.0069  -3.0600  -2.6483
     2.1412   2.9510   9.0742   9.2519   9.7277  11.0269  11.4908  11.5012
    12.0003  12.4910  13.1781  13.2508

          k =-0.3016 0.5224 0.0000 (  5806 PWs)   bands (ev):

   -16.5521 -16.5111 -10.4388 -10.3815  -9.3407  -9.2712  -2.8275  -2.4491
     1.9440   2.7694   9.0701   9.6805  10.2073  11.2725  11.4591  12.2007
    12.4849  12.7498  13.4183  13.5213

          k =-0.3175 0.5499 0.0000 (  5824 PWs)   bands (ev):

   -16.4766 -16.4371 -10.3923 -10.3408  -9.5576  -9.4803  -2.6893  -2.3315
     1.8357   2.6693   8.9435  10.0857  10.4345  11.4870  11.5757  12.4581
    12.7271  13.1254  13.8314  13.9253

          k =-0.3333 0.5774 0.0000 (  5826 PWs)   bands (ev):

   -16.4529 -16.4140 -10.3497 -10.3032  -9.6543  -9.5722  -2.6458  -2.2945
     1.8050   2.6403   8.8960  10.2111  10.4727  11.6605  11.6742  12.3063
    12.7735  13.7947  13.9359  14.0928

          k =-0.3030 0.5774 0.0000 (  5824 PWs)   bands (ev):

   -16.4714 -16.4321 -10.4072 -10.3552  -9.5518  -9.4750  -2.6793  -2.3233
     1.8237   2.6594   8.9428  10.1319  10.4662  11.4777  11.5652  12.4045
    12.7492  13.5031  13.6420  13.7748

          k =-0.2727 0.5774 0.0000 (  5812 PWs)   bands (ev):

   -16.5199 -16.4796 -10.5403 -10.4801  -9.2921  -9.2247  -2.7656  -2.3987
     1.8617   2.7020   9.0833   9.9411  10.4618  11.1530  11.2899  12.3539
    12.6055  13.1945  13.2984  13.4132

          k =-0.2424 0.5774 0.0000 (  5808 PWs)   bands (ev):

   -16.5882 -16.5467 -10.6920 -10.6256  -8.9490  -8.8900  -2.8844  -2.5030
     1.8971   2.7493   9.2976   9.6812  10.4413  10.8263  10.9290  12.0750
    12.2467  12.8583  12.9895  13.1995

          k =-0.2121 0.5774 0.0000 (  5836 PWs)   bands (ev):

   -16.6669 -16.6244 -10.8388 -10.7676  -8.5635  -8.5125  -3.0178  -2.6217
     1.9177   2.7890   9.2735   9.6482  10.2634  10.5342  10.6268  11.7169
    11.8057  12.5442  12.6801  13.0772

          k =-0.1818 0.5774 0.0000 (  5824 PWs)   bands (ev):

   -16.7479 -16.7044 -10.9711 -10.8960  -8.1619  -8.1176  -3.1514  -2.7418
     1.9211   2.8156   8.8806   9.7890   9.9332  10.3012  10.5290  11.3717
    11.4205  12.2693  12.3992  12.9650

          k =-0.1515 0.5774 0.0000 (  5814 PWs)   bands (ev):

   -16.8252 -16.7808 -11.0854 -11.0072  -7.7668  -7.7288  -3.2763  -2.8547
     1.9099   2.8288   8.4359   9.2328  10.0191  10.2952  10.4640  11.0983
    11.1216  12.0371  12.1619  12.8497

          k =-0.1212 0.5774 0.0000 (  5836 PWs)   bands (ev):

   -16.8943 -16.8492 -11.1804 -11.0999  -7.3995  -7.3678  -3.3859  -2.9552
     1.8898   2.8313   7.9917   8.6952   9.8815  10.3938  10.4245  10.8986
    10.9693  11.8482  11.9723  12.7398

          k =-0.0909 0.5774 0.0000 (  5836 PWs)   bands (ev):

   -16.9511 -16.9055 -11.2546 -11.1724  -7.0818  -7.0555  -3.4749  -3.0371
     1.8672   2.8275   7.5925   8.2281   9.7617  10.3244  10.3888  10.7380
    11.0125  11.7025  11.8317  12.6453

          k =-0.0606 0.5774 0.0000 (  5820 PWs)   bands (ev):

   -16.9934 -16.9472 -11.3080 -11.2244  -6.8349  -6.8132  -3.5399  -3.0972
     1.8476   2.8216   7.2765   7.8680   9.6753  10.2660  10.3009  10.6300
    11.0892  11.5993  11.7393  12.5734

          k =-0.0303 0.5774 0.0000 (  5810 PWs)   bands (ev):

   -17.0194 -16.9730 -11.3398 -11.2558  -6.6778  -6.6591  -3.5797  -3.1341
     1.8340   2.8166   7.0742   7.6407   9.6235  10.2272  10.2371  10.5677
    11.1327  11.5378  11.6896  12.5285

          k = 0.0000 0.5774 0.0000 (  5820 PWs)   bands (ev):

   -17.0282 -16.9818 -11.3505 -11.2663  -6.6240  -6.6068  -3.5934  -3.1467
     1.8290   2.8146   7.0044   7.5629   9.6062  10.2137  10.2148  10.5474
    11.1450  11.5173  11.6744  12.5133

          k = 0.0000 0.5453 0.0000 (  5846 PWs)   bands (ev):

   -17.0728 -17.0255 -11.2817 -11.1985  -6.6081  -6.5909  -3.6700  -3.2118
     1.9263   2.8993   6.9626   7.5535   9.2030   9.6213  10.4357  10.8508
    11.1707  11.1957  11.7891  12.2440

          k = 0.0000 0.5132 0.0000 (  5846 PWs)   bands (ev):

   -17.1997 -17.1497 -11.0810 -10.9999  -6.5608  -6.5435  -3.8827  -3.3949
     2.2011   3.1398   6.8243   7.5155   8.6687   8.9561   9.8765  10.5544
    11.0000  11.6061  11.9942  12.1715

          k = 0.0000 0.4811 0.0000 (  5836 PWs)   bands (ev):

   -17.3918 -17.3380 -10.7664 -10.6889  -6.4826  -6.4650  -4.1932  -3.6672
     2.6109   3.5026   6.5621   7.4004   8.2303   8.4094   9.1945  10.0997
    10.2928  11.7219  12.3233  12.7083

          k = 0.0000 0.4491 0.0000 (  5854 PWs)   bands (ev):

   -17.6286 -17.5708 -10.3603 -10.2869  -6.3745  -6.3571  -4.5628  -3.9974
     3.1080   3.9430   6.1772   7.1205   7.8771   8.0812   8.5829   9.6357
     9.6476  11.2301  12.3154  12.9484

          k = 0.0000 0.4170 0.0000 (  5848 PWs)   bands (ev):

   -17.8909 -17.8290  -9.8832  -9.8143  -6.2377  -6.2205  -4.9597  -4.3584
     3.6500   4.4058   5.7171   6.7211   7.4953   7.9381   8.1144   9.0499
     9.2545  10.7410  11.7288  13.2467

          k = 0.0000 0.3849 0.0000 (  5834 PWs)   bands (ev):

   -18.1640 -18.0983  -9.3532  -9.2887  -6.0739  -6.0571  -5.3625  -4.7297
     4.1948   4.7879   5.2327   6.3910   7.0219   7.7931   7.8207   8.5850
     8.9564  10.2881  11.1771  13.0990

          k = 0.0000 0.3528 0.0000 (  5824 PWs)   bands (ev):

   -18.4366 -18.3673  -8.7854  -8.7248  -5.8860  -5.8694  -5.7573  -5.0970
     4.6899   4.7595   4.8870   6.3486   6.5280   7.5306   7.5961   8.3354
     8.7634   9.8931  10.6716  12.7970

          k = 0.0000 0.3208 0.0000 (  5818 PWs)   bands (ev):

   -18.7004 -18.6279  -8.1927  -8.1367  -6.1335  -5.6771  -5.6613  -5.4501
     4.3004   4.6658   5.0789   6.0712   6.5400   7.3126   7.3639   8.2689
     8.6515   9.5795  10.2209  12.4766

          k = 0.0000 0.2887 0.0000 (  5810 PWs)   bands (ev):

   -18.9497 -18.8743  -7.5881  -7.5361  -6.4840  -5.7816  -5.4512  -5.4361
     3.8783   4.3290   5.2286   5.7159   6.4763   7.1761   7.4988   8.2689
     8.5897   9.3708   9.8382  12.1830

          k = 0.0000 0.2566 0.0000 (  5786 PWs)   bands (ev):

   -19.1802 -19.1020  -6.9958  -6.9348  -6.7913  -6.0858  -5.2131  -5.1985
     3.4926   3.9816   5.0409   5.5400   6.1799   7.1172   7.8722   8.2970
     8.5754   9.2729   9.5481  11.9407

          k = 0.0000 0.2245 0.0000 (  5786 PWs)   bands (ev):

   -19.3887 -19.3083  -7.1048  -6.4052  -6.3766  -6.3004  -4.9694  -4.9556
     3.1461   3.6565   4.7310   5.3876   5.8613   7.0626   8.0659   8.4690
     8.6226   9.2580   9.3935  11.6604

          k = 0.0000 0.1925 0.0000 (  5770 PWs)   bands (ev):

   -19.5728 -19.4905  -7.3572  -6.6110  -5.8079  -5.7713  -4.7271  -4.7141
     2.8404   3.3658   4.4342   5.2053   5.5687   6.9674   7.9963   8.7161
     8.7379   9.2810   9.4307  11.2553

          k = 0.0000 0.1604 0.0000 (  5768 PWs)   bands (ev):

   -19.7310 -19.6469  -7.5747  -6.8185  -5.2778  -5.2464  -4.4953  -4.4832
     2.5767   3.1148   4.1749   5.0195   5.3143   6.8445   7.8494   8.8214
     8.8982   9.3016   9.6449  10.6943

          k = 0.0000 0.1283 0.0000 (  5780 PWs)   bands (ev):

   -19.8621 -19.7766  -7.7543  -6.9902  -4.8045  -4.7789  -4.2851  -4.2739
     2.3564   2.9062   3.9592   4.8504   5.1025   6.7193   7.6886   8.9188
     8.9943   9.2992   9.8975  10.1606

          k = 0.0000 0.0962 0.0000 (  5778 PWs)   bands (ev):

   -19.9647 -19.8782  -7.8950  -7.1251  -4.4065  -4.3869  -4.1050  -4.0945
     2.1811   2.7419   3.7895   4.7097   4.9358   6.6096   7.5437   9.0016
     9.0700   9.2752   9.7273   9.7741

          k = 0.0000 0.0642 0.0000 (  5785 PWs)   bands (ev):

   -20.0386 -19.9512  -7.9960  -7.2220  -4.1050  -4.0898  -3.9670  -3.9565
     2.0530   2.6233   3.6673   4.6047   4.8157   6.5260   7.4309   9.0679
     9.1316   9.2405   9.4066   9.4536

          k = 0.0000 0.0321 0.0000 (  5775 PWs)   bands (ev):

   -20.0830 -19.9951  -8.0566  -7.2802  -3.9151  -3.9034  -3.8797  -3.8690
     1.9747   2.5517   3.5935   4.5398   4.7431   6.4740   7.3596   9.1175
     9.1743   9.2060   9.2095   9.2567

          k = 0.0000 0.0000 0.0000 (  5775 PWs)   bands (ev):

   -20.0978 -20.0099  -8.0772  -7.2997  -3.8498  -3.8497  -3.8392  -3.8392
     1.9483   2.5277   3.5688   4.5177   4.7188   6.4561   7.3352   9.1428
     9.1429   9.1847   9.1893   9.1894

     Writing all to output data dir ./tmp/BN2L_AA_PBE_vdW.save/

     init_run     :     10.59s CPU     10.76s WALL (       1 calls)
     electrons    :     19.47s CPU     18.53s WALL (       1 calls)

     Called by init_run:
     wfcinit      :      0.00s CPU      0.00s WALL (       1 calls)
     wfcinit:atom :      0.01s CPU      0.01s WALL (      51 calls)
     wfcinit:wfcr :      0.51s CPU      0.52s WALL (      51 calls)
     potinit      :     10.21s CPU     10.37s WALL (       1 calls)
     hinit0       :      0.35s CPU      0.35s WALL (       1 calls)

     Called by electrons:
     c_bands      :     19.46s CPU     18.53s WALL (       1 calls)
     v_of_rho     :     10.21s CPU     10.37s WALL (       1 calls)
     v_h          :      0.00s CPU      0.00s WALL (       1 calls)
     v_xc         :     10.21s CPU     10.37s WALL (       1 calls)
     vdW_kernel   :     10.16s CPU     10.31s WALL (       1 calls)

     Called by c_bands:
     init_us_2    :      0.01s CPU      0.01s WALL (      51 calls)
     init_us_2:cp :      0.01s CPU      0.01s WALL (      51 calls)
     cegterg      :     18.89s CPU     17.95s WALL (     155 calls)

     Called by sum_band:

     Called by *egterg:
     cdiaghg      :      1.61s CPU      1.64s WALL (    2672 calls)
     cegterg:over :      2.03s CPU      1.56s WALL (    2621 calls)
     cegterg:upda :      1.29s CPU      1.09s WALL (    2621 calls)
     cegterg:last :      2.09s CPU      1.41s WALL (    1297 calls)
     h_psi        :     11.69s CPU     11.98s WALL (    2827 calls)
     g_psi        :      0.11s CPU      0.15s WALL (    2621 calls)

     Called by h_psi:
     h_psi:calbec :      0.90s CPU      0.91s WALL (    2827 calls)
     vloc_psi     :      9.70s CPU     10.13s WALL (    2827 calls)
     add_vuspsi   :      1.00s CPU      0.82s WALL (    2827 calls)

     General routines
     calbec       :      0.89s CPU      0.90s WALL (    2827 calls)
     fft          :      0.28s CPU      0.29s WALL (      61 calls)
     fftw         :      8.67s CPU      9.01s WALL (   51438 calls)
     davcio       :      0.00s CPU      0.01s WALL (     102 calls)

     Parallel routines

     PWSCF        :     30.28s CPU     29.60s WALL


   This run was terminated on:  16:38:38  17Apr2024            

=------------------------------------------------------------------------------=
   JOB DONE.
=------------------------------------------------------------------------------=
