
     Program PWSCF v.7.2 starts on 17Apr2024 at 14:35:14 

     This program is part of the open-source Quantum ESPRESSO suite
     for quantum simulation of materials; please cite
         "P. Giannozzi et al., J. Phys.:Condens. Matter 21 395502 (2009);
         "P. Giannozzi et al., J. Phys.:Condens. Matter 29 465901 (2017);
         "P. Giannozzi et al., J. Chem. Phys. 152 154105 (2020);
          URL http://www.quantum-espresso.org", 
     in publications or presentations arising from this work. More details at
     http://www.quantum-espresso.org/quote

     Parallel version (MPI & OpenMP), running on       8 processor cores
     Number of MPI processes:                 8
     Threads/MPI process:                     1

     MPI processes distributed on     1 nodes
     0 MiB available memory on the printing compute node when the environment starts

     Waiting for input...
     Reading input from standard input

     Current dimensions of program PWSCF are:
     Max number of different atomic species (ntypx) = 10
     Max number of k-points (npk) =  40000
     Max angular momentum in pseudopotentials (lmaxx) =  4

     IMPORTANT: XC functional enforced from input :
     Exchange-correlation= VDW-DF2-B86R
                           (   1   4  26   0   2   0   0)
     Any further DFT definition will be discarded
     Please, verify this is what you really want


     R & G space division:  proc/nbgrp/npool/nimage =       8
     Subspace diagonalization in iterative solution of the eigenvalue problem:
     a serial algorithm will be used


     Parallelization info
     --------------------
     sticks:   dense  smooth     PW     G-vecs:    dense   smooth      PW
     Min          93      93     26                16393    16393    2566
     Max          94      94     27                16428    16428    2595
     Sum         745     745    211               131209   131209   20621

     Using Slab Decomposition



     bravais-lattice index     =            4
     lattice parameter (alat)  =       4.7400  a.u.
     unit-cell volume          =     737.8289 (a.u.)^3
     number of atoms/cell      =            4
     number of atomic types    =            2
     number of electrons       =        16.00
     number of Kohn-Sham states=           12
     kinetic-energy cutoff     =     120.0000  Ry
     charge density cutoff     =     480.0000  Ry
     scf convergence threshold =      1.0E-06
     mixing beta               =       0.7000
     number of iterations used =            8  plain     mixing
     energy convergence thresh.=      1.0E-04
     force convergence thresh. =      1.0E-03
     press convergence thresh. =      5.0E-01
     Exchange-correlation= VDW-DF2-B86R
                           (   1   4  26   0   2   0   0)
     nstep                     =           50


     celldm(1)=   4.740000  celldm(2)=   0.000000  celldm(3)=   8.000000
     celldm(4)=   0.000000  celldm(5)=   0.000000  celldm(6)=   0.000000

     crystal axes: (cart. coord. in units of alat)
               a(1) = (   1.000000   0.000000   0.000000 )  
               a(2) = (  -0.500000   0.866025   0.000000 )  
               a(3) = (   0.000000   0.000000   8.000000 )  

     reciprocal axes: (cart. coord. in units 2 pi/alat)
               b(1) = (  1.000000  0.577350 -0.000000 )  
               b(2) = (  0.000000  1.154701  0.000000 )  
               b(3) = (  0.000000 -0.000000  0.125000 )  


     PseudoPot. # 1 for B  read from file:
     ../../../../Pseudo/PBE/B.upf
     MD5 check sum: 72f82fc31bc892420d0cab7e25c88ab8
     Pseudo is Norm-conserving + core correction, Zval =  3.0
     Generated using ONCVPSP code by D. R. Hamann
     Using radial grid of 1534 points,  4 beta functions with: 
                l(1) =   0
                l(2) =   0
                l(3) =   1
                l(4) =   1

     PseudoPot. # 2 for N  read from file:
     ../../../../Pseudo/PBE/N.upf
     MD5 check sum: d34365f73bb0e2ee98afc20ec3e87676
     Pseudo is Norm-conserving + core correction, Zval =  5.0
     Generated using ONCVPSP code by D. R. Hamann
     Using radial grid of 1058 points,  4 beta functions with: 
                l(1) =   0
                l(2) =   0
                l(3) =   1
                l(4) =   1

     atomic species   valence    mass     pseudopotential
        B              3.00    10.00000     B ( 1.00)
        N              5.00    14.01100     N ( 1.00)

      6 Sym. Ops. (no inversion) found


                                    s                        frac. trans.

      isym =  1     identity                                     

 cryst.   s( 1) = (     1          0          0      )
                  (     0          1          0      )
                  (     0          0          1      )

 cart.    s( 1) = (  1.0000000  0.0000000  0.0000000 )
                  (  0.0000000  1.0000000  0.0000000 )
                  (  0.0000000  0.0000000  1.0000000 )


      isym =  2     120 deg rotation - cryst. axis [0,0,1]       

 cryst.   s( 2) = (     0          1          0      )
                  (    -1         -1          0      )
                  (     0          0          1      )

 cart.    s( 2) = ( -0.5000000 -0.8660254  0.0000000 )
                  (  0.8660254 -0.5000000  0.0000000 )
                  (  0.0000000  0.0000000  1.0000000 )


      isym =  3     120 deg rotation - cryst. axis [0,0,-1]      

 cryst.   s( 3) = (    -1         -1          0      )
                  (     1          0          0      )
                  (     0          0          1      )

 cart.    s( 3) = ( -0.5000000  0.8660254  0.0000000 )
                  ( -0.8660254 -0.5000000  0.0000000 )
                  (  0.0000000  0.0000000  1.0000000 )


      isym =  4     inv. 180 deg rotation - cart. axis [1,0,0]   

 cryst.   s( 4) = (    -1          0          0      )
                  (     1          1          0      )
                  (     0          0          1      )

 cart.    s( 4) = ( -1.0000000  0.0000000  0.0000000 )
                  (  0.0000000  1.0000000  0.0000000 )
                  (  0.0000000  0.0000000  1.0000000 )


      isym =  5     inv. 180 deg rotation - cryst. axis [0,1,0]  

 cryst.   s( 5) = (     1          1          0      )
                  (     0         -1          0      )
                  (     0          0          1      )

 cart.    s( 5) = (  0.5000000  0.8660254  0.0000000 )
                  (  0.8660254 -0.5000000  0.0000000 )
                  (  0.0000000  0.0000000  1.0000000 )


      isym =  6     inv. 180 deg rotation - cryst. axis [1,1,0]  

 cryst.   s( 6) = (     0         -1          0      )
                  (    -1          0          0      )
                  (     0          0          1      )

 cart.    s( 6) = (  0.5000000 -0.8660254  0.0000000 )
                  ( -0.8660254 -0.5000000  0.0000000 )
                  (  0.0000000  0.0000000  1.0000000 )


     point group C_3v (3m)  
     there are  3 classes
     the character table:

       E     2C3   3s_v 
A_1    1.00  1.00  1.00
A_2    1.00  1.00 -1.00
E      2.00 -1.00  0.00

     the symmetry operations in each class and the name of the first element:

     E        1
          identity                                               
     2C3      2    3
          120 deg rotation - cryst. axis [0,0,1]                 
     3s_v     4    5    6
          inv. 180 deg rotation - cart. axis [1,0,0]             

   Cartesian axes

     site n.     atom                  positions (alat units)
         1           B   tau(   1) = (   0.0000000   0.0000000   0.0000000  )
         2           N   tau(   2) = (  -0.0000003   0.5773502   0.0000000  )
         3           N   tau(   3) = (   0.0000000   0.0000000   1.3079920  )
         4           B   tau(   4) = (   0.5000005   0.2886748   1.3078480  )

   Crystallographic axes

     site n.     atom                  positions (cryst. coord.)
         1           B   tau(   1) = (  0.0000000  0.0000000  0.0000000  )
         2           N   tau(   2) = (  0.3333330  0.6666666  0.0000000  )
         3           N   tau(   3) = (  0.0000000  0.0000000  0.1634990  )
         4           B   tau(   4) = (  0.6666670  0.3333330  0.1634810  )

     number of k points=    19  Marzari-Vanderbilt smearing, width (Ry)=  0.0050
                       cart. coord. in units 2pi/alat
        k(    1) = (   0.0000000   0.0000000   0.0000000), wk =   0.0138889
        k(    2) = (   0.0000000   0.0962250   0.0000000), wk =   0.0833333
        k(    3) = (   0.0000000   0.1924501   0.0000000), wk =   0.0833333
        k(    4) = (   0.0000000   0.2886751   0.0000000), wk =   0.0833333
        k(    5) = (   0.0000000   0.3849002   0.0000000), wk =   0.0833333
        k(    6) = (   0.0000000   0.4811252   0.0000000), wk =   0.0833333
        k(    7) = (   0.0000000  -0.5773503   0.0000000), wk =   0.0416667
        k(    8) = (   0.0833333   0.1443376   0.0000000), wk =   0.0833333
        k(    9) = (   0.0833333   0.2405626   0.0000000), wk =   0.1666667
        k(   10) = (   0.0833333   0.3367877   0.0000000), wk =   0.1666667
        k(   11) = (   0.0833333   0.4330127   0.0000000), wk =   0.1666667
        k(   12) = (   0.0833333   0.5292377   0.0000000), wk =   0.1666667
        k(   13) = (   0.1666667   0.2886751   0.0000000), wk =   0.0833333
        k(   14) = (   0.1666667   0.3849002   0.0000000), wk =   0.1666667
        k(   15) = (   0.1666667   0.4811252   0.0000000), wk =   0.1666667
        k(   16) = (   0.1666667   0.5773503   0.0000000), wk =   0.0833333
        k(   17) = (   0.2500000   0.4330127   0.0000000), wk =   0.0833333
        k(   18) = (   0.2500000   0.5292377   0.0000000), wk =   0.1666667
        k(   19) = (   0.3333333   0.5773503   0.0000000), wk =   0.0277778

                       cryst. coord.
        k(    1) = (   0.0000000   0.0000000   0.0000000), wk =   0.0138889
        k(    2) = (   0.0000000   0.0833333   0.0000000), wk =   0.0833333
        k(    3) = (   0.0000000   0.1666667   0.0000000), wk =   0.0833333
        k(    4) = (   0.0000000   0.2500000   0.0000000), wk =   0.0833333
        k(    5) = (   0.0000000   0.3333333   0.0000000), wk =   0.0833333
        k(    6) = (   0.0000000   0.4166667   0.0000000), wk =   0.0833333
        k(    7) = (   0.0000000  -0.5000000   0.0000000), wk =   0.0416667
        k(    8) = (   0.0833333   0.0833333   0.0000000), wk =   0.0833333
        k(    9) = (   0.0833333   0.1666667   0.0000000), wk =   0.1666667
        k(   10) = (   0.0833333   0.2500000   0.0000000), wk =   0.1666667
        k(   11) = (   0.0833333   0.3333333   0.0000000), wk =   0.1666667
        k(   12) = (   0.0833333   0.4166667   0.0000000), wk =   0.1666667
        k(   13) = (   0.1666667   0.1666667   0.0000000), wk =   0.0833333
        k(   14) = (   0.1666667   0.2500000   0.0000000), wk =   0.1666667
        k(   15) = (   0.1666667   0.3333333   0.0000000), wk =   0.1666667
        k(   16) = (   0.1666667   0.4166667   0.0000000), wk =   0.0833333
        k(   17) = (   0.2500000   0.2500000   0.0000000), wk =   0.0833333
        k(   18) = (   0.2500000   0.3333333   0.0000000), wk =   0.1666667
        k(   19) = (   0.3333333   0.3333333   0.0000000), wk =   0.0277778

     Dense  grid:   131209 G-vectors     FFT dimensions: (  36,  36, 270)

     Dynamical RAM for                 wfc:       0.37 MB

     Dynamical RAM for     wfc (w. buffer):       7.50 MB

     Dynamical RAM for           str. fact:       0.50 MB

     Dynamical RAM for           local pot:       0.00 MB

     Dynamical RAM for          nlocal pot:       1.00 MB

     Dynamical RAM for                qrad:       2.01 MB

     Dynamical RAM for          rho,v,vnew:       1.76 MB

     Dynamical RAM for               rhoin:       0.59 MB

     Dynamical RAM for            rho*nmix:       4.00 MB

     Dynamical RAM for           G-vectors:       1.06 MB

     Dynamical RAM for          h,s,v(r/c):       0.03 MB

     Dynamical RAM for          <psi|beta>:       0.01 MB

     Dynamical RAM for                 psi:       0.75 MB

     Dynamical RAM for                hpsi:       0.75 MB

     Dynamical RAM for      wfcinit/wfcrot:       1.01 MB

     Estimated static dynamical RAM per process >      16.84 MB

     Estimated max dynamical RAM per process >      22.38 MB

     Estimated total dynamical RAM >     179.03 MB

     Initial potential from superposition of free atoms

     starting charge      15.9995, renormalised to      16.0000

     negative rho (up, down):  4.082E-06 0.000E+00


     %%%%%%%%%%%%%%%%%%%%%%%%%%%%%%%%%%%%%%%%%%%%%%%%%%%%%%%%%%%%%%%%%%%%%%%%
     %                                                                      %
     % You are using vdW-DF, which was implemented by the Thonhauser group. %
     % Please cite the following two papers that made this development      %
     % possible and the two reviews that describe the various versions:     %
     %                                                                      %
     %   T. Thonhauser et al., PRL 115, 136402 (2015).                      %
     %   T. Thonhauser et al., PRB 76, 125112 (2007).                       %
     %   K. Berland et al., Rep. Prog. Phys. 78, 066501 (2015).             %
     %   D.C. Langreth et al., J. Phys.: Condens. Matter 21, 084203 (2009). %
     %                                                                      %
     % If you are calculating stress with vdW-DF, please also cite:         %
     %                                                                      %
     %   R. Sabatini et al., J. Phys.: Condens. Matter 24, 424209 (2012).   %
     %                                                                      %
     %%%%%%%%%%%%%%%%%%%%%%%%%%%%%%%%%%%%%%%%%%%%%%%%%%%%%%%%%%%%%%%%%%%%%%%%

     %%%%%%%%%%%%%%%%%%%%%%%%%%%%%%%%%%%%%%%%%%%%%%%%%%%%%%%%%%%%%%%%%%%%%%%%
     %                                                                      %
     %  vdW-DF NEWS:                                                        %
     %                                                                      %
     %  * vdW-DF3 is now available. DOI: 10.1021/acs.jctc.0c00471           %
     %    use with input_dft = 'vdW-DF3-opt1' or 'vdW-DF3-opt2'             %
     %                                                                      %
     %  * Unscreened and range-separated hybrid vdW-DF-cx functionals       %
     %    DOI: 10.1063/1.4986522 and 10.1088/1361-648X/ac2ad2               %
     %    use with input_dft = 'vdW-DF-cx0'    and 'vdW-DF-ahcx'            %
     %  * Unscreened and range-separated hybrid vdW-DF2-b86r functionals    %
     %    DOI: 10.1063/1.4986522 and DOI: 10.1103/PhysRevX.12.041003        %
     %    use with input_dft = 'vdW-DF2-br0' and 'vdW-DF2-ahbr'             %
     %                                                                      %
     %%%%%%%%%%%%%%%%%%%%%%%%%%%%%%%%%%%%%%%%%%%%%%%%%%%%%%%%%%%%%%%%%%%%%%%%


     Carrying out vdW-DF run using the following parameters:
     Nqs    =  20  Npoints =  1024  r_max =  100.000
     q_mesh =  0.00001000  0.04494208  0.09755937  0.15916263
               0.23128650  0.31572767  0.41458969  0.53033537
               0.66584808  0.82450364  1.01025438  1.22772762
               1.48234092  1.78043706  2.12944203  2.53805004
               3.01644009  3.57652955  4.23227104  5.00000000


     -----------------------------------------------
     Non-local corr. energy    =       0.17431505 Ry
     -----------------------------------------------

     Starting wfcs are   16 randomized atomic wfcs

     total cpu time spent up to now is       12.1 secs

     Self-consistent Calculation

     iteration #  1     ecut=   120.00 Ry     beta= 0.70
     Davidson diagonalization with overlap

---- Real-time Memory Report at c_bands before calling an iterative solver
             0 MiB given to the printing process from OS
             0 MiB allocation reported by mallinfo(arena+hblkhd)
             0 MiB available memory on the node where the printing process lives
------------------
     ethr =  1.00E-02,  avg # of iterations =  4.2


     -----------------------------------------------
     Non-local corr. energy    =       0.20464726 Ry
     -----------------------------------------------


     total cpu time spent up to now is       14.1 secs

     total energy              =     -53.44654687 Ry
     estimated scf accuracy    <       0.76268276 Ry

     iteration #  2     ecut=   120.00 Ry     beta= 0.70
     Davidson diagonalization with overlap

---- Real-time Memory Report at c_bands before calling an iterative solver
             0 MiB given to the printing process from OS
             0 MiB allocation reported by mallinfo(arena+hblkhd)
             0 MiB available memory on the node where the printing process lives
------------------
     ethr =  4.77E-03,  avg # of iterations =  3.4


     -----------------------------------------------
     Non-local corr. energy    =       0.19851483 Ry
     -----------------------------------------------


     total cpu time spent up to now is       15.6 secs

     total energy              =     -53.64567570 Ry
     estimated scf accuracy    <       0.32958405 Ry

     iteration #  3     ecut=   120.00 Ry     beta= 0.70
     Davidson diagonalization with overlap

---- Real-time Memory Report at c_bands before calling an iterative solver
             0 MiB given to the printing process from OS
             0 MiB allocation reported by mallinfo(arena+hblkhd)
             0 MiB available memory on the node where the printing process lives
------------------
     ethr =  2.06E-03,  avg # of iterations =  2.0


     -----------------------------------------------
     Non-local corr. energy    =       0.20045072 Ry
     -----------------------------------------------


     total cpu time spent up to now is       16.7 secs

     total energy              =     -53.69867825 Ry
     estimated scf accuracy    <       0.00566666 Ry

     iteration #  4     ecut=   120.00 Ry     beta= 0.70
     Davidson diagonalization with overlap

---- Real-time Memory Report at c_bands before calling an iterative solver
             0 MiB given to the printing process from OS
             0 MiB allocation reported by mallinfo(arena+hblkhd)
             0 MiB available memory on the node where the printing process lives
------------------
     ethr =  3.54E-05,  avg # of iterations = 10.7


     -----------------------------------------------
     Non-local corr. energy    =       0.20063170 Ry
     -----------------------------------------------


     total cpu time spent up to now is       19.4 secs

     total energy              =     -53.70346998 Ry
     estimated scf accuracy    <       0.00586834 Ry

     iteration #  5     ecut=   120.00 Ry     beta= 0.70
     Davidson diagonalization with overlap

---- Real-time Memory Report at c_bands before calling an iterative solver
             0 MiB given to the printing process from OS
             0 MiB allocation reported by mallinfo(arena+hblkhd)
             0 MiB available memory on the node where the printing process lives
------------------
     ethr =  3.54E-05,  avg # of iterations =  2.0


     -----------------------------------------------
     Non-local corr. energy    =       0.20061451 Ry
     -----------------------------------------------


     total cpu time spent up to now is       20.6 secs

     total energy              =     -53.70359652 Ry
     estimated scf accuracy    <       0.00114077 Ry

     iteration #  6     ecut=   120.00 Ry     beta= 0.70
     Davidson diagonalization with overlap

---- Real-time Memory Report at c_bands before calling an iterative solver
             0 MiB given to the printing process from OS
             0 MiB allocation reported by mallinfo(arena+hblkhd)
             0 MiB available memory on the node where the printing process lives
------------------
     ethr =  7.13E-06,  avg # of iterations =  3.9

     negative rho (up, down):  1.309E-07 0.000E+00


     -----------------------------------------------
     Non-local corr. energy    =       0.20063178 Ry
     -----------------------------------------------


     total cpu time spent up to now is       22.3 secs

     total energy              =     -53.70392660 Ry
     estimated scf accuracy    <       0.00001980 Ry

     iteration #  7     ecut=   120.00 Ry     beta= 0.70
     Davidson diagonalization with overlap

---- Real-time Memory Report at c_bands before calling an iterative solver
             0 MiB given to the printing process from OS
             0 MiB allocation reported by mallinfo(arena+hblkhd)
             0 MiB available memory on the node where the printing process lives
------------------
     c_bands:  1 eigenvalues not converged
     ethr =  1.24E-07,  avg # of iterations =  7.3


     -----------------------------------------------
     Non-local corr. energy    =       0.20064113 Ry
     -----------------------------------------------


     total cpu time spent up to now is       24.3 secs

     total energy              =     -53.70393160 Ry
     estimated scf accuracy    <       0.00002249 Ry

     iteration #  8     ecut=   120.00 Ry     beta= 0.70
     Davidson diagonalization with overlap

---- Real-time Memory Report at c_bands before calling an iterative solver
             0 MiB given to the printing process from OS
             0 MiB allocation reported by mallinfo(arena+hblkhd)
             0 MiB available memory on the node where the printing process lives
------------------
     ethr =  1.24E-07,  avg # of iterations =  1.1


     -----------------------------------------------
     Non-local corr. energy    =       0.20064806 Ry
     -----------------------------------------------


     total cpu time spent up to now is       25.5 secs

     total energy              =     -53.70392941 Ry
     estimated scf accuracy    <       0.00000652 Ry

     iteration #  9     ecut=   120.00 Ry     beta= 0.70
     Davidson diagonalization with overlap

---- Real-time Memory Report at c_bands before calling an iterative solver
             0 MiB given to the printing process from OS
             0 MiB allocation reported by mallinfo(arena+hblkhd)
             0 MiB available memory on the node where the printing process lives
------------------
     ethr =  4.08E-08,  avg # of iterations =  2.0


     -----------------------------------------------
     Non-local corr. energy    =       0.20064743 Ry
     -----------------------------------------------


     total cpu time spent up to now is       26.8 secs

     End of self-consistent calculation

          k = 0.0000 0.0000 0.0000 ( 16399 PWs)   bands (ev):

   -20.1808 -19.9825  -8.2725  -7.1371  -3.9052  -3.9052  -3.7915  -3.7914
     2.0470   2.5799   3.7219   4.7665

     occupation numbers 
     1.0000   1.0000   1.0000   1.0000   1.0000   1.0000   1.0000   1.0000
     0.0000   0.0000   0.0000   0.0000

          k = 0.0000 0.0962 0.0000 ( 16391 PWs)   bands (ev):

   -20.0469 -19.8507  -8.0890  -6.9642  -4.4568  -4.3431  -4.1612  -4.0469
     2.2786   2.7928   3.9449   4.9826

     occupation numbers 
     1.0000   1.0000   1.0000   1.0000   1.0000   1.0000   1.0000   1.0000
     0.0000   0.0000   0.0000   0.0000

          k = 0.0000 0.1925 0.0000 ( 16390 PWs)   bands (ev):

   -19.6526 -19.4628  -7.5471  -6.4611  -5.8476  -5.7316  -4.7855  -4.6702
     2.9374   3.4128   4.6030   5.6129

     occupation numbers 
     1.0000   1.0000   1.0000   1.0000   1.0000   1.0000   1.0000   1.0000
     0.0000   0.0000   0.0000   0.0000

          k = 0.0000 0.2887 0.0000 ( 16370 PWs)   bands (ev):

   -19.0249 -18.8462  -7.6319  -7.5154  -6.6541  -5.6332  -5.5106  -5.3945
     3.9778   4.3541   5.5888   5.9004

     occupation numbers 
     1.0000   1.0000   1.0000   1.0000   1.0000   1.0000   1.0000   1.0000
     0.0000   0.0000   0.0000   0.0000

          k = 0.0000 0.3849 0.0000 ( 16376 PWs)   bands (ev):

   -18.2322 -18.0701  -9.3966  -9.2703  -6.1344  -6.0176  -5.5151  -4.6099
     4.3487   4.7422   5.3667   6.3743

     occupation numbers 
     1.0000   1.0000   1.0000   1.0000   1.0000   1.0000   1.0000   1.0000
     0.0000   0.0000   0.0000   0.0000

          k = 0.0000 0.4811 0.0000 ( 16402 PWs)   bands (ev):

   -17.4502 -17.3118 -10.8107 -10.6792  -6.5440  -6.4269  -4.2882  -3.6238
     2.7871   3.3677   6.7401   7.3675

     occupation numbers 
     1.0000   1.0000   1.0000   1.0000   1.0000   1.0000   1.0000   1.0000
     0.0000   0.0000   0.0000   0.0000

          k = 0.0000-0.5774 0.0000 ( 16394 PWs)   bands (ev):

   -17.0794 -16.9582 -11.3950 -11.2631  -6.6858  -6.5685  -3.5883  -3.2284
     2.0490   2.6549   7.2889   7.3895

     occupation numbers 
     1.0000   1.0000   1.0000   1.0000   1.0000   1.0000   1.0000   1.0000
     0.0000   0.0000   0.0000   0.0000

          k = 0.0833 0.1443 0.0000 ( 16405 PWs)   bands (ev):

   -19.7826 -19.5907  -7.7260  -6.6245  -5.3615  -5.2492  -4.6666  -4.5533
     2.7245   3.2102   4.3863   5.4071

     occupation numbers 
     1.0000   1.0000   1.0000   1.0000   1.0000   1.0000   1.0000   1.0000
     0.0000   0.0000   0.0000   0.0000

          k = 0.0833 0.2406 0.0000 ( 16381 PWs)   bands (ev):

   -19.2703 -19.0871  -7.0423  -6.8324  -6.7098  -5.9468  -5.4515  -5.3369
     3.5811   4.0058   5.2491   5.9232

     occupation numbers 
     1.0000   1.0000   1.0000   1.0000   1.0000   1.0000   1.0000   1.0000
     0.0000   0.0000   0.0000   0.0000

          k = 0.0833 0.3368 0.0000 ( 16367 PWs)   bands (ev):

   -18.5538 -18.3842  -8.5486  -8.4291  -6.1965  -6.0845  -5.9824  -5.0235
     4.7486   4.8538   5.2662   6.2885

     occupation numbers 
     1.0000   1.0000   1.0000   1.0000   1.0000   1.0000   1.0000   1.0000
     0.0000   0.0000   0.0000   0.0000

          k = 0.0833 0.4330 0.0000 ( 16378 PWs)   bands (ev):

   -17.7428 -17.5931 -10.1279 -10.0004  -6.7463  -6.6287  -4.7740  -3.9802
     3.5438   4.0094   6.3405   7.1598

     occupation numbers 
     1.0000   1.0000   1.0000   1.0000   1.0000   1.0000   1.0000   1.0000
     0.0000   0.0000   0.0000   0.0000

          k = 0.0833 0.5292 0.0000 ( 16379 PWs)   bands (ev):

   -17.1128 -16.9870 -11.1650 -11.0341  -7.0348  -6.9165  -3.6946  -3.2260
     2.2815   2.8470   7.5957   7.9456

     occupation numbers 
     1.0000   1.0000   1.0000   1.0000   1.0000   1.0000   1.0000   1.0000
     0.0000   0.0000   0.0000   0.0000

          k = 0.1667 0.2887 0.0000 ( 16366 PWs)   bands (ev):

   -18.6651 -18.4930  -8.0451  -7.9369  -6.4604  -6.3510  -6.1442  -5.1664
     4.6249   4.8129   5.5013   6.3903

     occupation numbers 
     1.0000   1.0000   1.0000   1.0000   1.0000   1.0000   1.0000   1.0000
     0.0000   0.0000   0.0000   0.0000

          k = 0.1667 0.3849 0.0000 ( 16360 PWs)   bands (ev):

   -17.9087 -17.7530  -9.3897  -9.2750  -7.3229  -7.2072  -5.0397  -4.1863
     4.2056   4.4202   6.0949   6.8739

     occupation numbers 
     1.0000   1.0000   1.0000   1.0000   1.0000   1.0000   1.0000   1.0000
     0.0000   0.0000   0.0000   0.0000

          k = 0.1667 0.4811 0.0000 ( 16379 PWs)   bands (ev):

   -17.1765 -17.0427 -10.5740 -10.4494  -7.8436  -7.7238  -3.8645  -3.2542
     2.8223   3.2149   7.7817   8.4359

     occupation numbers 
     1.0000   1.0000   1.0000   1.0000   1.0000   1.0000   1.0000   1.0000
     0.0000   0.0000   0.0000   0.0000

          k = 0.1667 0.5774 0.0000 ( 16386 PWs)   bands (ev):

   -16.8372 -16.7182 -11.0778 -10.9496  -8.0152  -7.8939  -3.2036  -2.8850
     2.1684   2.6179   8.9509   9.1603

     occupation numbers 
     1.0000   1.0000   1.0000   1.0000   1.0000   1.0000   1.0000   1.0000
     0.0000   0.0000   0.0000   0.0000

          k = 0.2500 0.4330 0.0000 ( 16348 PWs)   bands (ev):

   -17.2069 -17.0697 -10.1108 -10.0018  -8.3990  -8.2841  -3.9375  -3.2758
     3.1917   3.3396   7.7105   8.2846

     occupation numbers 
     1.0000   1.0000   1.0000   1.0000   1.0000   1.0000   1.0000   1.0000
     0.0000   0.0000   0.0000   0.0000

          k = 0.2500 0.5292 0.0000 ( 16377 PWs)   bands (ev):

   -16.6946 -16.5753 -10.6273 -10.5085  -9.0056  -8.8860  -2.9977  -2.6492
     2.3311   2.5736   9.3598   9.6525

     occupation numbers 
     1.0000   1.0000   1.0000   1.0000   1.0000   1.0000   1.0000   1.0000
     0.0000   0.0000   0.0000   0.0000

          k = 0.3333 0.5774 0.0000 ( 16404 PWs)   bands (ev):

   -16.5001 -16.3864 -10.4111 -10.3098  -9.6681  -9.5652  -2.5726  -2.4408
     2.1358   2.3219   9.5491   9.7443

     occupation numbers 
     1.0000   1.0000   1.0000   1.0000   1.0000   1.0000   1.0000   1.0000
     0.0000   0.0000   0.0000   0.0000

     the Fermi energy is    -1.3075 ev

!    total energy              =     -53.70393090 Ry
     estimated scf accuracy    <       0.00000002 Ry
     smearing contrib. (-TS)   =       0.00000000 Ry
     internal energy E=F+TS    =     -53.70393090 Ry

     The total energy is F=E-TS. E is the sum of the following terms:
     one-electron contribution =    -537.22241992 Ry
     hartree contribution      =     272.77961786 Ry
     xc contribution           =     -17.39051110 Ry
     ewald contribution        =     228.12938226 Ry

     convergence has been achieved in   9 iterations


     -----------------------------------------------
     Non-local corr. energy    =       0.20064743 Ry
     -----------------------------------------------


     Forces acting on atoms (cartesian axes, Ry/au):

     atom    1 type  1   force =     0.00000000    0.00000000    0.00083711
     atom    2 type  2   force =     0.00000000    0.00000000   -0.00087522
     atom    3 type  2   force =     0.00000000    0.00000000    0.00001786
     atom    4 type  1   force =     0.00000000   -0.00000000    0.00002024
     The non-local contrib.  to forces
     atom    1 type  1   force =     0.00000000    0.00000000    0.00030040
     atom    2 type  2   force =    -0.00000000   -0.00000000   -0.00066693
     atom    3 type  2   force =    -0.00000000   -0.00000000    0.00049298
     atom    4 type  1   force =     0.00000000    0.00000000    0.00061554
     The ionic contribution  to forces
     atom    1 type  1   force =    -0.00000463   -0.00000089  -10.43487309
     atom    2 type  2   force =     0.00000465    0.00000089  -17.38046519
     atom    3 type  2   force =     0.00000772   -0.00000446   17.39081527
     atom    4 type  1   force =    -0.00000774    0.00000446   10.42452301
     The local contribution  to forces
     atom    1 type  1   force =     0.00000000   -0.00000000   10.43547801
     atom    2 type  2   force =     0.00002009    0.00000387   17.38032006
     atom    3 type  2   force =    -0.00000000    0.00000000  -17.39159637
     atom    4 type  1   force =     0.00000420   -0.00000242  -10.42529800
     The core correction contribution to forces
     atom    1 type  1   force =    -0.00000000   -0.00000000   -0.00003667
     atom    2 type  2   force =    -0.00000083   -0.00000016    0.00002193
     atom    3 type  2   force =     0.00000000   -0.00000000   -0.00001257
     atom    4 type  1   force =     0.00000025   -0.00000015    0.00003156
     The Hubbard contrib.    to forces
     atom    1 type  1   force =     0.00000000    0.00000000    0.00000000
     atom    2 type  2   force =     0.00000000    0.00000000    0.00000000
     atom    3 type  2   force =     0.00000000    0.00000000    0.00000000
     atom    4 type  1   force =     0.00000000    0.00000000    0.00000000
     The SCF correction term to forces
     atom    1 type  1   force =    -0.00000000   -0.00000000   -0.00000000
     atom    2 type  2   force =     0.00000000    0.00000000   -0.00000000
     atom    3 type  2   force =     0.00000000    0.00000000    0.00030845
     atom    4 type  1   force =    -0.00000000    0.00000000    0.00013802

     Total force =     0.000027     Total SCF correction =     0.000338
     SCF correction compared to forces is large: reduce conv_thr to get better values


     Computing stress (Cartesian axis) and pressure



     -----------------------------------------------
     Non-local corr. energy    =       0.20064743 Ry
     -----------------------------------------------

          total   stress  (Ry/bohr**3)                   (kbar)     P=        4.10
   0.00004190   0.00000000   0.00000000            6.16        0.00        0.00
   0.00000000   0.00004190   0.00000000            0.00        6.16        0.00
   0.00000000   0.00000000  -0.00000020            0.00        0.00       -0.03

     kinetic stress (kbar)   4829.63      0.00      0.00
                                0.00   4829.63     -0.00
                                0.00     -0.00   5252.58

     local   stress (kbar)-110014.34      0.00      0.00
                                0.00-110014.34     -0.00
                                0.00     -0.00 110703.63

     nonloc. stress (kbar)   -797.02     -0.00      0.00
                               -0.00   -797.02     -0.00
                                0.00     -0.00   -769.22

     hartree stress (kbar)  53553.38     -0.00      0.00
                               -0.00  53553.38      0.00
                                0.00      0.00 -52721.16

     exc-cor stress (kbar)   -485.27     -0.00      0.00
                               -0.00   -485.27     -0.00
                                0.00     -0.00   -532.59

     corecor stress (kbar)   -541.72      0.00     -0.00
                                0.00   -541.72      0.00
                               -0.00      0.00   -529.87

     ewald   stress (kbar)  53457.11     -0.01     -0.00
                               -0.01  53457.11      0.00
                               -0.00      0.00 -61430.79

     hubbard stress (kbar)      0.00      0.00      0.00
                                0.00      0.00      0.00
                                0.00      0.00      0.00

     DFT-D   stress (kbar)      0.00      0.00      0.00
                                0.00      0.00      0.00
                                0.00      0.00      0.00

     XDM     stress (kbar)      0.00      0.00      0.00
                                0.00      0.00      0.00
                                0.00      0.00      0.00

     dft-nl  stress (kbar)      4.38      0.00      0.00
                                0.00      4.38     -0.00
                                0.00     -0.00     27.40

     TS-vdW  stress (kbar)      0.00      0.00      0.00
                                0.00      0.00      0.00
                                0.00      0.00      0.00

     MDB     stress (kbar)      0.00      0.00      0.00
                                0.00      0.00      0.00
                                0.00      0.00      0.00

     3D-RISM stress (kbar)      0.00      0.00      0.00
                                0.00      0.00      0.00
                                0.00      0.00      0.00


     BFGS Geometry Optimization
     Energy error            =      0.0E+00 Ry
     Gradient error          =      2.0E-05 Ry/Bohr
     Cell gradient error     =      6.2E+00 kbar

     number of scf cycles    =   1
     number of bfgs steps    =   0

     enthalpy           new  =     -53.7039308957 Ry

     new trust radius        =       0.0056912700 bohr
     new conv_thr            =       0.0000010000 Ry

     new unit-cell volume =    739.37197 a.u.^3 (   109.56362 Ang^3 )
     density =      0.72782 g/cm^3

CELL_PARAMETERS (alat=  4.74000000)
   1.001047614   0.000000000   0.000000000
  -0.500523807   0.866932664   0.000000000
   0.000000000   0.000000000   7.999960751

ATOMIC_POSITIONS (crystal)
B             0.0000000000        0.0000000000        0.0000000000    0   0   0
N             0.3333330000        0.6666666000        0.0000000000    0   0   0
N             0.0000000000        0.0000000000        0.1634994710
B             0.6666670000        0.3333330000        0.1634815339



     Writing config-only to output data dir ./tmp/BN2L_AB1_PBE_vdW.save/
     NEW-OLD atomic charge density approx. for the potential

     negative rho (up, down):  1.122E-07 0.000E+00


     -----------------------------------------------
     Non-local corr. energy    =       0.20101485 Ry
     -----------------------------------------------

     extrapolated charge   16.03339, renormalised to   16.00000

     total cpu time spent up to now is       33.0 secs

     Self-consistent Calculation

     iteration #  1     ecut=   120.00 Ry     beta= 0.70
     Davidson diagonalization with overlap

---- Real-time Memory Report at c_bands before calling an iterative solver
             0 MiB given to the printing process from OS
             0 MiB allocation reported by mallinfo(arena+hblkhd)
             0 MiB available memory on the node where the printing process lives
------------------
     c_bands:  1 eigenvalues not converged
     c_bands:  1 eigenvalues not converged
     c_bands:  1 eigenvalues not converged
     ethr =  1.00E-06,  avg # of iterations = 11.3

     negative rho (up, down):  1.892E-08 0.000E+00


     -----------------------------------------------
     Non-local corr. energy    =       0.20018344 Ry
     -----------------------------------------------


     total cpu time spent up to now is       35.3 secs

     total energy              =     -53.70222899 Ry
     estimated scf accuracy    <       0.00131874 Ry

     iteration #  2     ecut=   120.00 Ry     beta= 0.70
     Davidson diagonalization with overlap

---- Real-time Memory Report at c_bands before calling an iterative solver
             0 MiB given to the printing process from OS
             0 MiB allocation reported by mallinfo(arena+hblkhd)
             0 MiB available memory on the node where the printing process lives
------------------
     c_bands:  1 eigenvalues not converged
     c_bands:  1 eigenvalues not converged
     ethr =  8.24E-06,  avg # of iterations = 12.5


     -----------------------------------------------
     Non-local corr. energy    =       0.20040392 Ry
     -----------------------------------------------


     total cpu time spent up to now is       37.7 secs

     total energy              =     -53.70369370 Ry
     estimated scf accuracy    <       0.00524133 Ry

     iteration #  3     ecut=   120.00 Ry     beta= 0.70
     Davidson diagonalization with overlap

---- Real-time Memory Report at c_bands before calling an iterative solver
             0 MiB given to the printing process from OS
             0 MiB allocation reported by mallinfo(arena+hblkhd)
             0 MiB available memory on the node where the printing process lives
------------------
     ethr =  8.24E-06,  avg # of iterations =  4.8


     -----------------------------------------------
     Non-local corr. energy    =       0.20051658 Ry
     -----------------------------------------------


     total cpu time spent up to now is       39.4 secs

     total energy              =     -53.70404424 Ry
     estimated scf accuracy    <       0.00063194 Ry

     iteration #  4     ecut=   120.00 Ry     beta= 0.70
     Davidson diagonalization with overlap

---- Real-time Memory Report at c_bands before calling an iterative solver
             0 MiB given to the printing process from OS
             0 MiB allocation reported by mallinfo(arena+hblkhd)
             0 MiB available memory on the node where the printing process lives
------------------
     ethr =  3.95E-06,  avg # of iterations =  1.9


     -----------------------------------------------
     Non-local corr. energy    =       0.20060063 Ry
     -----------------------------------------------


     total cpu time spent up to now is       40.5 secs

     total energy              =     -53.70398528 Ry
     estimated scf accuracy    <       0.00028930 Ry

     iteration #  5     ecut=   120.00 Ry     beta= 0.70
     Davidson diagonalization with overlap

---- Real-time Memory Report at c_bands before calling an iterative solver
             0 MiB given to the printing process from OS
             0 MiB allocation reported by mallinfo(arena+hblkhd)
             0 MiB available memory on the node where the printing process lives
------------------
     ethr =  1.81E-06,  avg # of iterations =  5.2


     -----------------------------------------------
     Non-local corr. energy    =       0.20064490 Ry
     -----------------------------------------------


     total cpu time spent up to now is       41.9 secs

     total energy              =     -53.70398247 Ry
     estimated scf accuracy    <       0.00008170 Ry

     iteration #  6     ecut=   120.00 Ry     beta= 0.70
     Davidson diagonalization with overlap

---- Real-time Memory Report at c_bands before calling an iterative solver
             0 MiB given to the printing process from OS
             0 MiB allocation reported by mallinfo(arena+hblkhd)
             0 MiB available memory on the node where the printing process lives
------------------
     ethr =  5.11E-07,  avg # of iterations =  1.3


     -----------------------------------------------
     Non-local corr. energy    =       0.20066124 Ry
     -----------------------------------------------


     total cpu time spent up to now is       43.0 secs

     total energy              =     -53.70398186 Ry
     estimated scf accuracy    <       0.00003141 Ry

     iteration #  7     ecut=   120.00 Ry     beta= 0.70
     Davidson diagonalization with overlap

---- Real-time Memory Report at c_bands before calling an iterative solver
             0 MiB given to the printing process from OS
             0 MiB allocation reported by mallinfo(arena+hblkhd)
             0 MiB available memory on the node where the printing process lives
------------------
     ethr =  1.96E-07,  avg # of iterations =  1.1


     -----------------------------------------------
     Non-local corr. energy    =       0.20069025 Ry
     -----------------------------------------------


     total cpu time spent up to now is       44.1 secs

     total energy              =     -53.70397727 Ry
     estimated scf accuracy    <       0.00002015 Ry

     iteration #  8     ecut=   120.00 Ry     beta= 0.70
     Davidson diagonalization with overlap

---- Real-time Memory Report at c_bands before calling an iterative solver
             0 MiB given to the printing process from OS
             0 MiB allocation reported by mallinfo(arena+hblkhd)
             0 MiB available memory on the node where the printing process lives
------------------
     ethr =  1.26E-07,  avg # of iterations =  1.1


     -----------------------------------------------
     Non-local corr. energy    =       0.20072276 Ry
     -----------------------------------------------


     total cpu time spent up to now is       45.1 secs

     total energy              =     -53.70397514 Ry
     estimated scf accuracy    <       0.00000606 Ry

     iteration #  9     ecut=   120.00 Ry     beta= 0.70
     Davidson diagonalization with overlap

---- Real-time Memory Report at c_bands before calling an iterative solver
             0 MiB given to the printing process from OS
             0 MiB allocation reported by mallinfo(arena+hblkhd)
             0 MiB available memory on the node where the printing process lives
------------------
     ethr =  3.79E-08,  avg # of iterations =  2.0


     -----------------------------------------------
     Non-local corr. energy    =       0.20072073 Ry
     -----------------------------------------------


     total cpu time spent up to now is       46.3 secs

     End of self-consistent calculation

          k = 0.0000 0.0000 0.0000 ( 16399 PWs)   bands (ev):

   -20.1698 -19.9711  -8.2644  -7.1281  -3.9161  -3.9160  -3.8018  -3.8018
     2.0413   2.5749   3.7452   4.8905

     occupation numbers 
     1.0000   1.0000   1.0000   1.0000   1.0000   1.0000   1.0000   1.0000
     0.0000   0.0000   0.0000   0.0000

          k = 0.0000 0.0961 0.0000 ( 16391 PWs)   bands (ev):

   -20.0362 -19.8396  -8.0813  -6.9557  -4.4670  -4.3528  -4.1712  -4.0565
     2.2726   2.7875   3.9678   5.0945

     occupation numbers 
     1.0000   1.0000   1.0000   1.0000   1.0000   1.0000   1.0000   1.0000
     0.0000   0.0000   0.0000   0.0000

          k = 0.0000 0.1922 0.0000 ( 16390 PWs)   bands (ev):

   -19.6428 -19.4526  -7.5408  -6.4542  -5.8555  -5.7390  -4.7936  -4.6778
     2.9303   3.4058   4.6240   5.6089

     occupation numbers 
     1.0000   1.0000   1.0000   1.0000   1.0000   1.0000   1.0000   1.0000
     0.0000   0.0000   0.0000   0.0000

          k = 0.0000 0.2884 0.0000 ( 16370 PWs)   bands (ev):

   -19.0167 -18.8376  -7.6367  -7.5196  -6.6501  -5.6285  -5.5165  -5.3999
     3.9681   4.3436   5.5875   5.9039

     occupation numbers 
     1.0000   1.0000   1.0000   1.0000   1.0000   1.0000   1.0000   1.0000
     0.0000   0.0000   0.0000   0.0000

          k = 0.0000 0.3845 0.0000 ( 16376 PWs)   bands (ev):

   -18.2263 -18.0638  -9.3975  -9.2707  -6.1386  -6.0212  -5.5141  -4.6084
     4.3274   4.7214   5.3522   6.3589

     occupation numbers 
     1.0000   1.0000   1.0000   1.0000   1.0000   1.0000   1.0000   1.0000
     0.0000   0.0000   0.0000   0.0000

          k = 0.0000 0.4806 0.0000 ( 16402 PWs)   bands (ev):

   -17.4470 -17.3081 -10.8078 -10.6758  -6.5471  -6.4293  -4.2907  -3.6261
     2.7705   3.3508   6.7131   7.3329

     occupation numbers 
     1.0000   1.0000   1.0000   1.0000   1.0000   1.0000   1.0000   1.0000
     0.0000   0.0000   0.0000   0.0000

          k = 0.0000-0.5767 0.0000 ( 16394 PWs)   bands (ev):

   -17.0777 -16.9561 -11.3902 -11.2577  -6.6884  -6.5706  -3.5930  -3.2326
     2.0352   2.6407   7.2499   7.3510

     occupation numbers 
     1.0000   1.0000   1.0000   1.0000   1.0000   1.0000   1.0000   1.0000
     0.0000   0.0000   0.0000   0.0000

          k = 0.0832 0.1442 0.0000 ( 16405 PWs)   bands (ev):

   -19.7726 -19.5803  -7.7192  -6.6169  -5.3704  -5.2576  -4.6751  -4.5613
     2.7178   3.2038   4.4081   5.4627

     occupation numbers 
     1.0000   1.0000   1.0000   1.0000   1.0000   1.0000   1.0000   1.0000
     0.0000   0.0000   0.0000   0.0000

          k = 0.0832 0.2403 0.0000 ( 16381 PWs)   bands (ev):

   -19.2615 -19.0779  -7.0388  -6.8382  -6.7148  -5.9411  -5.4578  -5.3427
     3.5726   3.9970   5.2664   5.9155

     occupation numbers 
     1.0000   1.0000   1.0000   1.0000   1.0000   1.0000   1.0000   1.0000
     0.0000   0.0000   0.0000   0.0000

          k = 0.0832 0.3364 0.0000 ( 16367 PWs)   bands (ev):

   -18.5470 -18.3769  -8.5514  -8.4313  -6.2010  -6.0881  -5.9805  -5.0207
     4.7332   4.8398   5.2448   6.2701

     occupation numbers 
     1.0000   1.0000   1.0000   1.0000   1.0000   1.0000   1.0000   1.0000
     0.0000   0.0000   0.0000   0.0000

          k = 0.0832 0.4326 0.0000 ( 16378 PWs)   bands (ev):

   -17.7385 -17.5884 -10.1268  -9.9987  -6.7494  -6.6312  -4.7751  -3.9810
     3.5244   3.9899   6.3227   7.1420

     occupation numbers 
     1.0000   1.0000   1.0000   1.0000   1.0000   1.0000   1.0000   1.0000
     0.0000   0.0000   0.0000   0.0000

          k = 0.0832 0.5287 0.0000 ( 16379 PWs)   bands (ev):

   -17.1110 -16.9847 -11.1606 -11.0291  -7.0372  -6.9183  -3.6989  -3.2300
     2.2666   2.8317   7.5621   7.9069

     occupation numbers 
     1.0000   1.0000   1.0000   1.0000   1.0000   1.0000   1.0000   1.0000
     0.0000   0.0000   0.0000   0.0000

          k = 0.1665 0.2884 0.0000 ( 16366 PWs)   bands (ev):

   -18.6579 -18.4854  -8.0491  -7.9403  -6.4645  -6.3543  -6.1416  -5.1631
     4.6136   4.7988   5.4791   6.3906

     occupation numbers 
     1.0000   1.0000   1.0000   1.0000   1.0000   1.0000   1.0000   1.0000
     0.0000   0.0000   0.0000   0.0000

          k = 0.1665 0.3845 0.0000 ( 16360 PWs)   bands (ev):

   -17.9038 -17.7477  -9.3902  -9.2749  -7.3254  -7.2091  -5.0400  -4.1861
     4.1837   4.3987   6.0809   6.8595

     occupation numbers 
     1.0000   1.0000   1.0000   1.0000   1.0000   1.0000   1.0000   1.0000
     0.0000   0.0000   0.0000   0.0000

          k = 0.1665 0.4806 0.0000 ( 16379 PWs)   bands (ev):

   -17.1743 -17.0401 -10.5706 -10.4455  -7.8453  -7.7249  -3.8682  -3.2577
     2.8049   3.1972   7.7608   8.4150

     occupation numbers 
     1.0000   1.0000   1.0000   1.0000   1.0000   1.0000   1.0000   1.0000
     0.0000   0.0000   0.0000   0.0000

          k = 0.1665 0.5767 0.0000 ( 16386 PWs)   bands (ev):

   -16.8366 -16.7171 -11.0726 -10.9437  -8.0166  -7.8947  -3.2094  -2.8904
     2.1534   2.6026   8.9158   9.1237

     occupation numbers 
     1.0000   1.0000   1.0000   1.0000   1.0000   1.0000   1.0000   1.0000
     0.0000   0.0000   0.0000   0.0000

          k = 0.2497 0.4326 0.0000 ( 16348 PWs)   bands (ev):

   -17.2046 -17.0669 -10.1081  -9.9984  -8.4002  -8.2847  -3.9410  -3.2790
     3.1723   3.3210   7.6924   8.2664

     occupation numbers 
     1.0000   1.0000   1.0000   1.0000   1.0000   1.0000   1.0000   1.0000
     0.0000   0.0000   0.0000   0.0000

          k = 0.2497 0.5287 0.0000 ( 16377 PWs)   bands (ev):

   -16.6946 -16.5748 -10.6213 -10.5019  -9.0067  -8.8864  -3.0040  -2.6553
     2.3147   2.5576   9.3352   9.6301

     occupation numbers 
     1.0000   1.0000   1.0000   1.0000   1.0000   1.0000   1.0000   1.0000
     0.0000   0.0000   0.0000   0.0000

          k = 0.3330 0.5767 0.0000 ( 16404 PWs)   bands (ev):

   -16.5011 -16.3869 -10.4010 -10.2992  -9.6717  -9.5684  -2.5803  -2.4479
     2.1195   2.3067   9.5276   9.7267

     occupation numbers 
     1.0000   1.0000   1.0000   1.0000   1.0000   1.0000   1.0000   1.0000
     0.0000   0.0000   0.0000   0.0000

     the Fermi energy is    -1.3144 ev

!    total energy              =     -53.70397661 Ry
     estimated scf accuracy    <       0.00000007 Ry
     smearing contrib. (-TS)   =       0.00000000 Ry
     internal energy E=F+TS    =     -53.70397661 Ry

     The total energy is F=E-TS. E is the sum of the following terms:
     one-electron contribution =    -536.10006956 Ry
     hartree contribution      =     272.21208061 Ry
     xc contribution           =     -17.38248802 Ry
     ewald contribution        =     227.56650036 Ry

     convergence has been achieved in   9 iterations


     -----------------------------------------------
     Non-local corr. energy    =       0.20072073 Ry
     -----------------------------------------------


     Forces acting on atoms (cartesian axes, Ry/au):

     atom    1 type  1   force =     0.00000000    0.00000000    0.00078467
     atom    2 type  2   force =     0.00000000    0.00000000   -0.00083549
     atom    3 type  2   force =     0.00000000    0.00000000   -0.00000266
     atom    4 type  1   force =     0.00000000    0.00000000    0.00005348
     The non-local contrib.  to forces
     atom    1 type  1   force =     0.00000000    0.00000000    0.00022245
     atom    2 type  2   force =     0.00000000    0.00000000   -0.00088867
     atom    3 type  2   force =    -0.00000000   -0.00000000    0.00075402
     atom    4 type  1   force =     0.00000000   -0.00000000    0.00067270
     The ionic contribution  to forces
     atom    1 type  1   force =    -0.00000462   -0.00000089  -10.41305948
     atom    2 type  2   force =     0.00000464    0.00000089  -17.34402248
     atom    3 type  2   force =     0.00000771   -0.00000445   17.35439898
     atom    4 type  1   force =    -0.00000772    0.00000446   10.40268297
     The local contribution  to forces
     atom    1 type  1   force =     0.00000000   -0.00000000   10.41342925
     atom    2 type  2   force =     0.00002011    0.00000387   17.34356043
     atom    3 type  2   force =    -0.00000000    0.00000000  -17.35460863
     atom    4 type  1   force =     0.00000419   -0.00000242  -10.40308348
     The core correction contribution to forces
     atom    1 type  1   force =    -0.00000000   -0.00000000   -0.00003658
     atom    2 type  2   force =    -0.00000083   -0.00000016    0.00002635
     atom    3 type  2   force =     0.00000000   -0.00000000   -0.00001581
     atom    4 type  1   force =     0.00000025   -0.00000015    0.00003272
     The Hubbard contrib.    to forces
     atom    1 type  1   force =     0.00000000    0.00000000    0.00000000
     atom    2 type  2   force =     0.00000000    0.00000000    0.00000000
     atom    3 type  2   force =     0.00000000    0.00000000    0.00000000
     atom    4 type  1   force =     0.00000000    0.00000000    0.00000000
     The SCF correction term to forces
     atom    1 type  1   force =    -0.00000000   -0.00000000    0.00000000
     atom    2 type  2   force =    -0.00000000   -0.00000000    0.00000000
     atom    3 type  2   force =     0.00000000    0.00000000   -0.00052721
     atom    4 type  1   force =    -0.00000000    0.00000000   -0.00024741

     Total force =     0.000054     Total SCF correction =     0.000582
     SCF correction compared to forces is large: reduce conv_thr to get better values


     Computing stress (Cartesian axis) and pressure



     -----------------------------------------------
     Non-local corr. energy    =       0.20072073 Ry
     -----------------------------------------------

          total   stress  (Ry/bohr**3)                   (kbar)     P=        1.74
   0.00001770   0.00000000   0.00000000            2.60        0.00        0.00
   0.00000000   0.00001770   0.00000000            0.00        2.60        0.00
   0.00000000   0.00000000   0.00000013            0.00        0.00        0.02

     kinetic stress (kbar)   4814.85      0.00      0.00
                                0.00   4814.85      0.00
                                0.00      0.00   5239.02

     local   stress (kbar)-109550.58      0.00      0.00
                                0.00-109550.58     -0.00
                                0.00     -0.00 110229.31

     nonloc. stress (kbar)   -794.07      0.00      0.00
                                0.00   -794.07      0.00
                                0.00      0.00   -766.99

     hartree stress (kbar)  53327.08      0.00     -0.00
                                0.00  53327.08      0.00
                               -0.00      0.00 -52494.97

     exc-cor stress (kbar)   -483.83     -0.00      0.00
                               -0.00   -483.83     -0.00
                                0.00     -0.00   -530.98

     corecor stress (kbar)   -540.47      0.00     -0.00
                                0.00   -540.47      0.00
                               -0.00      0.00   -528.72

     ewald   stress (kbar)  53225.25     -0.01     -0.00
                               -0.01  53225.24      0.00
                               -0.00      0.00 -61173.97

     hubbard stress (kbar)      0.00      0.00      0.00
                                0.00      0.00      0.00
                                0.00      0.00      0.00

     DFT-D   stress (kbar)      0.00      0.00      0.00
                                0.00      0.00      0.00
                                0.00      0.00      0.00

     XDM     stress (kbar)      0.00      0.00      0.00
                                0.00      0.00      0.00
                                0.00      0.00      0.00

     dft-nl  stress (kbar)      4.37      0.00      0.00
                                0.00      4.37     -0.00
                                0.00     -0.00     27.32

     TS-vdW  stress (kbar)      0.00      0.00      0.00
                                0.00      0.00      0.00
                                0.00      0.00      0.00

     MDB     stress (kbar)      0.00      0.00      0.00
                                0.00      0.00      0.00
                                0.00      0.00      0.00

     3D-RISM stress (kbar)      0.00      0.00      0.00
                                0.00      0.00      0.00
                                0.00      0.00      0.00

     Energy error            =      4.6E-05 Ry
     Gradient error          =      5.3E-05 Ry/Bohr
     Cell gradient error     =      2.6E+00 kbar

     number of scf cycles    =   2
     number of bfgs steps    =   1

     enthalpy           old  =     -53.7039308957 Ry
     enthalpy           new  =     -53.7039766093 Ry

     CASE: enthalpy          _new < enthalpy          _old

     new trust radius        =       0.0041681665 bohr
     new conv_thr            =       0.0000000100 Ry

     new unit-cell volume =    740.50986 a.u.^3 (   109.73224 Ang^3 )
     density =      0.72670 g/cm^3

CELL_PARAMETERS (alat=  4.74000000)
   1.001814867   0.000000000   0.000000000
  -0.500907433   0.867597124   0.000000000
   0.000000000   0.000000000   8.000004781

ATOMIC_POSITIONS (crystal)
B             0.0000000000        0.0000000000        0.0000000000    0   0   0
N             0.3333330000        0.6666666000        0.0000000000    0   0   0
N             0.0000000000        0.0000000000        0.1634993494
B             0.6666670000        0.3333330000        0.1634839769



     Writing config-only to output data dir ./tmp/BN2L_AB1_PBE_vdW.save/
     NEW-OLD atomic charge density approx. for the potential

     negative rho (up, down):  7.771E-08 0.000E+00


     -----------------------------------------------
     Non-local corr. energy    =       0.20099180 Ry
     -----------------------------------------------

     extrapolated charge   16.02459, renormalised to   16.00000

     total cpu time spent up to now is       52.4 secs

     Self-consistent Calculation

     iteration #  1     ecut=   120.00 Ry     beta= 0.70
     Davidson diagonalization with overlap

---- Real-time Memory Report at c_bands before calling an iterative solver
             0 MiB given to the printing process from OS
             0 MiB allocation reported by mallinfo(arena+hblkhd)
             0 MiB available memory on the node where the printing process lives
------------------
     c_bands:  1 eigenvalues not converged
     c_bands:  1 eigenvalues not converged
     c_bands:  1 eigenvalues not converged
     c_bands:  2 eigenvalues not converged
     ethr =  1.00E-06,  avg # of iterations = 12.2

     negative rho (up, down):  1.517E-08 0.000E+00


     -----------------------------------------------
     Non-local corr. energy    =       0.20037778 Ry
     -----------------------------------------------


     total cpu time spent up to now is       54.8 secs

     total energy              =     -53.70306482 Ry
     estimated scf accuracy    <       0.00069231 Ry

     iteration #  2     ecut=   120.00 Ry     beta= 0.70
     Davidson diagonalization with overlap

---- Real-time Memory Report at c_bands before calling an iterative solver
             0 MiB given to the printing process from OS
             0 MiB allocation reported by mallinfo(arena+hblkhd)
             0 MiB available memory on the node where the printing process lives
------------------
     c_bands:  1 eigenvalues not converged
     c_bands:  1 eigenvalues not converged
     c_bands:  1 eigenvalues not converged
     c_bands:  1 eigenvalues not converged
     ethr =  4.33E-06,  avg # of iterations = 12.4


     -----------------------------------------------
     Non-local corr. energy    =       0.20054198 Ry
     -----------------------------------------------


     total cpu time spent up to now is       57.6 secs

     total energy              =     -53.70383667 Ry
     estimated scf accuracy    <       0.00277046 Ry

     iteration #  3     ecut=   120.00 Ry     beta= 0.70
     Davidson diagonalization with overlap

---- Real-time Memory Report at c_bands before calling an iterative solver
             0 MiB given to the printing process from OS
             0 MiB allocation reported by mallinfo(arena+hblkhd)
             0 MiB available memory on the node where the printing process lives
------------------
     ethr =  4.33E-06,  avg # of iterations =  4.7


     -----------------------------------------------
     Non-local corr. energy    =       0.20062585 Ry
     -----------------------------------------------


     total cpu time spent up to now is       59.2 secs

     total energy              =     -53.70402009 Ry
     estimated scf accuracy    <       0.00033527 Ry

     iteration #  4     ecut=   120.00 Ry     beta= 0.70
     Davidson diagonalization with overlap

---- Real-time Memory Report at c_bands before calling an iterative solver
             0 MiB given to the printing process from OS
             0 MiB allocation reported by mallinfo(arena+hblkhd)
             0 MiB available memory on the node where the printing process lives
------------------
     ethr =  2.10E-06,  avg # of iterations =  2.3


     -----------------------------------------------
     Non-local corr. energy    =       0.20068400 Ry
     -----------------------------------------------


     total cpu time spent up to now is       60.4 secs

     total energy              =     -53.70399148 Ry
     estimated scf accuracy    <       0.00015056 Ry

     iteration #  5     ecut=   120.00 Ry     beta= 0.70
     Davidson diagonalization with overlap

---- Real-time Memory Report at c_bands before calling an iterative solver
             0 MiB given to the printing process from OS
             0 MiB allocation reported by mallinfo(arena+hblkhd)
             0 MiB available memory on the node where the printing process lives
------------------
     ethr =  9.41E-07,  avg # of iterations =  1.9


     -----------------------------------------------
     Non-local corr. energy    =       0.20070780 Ry
     -----------------------------------------------


     total cpu time spent up to now is       61.6 secs

     total energy              =     -53.70399157 Ry
     estimated scf accuracy    <       0.00004564 Ry

     iteration #  6     ecut=   120.00 Ry     beta= 0.70
     Davidson diagonalization with overlap

---- Real-time Memory Report at c_bands before calling an iterative solver
             0 MiB given to the printing process from OS
             0 MiB allocation reported by mallinfo(arena+hblkhd)
             0 MiB available memory on the node where the printing process lives
------------------
     ethr =  2.85E-07,  avg # of iterations =  1.2


     -----------------------------------------------
     Non-local corr. energy    =       0.20071951 Ry
     -----------------------------------------------


     total cpu time spent up to now is       62.8 secs

     total energy              =     -53.70398993 Ry
     estimated scf accuracy    <       0.00002527 Ry

     iteration #  7     ecut=   120.00 Ry     beta= 0.70
     Davidson diagonalization with overlap

---- Real-time Memory Report at c_bands before calling an iterative solver
             0 MiB given to the printing process from OS
             0 MiB allocation reported by mallinfo(arena+hblkhd)
             0 MiB available memory on the node where the printing process lives
------------------
     ethr =  1.58E-07,  avg # of iterations =  1.0


     -----------------------------------------------
     Non-local corr. energy    =       0.20076519 Ry
     -----------------------------------------------


     total cpu time spent up to now is       63.9 secs

     total energy              =     -53.70398328 Ry
     estimated scf accuracy    <       0.00001654 Ry

     iteration #  8     ecut=   120.00 Ry     beta= 0.70
     Davidson diagonalization with overlap

---- Real-time Memory Report at c_bands before calling an iterative solver
             0 MiB given to the printing process from OS
             0 MiB allocation reported by mallinfo(arena+hblkhd)
             0 MiB available memory on the node where the printing process lives
------------------
     ethr =  1.03E-07,  avg # of iterations =  2.9


     -----------------------------------------------
     Non-local corr. energy    =       0.20078461 Ry
     -----------------------------------------------


     total cpu time spent up to now is       65.2 secs

     total energy              =     -53.70398511 Ry
     estimated scf accuracy    <       0.00000076 Ry

     iteration #  9     ecut=   120.00 Ry     beta= 0.70
     Davidson diagonalization with overlap

---- Real-time Memory Report at c_bands before calling an iterative solver
             0 MiB given to the printing process from OS
             0 MiB allocation reported by mallinfo(arena+hblkhd)
             0 MiB available memory on the node where the printing process lives
------------------
     ethr =  4.77E-09,  avg # of iterations =  3.8


     -----------------------------------------------
     Non-local corr. energy    =       0.20078148 Ry
     -----------------------------------------------


     total cpu time spent up to now is       66.7 secs

     total energy              =     -53.70398580 Ry
     estimated scf accuracy    <       0.00000097 Ry

     iteration # 10     ecut=   120.00 Ry     beta= 0.70
     Davidson diagonalization with overlap

---- Real-time Memory Report at c_bands before calling an iterative solver
             0 MiB given to the printing process from OS
             0 MiB allocation reported by mallinfo(arena+hblkhd)
             0 MiB available memory on the node where the printing process lives
------------------
     ethr =  4.77E-09,  avg # of iterations =  1.2


     -----------------------------------------------
     Non-local corr. energy    =       0.20077025 Ry
     -----------------------------------------------


     total cpu time spent up to now is       67.8 secs

     total energy              =     -53.70398548 Ry
     estimated scf accuracy    <       0.00000065 Ry

     iteration # 11     ecut=   120.00 Ry     beta= 0.70
     Davidson diagonalization with overlap

---- Real-time Memory Report at c_bands before calling an iterative solver
             0 MiB given to the printing process from OS
             0 MiB allocation reported by mallinfo(arena+hblkhd)
             0 MiB available memory on the node where the printing process lives
------------------
     ethr =  4.03E-09,  avg # of iterations =  2.0


     -----------------------------------------------
     Non-local corr. energy    =       0.20077143 Ry
     -----------------------------------------------


     total cpu time spent up to now is       69.2 secs

     total energy              =     -53.70398562 Ry
     estimated scf accuracy    <       0.00000002 Ry

     iteration # 12     ecut=   120.00 Ry     beta= 0.70
     Davidson diagonalization with overlap

---- Real-time Memory Report at c_bands before calling an iterative solver
             0 MiB given to the printing process from OS
             0 MiB allocation reported by mallinfo(arena+hblkhd)
             0 MiB available memory on the node where the printing process lives
------------------
     ethr =  1.02E-10,  avg # of iterations =  2.0


     -----------------------------------------------
     Non-local corr. energy    =       0.20077085 Ry
     -----------------------------------------------


     total cpu time spent up to now is       70.7 secs

     End of self-consistent calculation

          k = 0.0000 0.0000 0.0000 ( 16399 PWs)   bands (ev):

   -20.1640 -19.9648  -8.2603  -7.1233  -3.9264  -3.9264  -3.8115  -3.8115
     2.0370   2.5717   3.7412   4.8818

     occupation numbers 
     1.0000   1.0000   1.0000   1.0000   1.0000   1.0000   1.0000   1.0000
     0.0000   0.0000   0.0000   0.0000

          k = 0.0000 0.0961 0.0000 ( 16391 PWs)   bands (ev):

   -20.0307 -19.8336  -8.0777  -6.9513  -4.4768  -4.3619  -4.1810  -4.0655
     2.2681   2.7839   3.9636   4.9878

     occupation numbers 
     1.0000   1.0000   1.0000   1.0000   1.0000   1.0000   1.0000   1.0000
     0.0000   0.0000   0.0000   0.0000

          k = 0.0000 0.1921 0.0000 ( 16390 PWs)   bands (ev):

   -19.6380 -19.4473  -7.5382  -6.4511  -5.8636  -5.7465  -4.8019  -4.6854
     2.9249   3.4011   4.6186   5.5998

     occupation numbers 
     1.0000   1.0000   1.0000   1.0000   1.0000   1.0000   1.0000   1.0000
     0.0000   0.0000   0.0000   0.0000

          k = 0.0000 0.2882 0.0000 ( 16370 PWs)   bands (ev):

   -19.0130 -18.8334  -7.6425  -7.5247  -6.6492  -5.6269  -5.5233  -5.4059
     3.9609   4.3361   5.5757   5.8920

     occupation numbers 
     1.0000   1.0000   1.0000   1.0000   1.0000   1.0000   1.0000   1.0000
     0.0000   0.0000   0.0000   0.0000

          k = 0.0000 0.3842 0.0000 ( 16376 PWs)   bands (ev):

   -18.2243 -18.0613  -9.4005  -9.2730  -6.1440  -6.0260  -5.5154  -4.6092
     4.3102   4.7046   5.3410   6.3470

     occupation numbers 
     1.0000   1.0000   1.0000   1.0000   1.0000   1.0000   1.0000   1.0000
     0.0000   0.0000   0.0000   0.0000

          k = 0.0000 0.4803 0.0000 ( 16402 PWs)   bands (ev):

   -17.4470 -17.3075 -10.8079 -10.6753  -6.5516  -6.4332  -4.2946  -3.6296
     2.7564   3.3365   6.6918   7.3058

     occupation numbers 
     1.0000   1.0000   1.0000   1.0000   1.0000   1.0000   1.0000   1.0000
     0.0000   0.0000   0.0000   0.0000

          k = 0.0000-0.5763 0.0000 ( 16394 PWs)   bands (ev):

   -17.0789 -16.9566 -11.3889 -11.2558  -6.6927  -6.5742  -3.5984  -3.2376
     2.0232   2.6284   7.2193   7.3209

     occupation numbers 
     1.0000   1.0000   1.0000   1.0000   1.0000   1.0000   1.0000   1.0000
     0.0000   0.0000   0.0000   0.0000

          k = 0.0832 0.1441 0.0000 ( 16405 PWs)   bands (ev):

   -19.7675 -19.5747  -7.7163  -6.6133  -5.3793  -5.2658  -4.6837  -4.5692
     2.7128   3.1995   4.4032   5.4540

     occupation numbers 
     1.0000   1.0000   1.0000   1.0000   1.0000   1.0000   1.0000   1.0000
     0.0000   0.0000   0.0000   0.0000

          k = 0.0832 0.2401 0.0000 ( 16381 PWs)   bands (ev):

   -19.2574 -19.0732  -7.0383  -6.8447  -6.7205  -5.9389  -5.4649  -5.3490
     3.5663   3.9909   5.2597   5.9026

     occupation numbers 
     1.0000   1.0000   1.0000   1.0000   1.0000   1.0000   1.0000   1.0000
     0.0000   0.0000   0.0000   0.0000

          k = 0.0832 0.3362 0.0000 ( 16367 PWs)   bands (ev):

   -18.5442 -18.3737  -8.5558  -8.4351  -6.2065  -6.0928  -5.9810  -5.0205
     4.7213   4.8293   5.2269   6.2548

     occupation numbers 
     1.0000   1.0000   1.0000   1.0000   1.0000   1.0000   1.0000   1.0000
     0.0000   0.0000   0.0000   0.0000

          k = 0.0832 0.4322 0.0000 ( 16378 PWs)   bands (ev):

   -17.7377 -17.5870 -10.1283  -9.9995  -6.7540  -6.6352  -4.7779  -3.9834
     3.5082   3.9737   6.3089   7.1284

     occupation numbers 
     1.0000   1.0000   1.0000   1.0000   1.0000   1.0000   1.0000   1.0000
     0.0000   0.0000   0.0000   0.0000

          k = 0.0832 0.5283 0.0000 ( 16379 PWs)   bands (ev):

   -17.1120 -16.9851 -11.1597 -11.0276  -7.0413  -6.9217  -3.7041  -3.2349
     2.2538   2.8186   7.5357   7.8767

     occupation numbers 
     1.0000   1.0000   1.0000   1.0000   1.0000   1.0000   1.0000   1.0000
     0.0000   0.0000   0.0000   0.0000

          k = 0.1664 0.2882 0.0000 ( 16366 PWs)   bands (ev):

   -18.6550 -18.4819  -8.0544  -7.9449  -6.4698  -6.3588  -6.1417  -5.1625
     4.6052   4.7885   5.4605   6.3676

     occupation numbers 
     1.0000   1.0000   1.0000   1.0000   1.0000   1.0000   1.0000   1.0000
     0.0000   0.0000   0.0000   0.0000

          k = 0.1664 0.3842 0.0000 ( 16360 PWs)   bands (ev):

   -17.9025 -17.7459  -9.3928  -9.2769  -7.3295  -7.2126  -5.0422  -4.1880
     4.1657   4.3811   6.0700   6.8486

     occupation numbers 
     1.0000   1.0000   1.0000   1.0000   1.0000   1.0000   1.0000   1.0000
     0.0000   0.0000   0.0000   0.0000

          k = 0.1664 0.4803 0.0000 ( 16379 PWs)   bands (ev):

   -17.1751 -17.0403 -10.5705 -10.4447  -7.8488  -7.7277  -3.8730  -3.2622
     2.7901   3.1823   7.7446   8.3992

     occupation numbers 
     1.0000   1.0000   1.0000   1.0000   1.0000   1.0000   1.0000   1.0000
     0.0000   0.0000   0.0000   0.0000

          k = 0.1664 0.5763 0.0000 ( 16386 PWs)   bands (ev):

   -16.8385 -16.7183 -11.0710 -10.9415  -8.0199  -7.8973  -3.2157  -2.8962
     2.1405   2.5895   8.8882   9.0950

     occupation numbers 
     1.0000   1.0000   1.0000   1.0000   1.0000   1.0000   1.0000   1.0000
     0.0000   0.0000   0.0000   0.0000

          k = 0.2495 0.4322 0.0000 ( 16348 PWs)   bands (ev):

   -17.2052 -17.0670 -10.1084  -9.9981  -8.4034  -8.2872  -3.9456  -3.2833
     3.1560   3.3055   7.6786   8.2533

     occupation numbers 
     1.0000   1.0000   1.0000   1.0000   1.0000   1.0000   1.0000   1.0000
     0.0000   0.0000   0.0000   0.0000

          k = 0.2495 0.5283 0.0000 ( 16377 PWs)   bands (ev):

   -16.6970 -16.5765 -10.6193 -10.4992  -9.0098  -8.8888  -3.0108  -2.6617
     2.3006   2.5439   9.3150   9.6119

     occupation numbers 
     1.0000   1.0000   1.0000   1.0000   1.0000   1.0000   1.0000   1.0000
     0.0000   0.0000   0.0000   0.0000

          k = 0.3327 0.5763 0.0000 ( 16404 PWs)   bands (ev):

   -16.5041 -16.3892 -10.3960 -10.2936  -9.6767  -9.5727  -2.5881  -2.4550
     2.1056   2.2936   9.5095   9.7121

     occupation numbers 
     1.0000   1.0000   1.0000   1.0000   1.0000   1.0000   1.0000   1.0000
     0.0000   0.0000   0.0000   0.0000

     the Fermi energy is    -1.3214 ev

!    total energy              =     -53.70398562 Ry
     estimated scf accuracy    <          2.1E-09 Ry
     smearing contrib. (-TS)   =       0.00000000 Ry
     internal energy E=F+TS    =     -53.70398562 Ry

     The total energy is F=E-TS. E is the sum of the following terms:
     one-electron contribution =    -535.28662317 Ry
     hartree contribution      =     271.80118407 Ry
     xc contribution           =     -17.37627046 Ry
     ewald contribution        =     227.15772393 Ry

     convergence has been achieved in  12 iterations


     -----------------------------------------------
     Non-local corr. energy    =       0.20077085 Ry
     -----------------------------------------------


     Forces acting on atoms (cartesian axes, Ry/au):

     atom    1 type  1   force =     0.00000000    0.00000000    0.00083901
     atom    2 type  2   force =     0.00000000   -0.00000000   -0.00087724
     atom    3 type  2   force =     0.00000000    0.00000000    0.00004956
     atom    4 type  1   force =     0.00000000   -0.00000000   -0.00001133
     The non-local contrib.  to forces
     atom    1 type  1   force =     0.00000000   -0.00000000    0.00031199
     atom    2 type  2   force =     0.00000000    0.00000000   -0.00068177
     atom    3 type  2   force =    -0.00000000   -0.00000000    0.00068926
     atom    4 type  1   force =     0.00000000    0.00000000    0.00061101
     The ionic contribution  to forces
     atom    1 type  1   force =    -0.00000462   -0.00000089  -10.39711239
     atom    2 type  2   force =     0.00000463    0.00000089  -17.31738087
     atom    3 type  2   force =     0.00000770   -0.00000445   17.32725411
     atom    4 type  1   force =    -0.00000771    0.00000445   10.38723915
     The local contribution  to forces
     atom    1 type  1   force =    -0.00000000   -0.00000000   10.39767299
     atom    2 type  2   force =     0.00002013    0.00000387   17.31715092
     atom    3 type  2   force =     0.00000000    0.00000000  -17.32787308
     atom    4 type  1   force =     0.00000418   -0.00000241  -10.38789332
     The core correction contribution to forces
     atom    1 type  1   force =    -0.00000000   -0.00000000   -0.00003739
     atom    2 type  2   force =    -0.00000083   -0.00000016    0.00002224
     atom    3 type  2   force =     0.00000000   -0.00000000   -0.00001622
     atom    4 type  1   force =     0.00000025   -0.00000015    0.00003141
     The Hubbard contrib.    to forces
     atom    1 type  1   force =     0.00000000    0.00000000    0.00000000
     atom    2 type  2   force =     0.00000000    0.00000000    0.00000000
     atom    3 type  2   force =     0.00000000    0.00000000    0.00000000
     atom    4 type  1   force =     0.00000000    0.00000000    0.00000000
     The SCF correction term to forces
     atom    1 type  1   force =     0.00000000    0.00000000    0.00000000
     atom    2 type  2   force =     0.00000000    0.00000000    0.00000000
     atom    3 type  2   force =    -0.00000000   -0.00000000   -0.00000554
     atom    4 type  1   force =     0.00000000   -0.00000000   -0.00000061

     Total force =     0.000051     Total SCF correction =     0.000006
     SCF correction compared to forces is large: reduce conv_thr to get better values


     Computing stress (Cartesian axis) and pressure



     -----------------------------------------------
     Non-local corr. energy    =       0.20077085 Ry
     -----------------------------------------------

          total   stress  (Ry/bohr**3)                   (kbar)     P=       -0.14
  -0.00000142  -0.00000000   0.00000000           -0.21       -0.00        0.00
  -0.00000000  -0.00000142   0.00000000           -0.00       -0.21        0.00
   0.00000000  -0.00000000  -0.00000002            0.00       -0.00       -0.00

     kinetic stress (kbar)   4803.65      0.00      0.00
                                0.00   4803.65      0.00
                                0.00      0.00   5228.90

     local   stress (kbar)-109212.95      0.00      0.00
                                0.00-109212.95     -0.00
                                0.00     -0.00 109884.05

     nonloc. stress (kbar)   -791.70      0.00      0.00
                                0.00   -791.70      0.00
                                0.00      0.00   -765.19

     hartree stress (kbar)  53162.54      0.00     -0.00
                                0.00  53162.54      0.00
                               -0.00      0.00 -52330.75

     exc-cor stress (kbar)   -482.75     -0.00      0.00
                               -0.00   -482.75     -0.00
                                0.00     -0.00   -529.78

     corecor stress (kbar)   -539.54      0.00     -0.00
                                0.00   -539.54      0.00
                               -0.00      0.00   -527.86

     ewald   stress (kbar)  53056.18     -0.01     -0.00
                               -0.01  53056.18      0.00
                               -0.00      0.00 -60986.62

     hubbard stress (kbar)      0.00      0.00      0.00
                                0.00      0.00      0.00
                                0.00      0.00      0.00

     DFT-D   stress (kbar)      0.00      0.00      0.00
                                0.00      0.00      0.00
                                0.00      0.00      0.00

     XDM     stress (kbar)      0.00      0.00      0.00
                                0.00      0.00      0.00
                                0.00      0.00      0.00

     dft-nl  stress (kbar)      4.37      0.00      0.00
                                0.00      4.37     -0.00
                                0.00     -0.00     27.26

     TS-vdW  stress (kbar)      0.00      0.00      0.00
                                0.00      0.00      0.00
                                0.00      0.00      0.00

     MDB     stress (kbar)      0.00      0.00      0.00
                                0.00      0.00      0.00
                                0.00      0.00      0.00

     3D-RISM stress (kbar)      0.00      0.00      0.00
                                0.00      0.00      0.00
                                0.00      0.00      0.00

     Energy error            =      9.0E-06 Ry
     Gradient error          =      5.0E-05 Ry/Bohr
     Cell gradient error     =      2.1E-01 kbar

     bfgs converged in   3 scf cycles and   2 bfgs steps
     (criteria: energy <  1.0E-04 Ry, force <  1.0E-03 Ry/Bohr, cell <  5.0E-01 kbar)

[...]

     iteration #  6     ecut=   120.00 Ry     beta= 0.70
     Davidson diagonalization with overlap

---- Real-time Memory Report at c_bands before calling an iterative solver
             0 MiB given to the printing process from OS
             0 MiB allocation reported by mallinfo(arena+hblkhd)
             0 MiB available memory on the node where the printing process lives
------------------
     ethr =  6.35E-06,  avg # of iterations =  2.6


     -----------------------------------------------
     Non-local corr. energy    =       0.20075766 Ry
     -----------------------------------------------


     total cpu time spent up to now is       89.7 secs

     total energy              =     -53.70398434 Ry
     estimated scf accuracy    <       0.00004150 Ry

     iteration #  7     ecut=   120.00 Ry     beta= 0.70
     Davidson diagonalization with overlap

---- Real-time Memory Report at c_bands before calling an iterative solver
             0 MiB given to the printing process from OS
             0 MiB allocation reported by mallinfo(arena+hblkhd)
             0 MiB available memory on the node where the printing process lives
------------------
     ethr =  2.59E-07,  avg # of iterations =  4.6


     -----------------------------------------------
     Non-local corr. energy    =       0.20076464 Ry
     -----------------------------------------------


     total cpu time spent up to now is       91.1 secs

     total energy              =     -53.70398592 Ry
     estimated scf accuracy    <       0.00001673 Ry

     iteration #  8     ecut=   120.00 Ry     beta= 0.70
     Davidson diagonalization with overlap

---- Real-time Memory Report at c_bands before calling an iterative solver
             0 MiB given to the printing process from OS
             0 MiB allocation reported by mallinfo(arena+hblkhd)
             0 MiB available memory on the node where the printing process lives
------------------
     ethr =  1.05E-07,  avg # of iterations =  1.0


     -----------------------------------------------
     Non-local corr. energy    =       0.20077006 Ry
     -----------------------------------------------


     total cpu time spent up to now is       92.2 secs

     total energy              =     -53.70398482 Ry
     estimated scf accuracy    <       0.00000444 Ry

     iteration #  9     ecut=   120.00 Ry     beta= 0.70
     Davidson diagonalization with overlap

---- Real-time Memory Report at c_bands before calling an iterative solver
             0 MiB given to the printing process from OS
             0 MiB allocation reported by mallinfo(arena+hblkhd)
             0 MiB available memory on the node where the printing process lives
------------------
     ethr =  2.77E-08,  avg # of iterations =  2.1


     -----------------------------------------------
     Non-local corr. energy    =       0.20077169 Ry
     -----------------------------------------------


     total cpu time spent up to now is       93.4 secs

     total energy              =     -53.70398572 Ry
     estimated scf accuracy    <       0.00000005 Ry

     iteration # 10     ecut=   120.00 Ry     beta= 0.70
     Davidson diagonalization with overlap

---- Real-time Memory Report at c_bands before calling an iterative solver
             0 MiB given to the printing process from OS
             0 MiB allocation reported by mallinfo(arena+hblkhd)
             0 MiB available memory on the node where the printing process lives
------------------
     ethr =  3.23E-10,  avg # of iterations =  4.6


     -----------------------------------------------
     Non-local corr. energy    =       0.20077170 Ry
     -----------------------------------------------


     total cpu time spent up to now is       95.2 secs

     total energy              =     -53.70398578 Ry
     estimated scf accuracy    <       0.00000011 Ry

     iteration # 11     ecut=   120.00 Ry     beta= 0.70
     Davidson diagonalization with overlap

---- Real-time Memory Report at c_bands before calling an iterative solver
             0 MiB given to the printing process from OS
             0 MiB allocation reported by mallinfo(arena+hblkhd)
             0 MiB available memory on the node where the printing process lives
------------------
     ethr =  3.23E-10,  avg # of iterations =  2.0


     -----------------------------------------------
     Non-local corr. energy    =       0.20077283 Ry
     -----------------------------------------------


     total cpu time spent up to now is       96.4 secs

     End of self-consistent calculation

          k = 0.0000 0.0000 0.0000 ( 16447 PWs)   bands (ev):

   -20.1640 -19.9648  -8.2603  -7.1233  -3.9264  -3.9264  -3.8116  -3.8115
     2.0370   2.5717   3.7414   4.7740

     occupation numbers 
     1.0000   1.0000   1.0000   1.0000   1.0000   1.0000   1.0000   1.0000
     0.0000   0.0000   0.0000   0.0000

          k = 0.0000 0.0961 0.0000 ( 16483 PWs)   bands (ev):

   -20.0306 -19.8336  -8.0776  -6.9512  -4.4768  -4.3620  -4.1809  -4.0656
     2.2681   2.7839   3.9637   4.9892

     occupation numbers 
     1.0000   1.0000   1.0000   1.0000   1.0000   1.0000   1.0000   1.0000
     0.0000   0.0000   0.0000   0.0000

          k = 0.0000 0.1921 0.0000 ( 16453 PWs)   bands (ev):

   -19.6379 -19.4473  -7.5382  -6.4511  -5.8636  -5.7465  -4.8018  -4.6855
     2.9249   3.4011   4.6185   5.6006

     occupation numbers 
     1.0000   1.0000   1.0000   1.0000   1.0000   1.0000   1.0000   1.0000
     0.0000   0.0000   0.0000   0.0000

          k = 0.0000 0.2882 0.0000 ( 16458 PWs)   bands (ev):

   -19.0130 -18.8334  -7.6425  -7.5248  -6.6491  -5.6269  -5.5232  -5.4059
     3.9609   4.3360   5.5757   5.8919

     occupation numbers 
     1.0000   1.0000   1.0000   1.0000   1.0000   1.0000   1.0000   1.0000
     0.0000   0.0000   0.0000   0.0000

          k = 0.0000 0.3842 0.0000 ( 16416 PWs)   bands (ev):

   -18.2242 -18.0613  -9.4005  -9.2730  -6.1440  -6.0260  -5.5154  -4.6092
     4.3102   4.7046   5.3410   6.3469

     occupation numbers 
     1.0000   1.0000   1.0000   1.0000   1.0000   1.0000   1.0000   1.0000
     0.0000   0.0000   0.0000   0.0000

          k = 0.0000 0.4803 0.0000 ( 16446 PWs)   bands (ev):

   -17.4470 -17.3076 -10.8079 -10.6753  -6.5516  -6.4332  -4.2946  -3.6297
     2.7566   3.3366   6.6918   7.3059

     occupation numbers 
     1.0000   1.0000   1.0000   1.0000   1.0000   1.0000   1.0000   1.0000
     0.0000   0.0000   0.0000   0.0000

          k = 0.0000-0.5763 0.0000 ( 16442 PWs)   bands (ev):

   -17.0789 -16.9566 -11.3888 -11.2557  -6.6927  -6.5742  -3.5985  -3.2376
     2.0234   2.6286   7.2194   7.3210

     occupation numbers 
     1.0000   1.0000   1.0000   1.0000   1.0000   1.0000   1.0000   1.0000
     0.0000   0.0000   0.0000   0.0000

          k = 0.0832 0.1441 0.0000 ( 16481 PWs)   bands (ev):

   -19.7675 -19.5747  -7.7162  -6.6133  -5.3793  -5.2658  -4.6837  -4.5693
     2.7128   3.1995   4.4032   5.4102

     occupation numbers 
     1.0000   1.0000   1.0000   1.0000   1.0000   1.0000   1.0000   1.0000
     0.0000   0.0000   0.0000   0.0000

          k = 0.0832 0.2401 0.0000 ( 16443 PWs)   bands (ev):

   -19.2573 -19.0732  -7.0383  -6.8446  -6.7205  -5.9389  -5.4648  -5.3490
     3.5663   3.9908   5.2597   5.9026

     occupation numbers 
     1.0000   1.0000   1.0000   1.0000   1.0000   1.0000   1.0000   1.0000
     0.0000   0.0000   0.0000   0.0000

          k = 0.0832 0.3362 0.0000 ( 16429 PWs)   bands (ev):

   -18.5442 -18.3737  -8.5557  -8.4351  -6.2065  -6.0928  -5.9810  -5.0205
     4.7214   4.8293   5.2269   6.2548

     occupation numbers 
     1.0000   1.0000   1.0000   1.0000   1.0000   1.0000   1.0000   1.0000
     0.0000   0.0000   0.0000   0.0000

          k = 0.0832 0.4322 0.0000 ( 16425 PWs)   bands (ev):

   -17.7377 -17.5871 -10.1282  -9.9995  -6.7540  -6.6352  -4.7779  -3.9834
     3.5083   3.9738   6.3089   7.1286

     occupation numbers 
     1.0000   1.0000   1.0000   1.0000   1.0000   1.0000   1.0000   1.0000
     0.0000   0.0000   0.0000   0.0000

          k = 0.0832 0.5283 0.0000 ( 16442 PWs)   bands (ev):

   -17.1120 -16.9851 -11.1596 -11.0275  -7.0413  -6.9217  -3.7041  -3.2350
     2.2539   2.8188   7.5358   7.8768

     occupation numbers 
     1.0000   1.0000   1.0000   1.0000   1.0000   1.0000   1.0000   1.0000
     0.0000   0.0000   0.0000   0.0000

          k = 0.1664 0.2882 0.0000 ( 16458 PWs)   bands (ev):

   -18.6550 -18.4820  -8.0543  -7.9449  -6.4697  -6.3589  -6.1417  -5.1625
     4.6052   4.7885   5.4605   6.3714

     occupation numbers 
     1.0000   1.0000   1.0000   1.0000   1.0000   1.0000   1.0000   1.0000
     0.0000   0.0000   0.0000   0.0000

          k = 0.1664 0.3842 0.0000 ( 16404 PWs)   bands (ev):

   -17.9025 -17.7459  -9.3928  -9.2769  -7.3295  -7.2126  -5.0422  -4.1880
     4.1658   4.3812   6.0701   6.8486

     occupation numbers 
     1.0000   1.0000   1.0000   1.0000   1.0000   1.0000   1.0000   1.0000
     0.0000   0.0000   0.0000   0.0000

          k = 0.1664 0.4803 0.0000 ( 16425 PWs)   bands (ev):

   -17.1750 -17.0403 -10.5704 -10.4447  -7.8488  -7.7277  -3.8730  -3.2623
     2.7902   3.1825   7.7446   8.3993

     occupation numbers 
     1.0000   1.0000   1.0000   1.0000   1.0000   1.0000   1.0000   1.0000
     0.0000   0.0000   0.0000   0.0000

          k = 0.1664 0.5763 0.0000 ( 16428 PWs)   bands (ev):

   -16.8385 -16.7184 -11.0709 -10.9415  -8.0198  -7.8973  -3.2157  -2.8963
     2.1407   2.5896   8.8883   9.0952

     occupation numbers 
     1.0000   1.0000   1.0000   1.0000   1.0000   1.0000   1.0000   1.0000
     0.0000   0.0000   0.0000   0.0000

          k = 0.2495 0.4322 0.0000 ( 16408 PWs)   bands (ev):

   -17.2052 -17.0670 -10.1084  -9.9981  -8.4033  -8.2872  -3.9456  -3.2834
     3.1562   3.3056   7.6786   8.2533

     occupation numbers 
     1.0000   1.0000   1.0000   1.0000   1.0000   1.0000   1.0000   1.0000
     0.0000   0.0000   0.0000   0.0000

          k = 0.2495 0.5283 0.0000 ( 16447 PWs)   bands (ev):

   -16.6970 -16.5766 -10.6192 -10.4991  -9.0097  -8.8888  -3.0108  -2.6618
     2.3008   2.5441   9.3149   9.6118

     occupation numbers 
     1.0000   1.0000   1.0000   1.0000   1.0000   1.0000   1.0000   1.0000
     0.0000   0.0000   0.0000   0.0000

          k = 0.3327 0.5763 0.0000 ( 16452 PWs)   bands (ev):

   -16.5041 -16.3893 -10.3959 -10.2936  -9.6766  -9.5727  -2.5882  -2.4551
     2.1058   2.2938   9.5095   9.7122

     occupation numbers 
     1.0000   1.0000   1.0000   1.0000   1.0000   1.0000   1.0000   1.0000
     0.0000   0.0000   0.0000   0.0000

     the Fermi energy is    -1.3213 ev

!    total energy              =     -53.70398578 Ry
     estimated scf accuracy    <          9.1E-09 Ry
     smearing contrib. (-TS)   =       0.00000000 Ry
     internal energy E=F+TS    =     -53.70398578 Ry

     The total energy is F=E-TS. E is the sum of the following terms:
     one-electron contribution =    -535.28695037 Ry
     hartree contribution      =     271.80162675 Ry
     xc contribution           =     -17.37638610 Ry
     ewald contribution        =     227.15772393 Ry

     convergence has been achieved in  11 iterations


     -----------------------------------------------
     Non-local corr. energy    =       0.20077283 Ry
     -----------------------------------------------


     Forces acting on atoms (cartesian axes, Ry/au):

     atom    1 type  1   force =     0.00000000    0.00000000    0.00083825
     atom    2 type  2   force =     0.00000000    0.00000000   -0.00088522
     atom    3 type  2   force =     0.00000000   -0.00000000    0.00005740
     atom    4 type  1   force =     0.00000000    0.00000000   -0.00001044
     The non-local contrib.  to forces
     atom    1 type  1   force =     0.00000000    0.00000000    0.00031240
     atom    2 type  2   force =    -0.00000000   -0.00000000   -0.00069913
     atom    3 type  2   force =     0.00000000    0.00000000    0.00070277
     atom    4 type  1   force =     0.00000000   -0.00000000    0.00061188
     The ionic contribution  to forces
     atom    1 type  1   force =    -0.00000462   -0.00000089  -10.39711239
     atom    2 type  2   force =     0.00000463    0.00000089  -17.31738087
     atom    3 type  2   force =     0.00000770   -0.00000445   17.32725411
     atom    4 type  1   force =    -0.00000771    0.00000445   10.38723915
     The local contribution  to forces
     atom    1 type  1   force =     0.00000000   -0.00000000   10.39765457
     atom    2 type  2   force =     0.00002013    0.00000387   17.31712428
     atom    3 type  2   force =     0.00000000    0.00000000  -17.32785106
     atom    4 type  1   force =     0.00000418   -0.00000241  -10.38788029
     The core correction contribution to forces
     atom    1 type  1   force =    -0.00000000   -0.00000000   -0.00003753
     atom    2 type  2   force =    -0.00000083   -0.00000016    0.00002248
     atom    3 type  2   force =     0.00000000   -0.00000000   -0.00001632
     atom    4 type  1   force =     0.00000025   -0.00000015    0.00003148
     The Hubbard contrib.    to forces
     atom    1 type  1   force =     0.00000000    0.00000000    0.00000000
     atom    2 type  2   force =     0.00000000    0.00000000    0.00000000
     atom    3 type  2   force =     0.00000000    0.00000000    0.00000000
     atom    4 type  1   force =     0.00000000    0.00000000    0.00000000
     The SCF correction term to forces
     atom    1 type  1   force =    -0.00000000   -0.00000000    0.00000000
     atom    2 type  2   force =    -0.00000000   -0.00000000    0.00000000
     atom    3 type  2   force =    -0.00000000   -0.00000000   -0.00003284
     atom    4 type  1   force =    -0.00000000    0.00000000   -0.00001340

     Total force =     0.000058     Total SCF correction =     0.000035
     SCF correction compared to forces is large: reduce conv_thr to get better values


     Computing stress (Cartesian axis) and pressure



     -----------------------------------------------
     Non-local corr. energy    =       0.20077283 Ry
     -----------------------------------------------

          total   stress  (Ry/bohr**3)                   (kbar)     P=       -0.09
  -0.00000108  -0.00000000   0.00000000           -0.16       -0.00        0.00
  -0.00000000  -0.00000108   0.00000000           -0.00       -0.16        0.00
   0.00000000   0.00000000   0.00000033            0.00        0.00        0.05

     kinetic stress (kbar)   4803.73     -0.00      0.00
                               -0.00   4803.73      0.00
                                0.00      0.00   5228.98

     local   stress (kbar)-109212.97      0.00      0.00
                                0.00-109212.97     -0.00
                                0.00     -0.00 109884.04

     nonloc. stress (kbar)   -791.74      0.00      0.00
                                0.00   -791.74      0.00
                                0.00      0.00   -765.23

     hartree stress (kbar)  53162.57     -0.00     -0.00
                               -0.00  53162.57      0.00
                               -0.00      0.00 -52330.72

     exc-cor stress (kbar)   -482.76     -0.00      0.00
                               -0.00   -482.76     -0.00
                                0.00     -0.00   -529.79

     corecor stress (kbar)   -539.54      0.00     -0.00
                                0.00   -539.54      0.00
                               -0.00      0.00   -527.87

     ewald   stress (kbar)  53056.18     -0.01     -0.00
                               -0.01  53056.18      0.00
                               -0.00      0.00 -60986.62

     hubbard stress (kbar)      0.00      0.00      0.00
                                0.00      0.00      0.00
                                0.00      0.00      0.00

     DFT-D   stress (kbar)      0.00      0.00      0.00
                                0.00      0.00      0.00
                                0.00      0.00      0.00

     XDM     stress (kbar)      0.00      0.00      0.00
                                0.00      0.00      0.00
                                0.00      0.00      0.00

     dft-nl  stress (kbar)      4.37      0.00      0.00
                                0.00      4.37     -0.00
                                0.00     -0.00     27.26

     TS-vdW  stress (kbar)      0.00      0.00      0.00
                                0.00      0.00      0.00
                                0.00      0.00      0.00

     MDB     stress (kbar)      0.00      0.00      0.00
                                0.00      0.00      0.00
                                0.00      0.00      0.00

     3D-RISM stress (kbar)      0.00      0.00      0.00
                                0.00      0.00      0.00
                                0.00      0.00      0.00


     Writing all to output data dir ./tmp/BN2L_AB1_PBE_vdW.save/

     init_run     :     13.87s CPU     14.12s WALL (       2 calls)
     electrons    :     65.95s CPU     65.47s WALL (       4 calls)
     update_pot   :      3.26s CPU      3.34s WALL (       2 calls)
     forces       :      4.33s CPU      4.48s WALL (       4 calls)
     stress       :     11.93s CPU     12.99s WALL (       4 calls)

     Called by init_run:
     wfcinit      :      1.00s CPU      1.02s WALL (       2 calls)
     wfcinit:atom :      0.02s CPU      0.03s WALL (      38 calls)
     wfcinit:wfcr :      0.89s CPU      0.90s WALL (      38 calls)
     potinit      :     10.64s CPU     10.85s WALL (       2 calls)
     hinit0       :      1.72s CPU      1.74s WALL (       2 calls)

     Called by electrons:
     c_bands      :     51.93s CPU     50.12s WALL (      41 calls)
     sum_band     :      6.35s CPU      6.56s WALL (      41 calls)
     v_of_rho     :     17.50s CPU     18.67s WALL (      45 calls)
     v_h          :      0.09s CPU      0.10s WALL (      45 calls)
     v_xc         :     18.81s CPU     20.17s WALL (      53 calls)
     mix_rho      :      0.31s CPU      0.45s WALL (      41 calls)
     vdW_kernel   :      9.55s CPU      9.70s WALL (       1 calls)

     Called by c_bands:
     init_us_2    :      1.22s CPU      1.25s WALL (    1748 calls)
     init_us_2:cp :      1.22s CPU      1.24s WALL (    1748 calls)
     cegterg      :     50.17s CPU     48.28s WALL (     779 calls)

     Called by sum_band:
     sum_band:wei :      0.00s CPU      0.00s WALL (      41 calls)
     sum_band:loo :      6.17s CPU      6.36s WALL (      41 calls)
     sum_band:buf :      0.21s CPU      0.21s WALL (     779 calls)
     sum_band:ini :      0.59s CPU      0.60s WALL (     779 calls)

     Called by *egterg:
     cdiaghg      :      0.82s CPU      0.84s WALL (    4109 calls)
     cegterg:over :      2.88s CPU      2.98s WALL (    3368 calls)
     cegterg:upda :      2.27s CPU      1.90s WALL (    3368 calls)
     cegterg:last :      3.10s CPU      2.02s WALL (    1997 calls)
     h_psi        :     40.28s CPU     39.56s WALL (    4185 calls)
     g_psi        :      0.26s CPU      0.31s WALL (    3368 calls)

     Called by h_psi:
     h_psi:calbec :      3.58s CPU      3.27s WALL (    4185 calls)
     vloc_psi     :     32.15s CPU     33.14s WALL (    4185 calls)
     add_vuspsi   :      4.16s CPU      2.73s WALL (    4185 calls)

     General routines
     calbec       :      4.01s CPU      3.70s WALL (    4565 calls)
     fft          :      4.05s CPU      4.19s WALL (    3374 calls)
     ffts         :      0.05s CPU      0.05s WALL (      41 calls)
     fftw         :     31.61s CPU     32.51s WALL (   68162 calls)

     Parallel routines

     PWSCF        :   1m39.50s CPU   1m40.62s WALL


   This run was terminated on:  14:36:55  17Apr2024            

=------------------------------------------------------------------------------=
   JOB DONE.
=------------------------------------------------------------------------------=
