
     Program PWSCF v.7.2 starts on 15Apr2024 at 11:48:44 

     This program is part of the open-source Quantum ESPRESSO suite
     for quantum simulation of materials; please cite
         "P. Giannozzi et al., J. Phys.:Condens. Matter 21 395502 (2009);
         "P. Giannozzi et al., J. Phys.:Condens. Matter 29 465901 (2017);
         "P. Giannozzi et al., J. Chem. Phys. 152 154105 (2020);
          URL http://www.quantum-espresso.org", 
     in publications or presentations arising from this work. More details at
     http://www.quantum-espresso.org/quote

     Parallel version (MPI & OpenMP), running on       8 processor cores
     Number of MPI processes:                 8
     Threads/MPI process:                     1

     MPI processes distributed on     1 nodes
     0 MiB available memory on the printing compute node when the environment starts

     Waiting for input...
     Reading input from standard input

     Current dimensions of program PWSCF are:
     Max number of different atomic species (ntypx) = 10
     Max number of k-points (npk) =  40000
     Max angular momentum in pseudopotentials (lmaxx) =  4

     IMPORTANT: XC functional enforced from input :
     Exchange-correlation= VDW-DF2-B86R
                           (   1   4  26   0   2   0   0)
     Any further DFT definition will be discarded
     Please, verify this is what you really want


     R & G space division:  proc/nbgrp/npool/nimage =       8
     Subspace diagonalization in iterative solution of the eigenvalue problem:
     a serial algorithm will be used


     Parallelization info
     --------------------
     sticks:   dense  smooth     PW     G-vecs:    dense   smooth      PW
     Min          93      93     26                16393    16393    2566
     Max          94      94     27                16428    16428    2595
     Sum         745     745    211               131209   131209   20621

     Using Slab Decomposition



     bravais-lattice index     =            4
     lattice parameter (alat)  =       4.7400  a.u.
     unit-cell volume          =     737.8289 (a.u.)^3
     number of atoms/cell      =            4
     number of atomic types    =            2
     number of electrons       =        16.00
     number of Kohn-Sham states=           12
     kinetic-energy cutoff     =     120.0000  Ry
     charge density cutoff     =     480.0000  Ry
     scf convergence threshold =      1.0E-06
     mixing beta               =       0.7000
     number of iterations used =            8  plain     mixing
     energy convergence thresh.=      1.0E-04
     force convergence thresh. =      1.0E-03
     press convergence thresh. =      5.0E-01
     Exchange-correlation= VDW-DF2-B86R
                           (   1   4  26   0   2   0   0)
     nstep                     =           50


     celldm(1)=   4.740000  celldm(2)=   0.000000  celldm(3)=   8.000000
     celldm(4)=   0.000000  celldm(5)=   0.000000  celldm(6)=   0.000000

     crystal axes: (cart. coord. in units of alat)
               a(1) = (   1.000000   0.000000   0.000000 )  
               a(2) = (  -0.500000   0.866025   0.000000 )  
               a(3) = (   0.000000   0.000000   8.000000 )  

     reciprocal axes: (cart. coord. in units 2 pi/alat)
               b(1) = (  1.000000  0.577350 -0.000000 )  
               b(2) = (  0.000000  1.154701  0.000000 )  
               b(3) = (  0.000000 -0.000000  0.125000 )  


     PseudoPot. # 1 for B  read from file:
     ../../../../Pseudo/PBE/B.upf
     MD5 check sum: 72f82fc31bc892420d0cab7e25c88ab8
     Pseudo is Norm-conserving + core correction, Zval =  3.0
     Generated using ONCVPSP code by D. R. Hamann
     Using radial grid of 1534 points,  4 beta functions with: 
                l(1) =   0
                l(2) =   0
                l(3) =   1
                l(4) =   1

     PseudoPot. # 2 for N  read from file:
     ../../../../Pseudo/PBE/N.upf
     MD5 check sum: d34365f73bb0e2ee98afc20ec3e87676
     Pseudo is Norm-conserving + core correction, Zval =  5.0
     Generated using ONCVPSP code by D. R. Hamann
     Using radial grid of 1058 points,  4 beta functions with: 
                l(1) =   0
                l(2) =   0
                l(3) =   1
                l(4) =   1

     atomic species   valence    mass     pseudopotential
        B              3.00    10.00000     B ( 1.00)
        N              5.00    14.01100     N ( 1.00)

      6 Sym. Ops. (no inversion) found


                                    s                        frac. trans.

      isym =  1     identity                                     

 cryst.   s( 1) = (     1          0          0      )
                  (     0          1          0      )
                  (     0          0          1      )

 cart.    s( 1) = (  1.0000000  0.0000000  0.0000000 )
                  (  0.0000000  1.0000000  0.0000000 )
                  (  0.0000000  0.0000000  1.0000000 )


      isym =  2     120 deg rotation - cryst. axis [0,0,1]       

 cryst.   s( 2) = (     0          1          0      )
                  (    -1         -1          0      )
                  (     0          0          1      )

 cart.    s( 2) = ( -0.5000000 -0.8660254  0.0000000 )
                  (  0.8660254 -0.5000000  0.0000000 )
                  (  0.0000000  0.0000000  1.0000000 )


      isym =  3     120 deg rotation - cryst. axis [0,0,-1]      

 cryst.   s( 3) = (    -1         -1          0      )
                  (     1          0          0      )
                  (     0          0          1      )

 cart.    s( 3) = ( -0.5000000  0.8660254  0.0000000 )
                  ( -0.8660254 -0.5000000  0.0000000 )
                  (  0.0000000  0.0000000  1.0000000 )


      isym =  4     inv. 180 deg rotation - cart. axis [1,0,0]   

 cryst.   s( 4) = (    -1          0          0      )
                  (     1          1          0      )
                  (     0          0          1      )

 cart.    s( 4) = ( -1.0000000  0.0000000  0.0000000 )
                  (  0.0000000  1.0000000  0.0000000 )
                  (  0.0000000  0.0000000  1.0000000 )


      isym =  5     inv. 180 deg rotation - cryst. axis [0,1,0]  

 cryst.   s( 5) = (     1          1          0      )
                  (     0         -1          0      )
                  (     0          0          1      )

 cart.    s( 5) = (  0.5000000  0.8660254  0.0000000 )
                  (  0.8660254 -0.5000000  0.0000000 )
                  (  0.0000000  0.0000000  1.0000000 )


      isym =  6     inv. 180 deg rotation - cryst. axis [1,1,0]  

 cryst.   s( 6) = (     0         -1          0      )
                  (    -1          0          0      )
                  (     0          0          1      )

 cart.    s( 6) = (  0.5000000 -0.8660254  0.0000000 )
                  ( -0.8660254 -0.5000000  0.0000000 )
                  (  0.0000000  0.0000000  1.0000000 )


     point group C_3v (3m)  
     there are  3 classes
     the character table:

       E     2C3   3s_v 
A_1    1.00  1.00  1.00
A_2    1.00  1.00 -1.00
E      2.00 -1.00  0.00

     the symmetry operations in each class and the name of the first element:

     E        1
          identity                                               
     2C3      2    3
          120 deg rotation - cryst. axis [0,0,1]                 
     3s_v     4    5    6
          inv. 180 deg rotation - cart. axis [1,0,0]             

   Cartesian axes

     site n.     atom                  positions (alat units)
         1           B   tau(   1) = (   0.0000000   0.0000000   0.0000000  )
         2           N   tau(   2) = (  -0.0000003   0.5773502   0.0000000  )
         3           N   tau(   3) = (   0.0000000   0.0000000   1.3521257  )
         4           B   tau(   4) = (   0.5000005   0.2886748   1.3513452  )

   Crystallographic axes

     site n.     atom                  positions (cryst. coord.)
         1           B   tau(   1) = (  0.0000000  0.0000000  0.0000000  )
         2           N   tau(   2) = (  0.3333330  0.6666666  0.0000000  )
         3           N   tau(   3) = (  0.0000000  0.0000000  0.1690157  )
         4           B   tau(   4) = (  0.6666670  0.3333330  0.1689181  )

     number of k points=    19  Marzari-Vanderbilt smearing, width (Ry)=  0.0050
                       cart. coord. in units 2pi/alat
        k(    1) = (   0.0000000   0.0000000   0.0000000), wk =   0.0138889
        k(    2) = (   0.0000000   0.0962250   0.0000000), wk =   0.0833333
        k(    3) = (   0.0000000   0.1924501   0.0000000), wk =   0.0833333
        k(    4) = (   0.0000000   0.2886751   0.0000000), wk =   0.0833333
        k(    5) = (   0.0000000   0.3849002   0.0000000), wk =   0.0833333
        k(    6) = (   0.0000000   0.4811252   0.0000000), wk =   0.0833333
        k(    7) = (   0.0000000  -0.5773503   0.0000000), wk =   0.0416667
        k(    8) = (   0.0833333   0.1443376   0.0000000), wk =   0.0833333
        k(    9) = (   0.0833333   0.2405626   0.0000000), wk =   0.1666667
        k(   10) = (   0.0833333   0.3367877   0.0000000), wk =   0.1666667
        k(   11) = (   0.0833333   0.4330127   0.0000000), wk =   0.1666667
        k(   12) = (   0.0833333   0.5292377   0.0000000), wk =   0.1666667
        k(   13) = (   0.1666667   0.2886751   0.0000000), wk =   0.0833333
        k(   14) = (   0.1666667   0.3849002   0.0000000), wk =   0.1666667
        k(   15) = (   0.1666667   0.4811252   0.0000000), wk =   0.1666667
        k(   16) = (   0.1666667   0.5773503   0.0000000), wk =   0.0833333
        k(   17) = (   0.2500000   0.4330127   0.0000000), wk =   0.0833333
        k(   18) = (   0.2500000   0.5292377   0.0000000), wk =   0.1666667
        k(   19) = (   0.3333333   0.5773503   0.0000000), wk =   0.0277778

                       cryst. coord.
        k(    1) = (   0.0000000   0.0000000   0.0000000), wk =   0.0138889
        k(    2) = (   0.0000000   0.0833333   0.0000000), wk =   0.0833333
        k(    3) = (   0.0000000   0.1666667   0.0000000), wk =   0.0833333
        k(    4) = (   0.0000000   0.2500000   0.0000000), wk =   0.0833333
        k(    5) = (   0.0000000   0.3333333   0.0000000), wk =   0.0833333
        k(    6) = (   0.0000000   0.4166667   0.0000000), wk =   0.0833333
        k(    7) = (   0.0000000  -0.5000000   0.0000000), wk =   0.0416667
        k(    8) = (   0.0833333   0.0833333   0.0000000), wk =   0.0833333
        k(    9) = (   0.0833333   0.1666667   0.0000000), wk =   0.1666667
        k(   10) = (   0.0833333   0.2500000   0.0000000), wk =   0.1666667
        k(   11) = (   0.0833333   0.3333333   0.0000000), wk =   0.1666667
        k(   12) = (   0.0833333   0.4166667   0.0000000), wk =   0.1666667
        k(   13) = (   0.1666667   0.1666667   0.0000000), wk =   0.0833333
        k(   14) = (   0.1666667   0.2500000   0.0000000), wk =   0.1666667
        k(   15) = (   0.1666667   0.3333333   0.0000000), wk =   0.1666667
        k(   16) = (   0.1666667   0.4166667   0.0000000), wk =   0.0833333
        k(   17) = (   0.2500000   0.2500000   0.0000000), wk =   0.0833333
        k(   18) = (   0.2500000   0.3333333   0.0000000), wk =   0.1666667
        k(   19) = (   0.3333333   0.3333333   0.0000000), wk =   0.0277778

     Dense  grid:   131209 G-vectors     FFT dimensions: (  36,  36, 270)

     Dynamical RAM for                 wfc:       0.37 MB

     Dynamical RAM for     wfc (w. buffer):       7.50 MB

     Dynamical RAM for           str. fact:       0.50 MB

     Dynamical RAM for           local pot:       0.00 MB

     Dynamical RAM for          nlocal pot:       1.00 MB

     Dynamical RAM for                qrad:       2.01 MB

     Dynamical RAM for          rho,v,vnew:       1.76 MB

     Dynamical RAM for               rhoin:       0.59 MB

     Dynamical RAM for            rho*nmix:       4.00 MB

     Dynamical RAM for           G-vectors:       1.06 MB

     Dynamical RAM for          h,s,v(r/c):       0.03 MB

     Dynamical RAM for          <psi|beta>:       0.01 MB

     Dynamical RAM for                 psi:       0.75 MB

     Dynamical RAM for                hpsi:       0.75 MB

     Dynamical RAM for      wfcinit/wfcrot:       1.01 MB

     Estimated static dynamical RAM per process >      16.84 MB

     Estimated max dynamical RAM per process >      22.38 MB

     Estimated total dynamical RAM >     179.03 MB

     Initial potential from superposition of free atoms

     starting charge      15.9995, renormalised to      16.0000

     negative rho (up, down):  4.241E-06 0.000E+00


     %%%%%%%%%%%%%%%%%%%%%%%%%%%%%%%%%%%%%%%%%%%%%%%%%%%%%%%%%%%%%%%%%%%%%%%%
     %                                                                      %
     % You are using vdW-DF, which was implemented by the Thonhauser group. %
     % Please cite the following two papers that made this development      %
     % possible and the two reviews that describe the various versions:     %
     %                                                                      %
     %   T. Thonhauser et al., PRL 115, 136402 (2015).                      %
     %   T. Thonhauser et al., PRB 76, 125112 (2007).                       %
     %   K. Berland et al., Rep. Prog. Phys. 78, 066501 (2015).             %
     %   D.C. Langreth et al., J. Phys.: Condens. Matter 21, 084203 (2009). %
     %                                                                      %
     % If you are calculating stress with vdW-DF, please also cite:         %
     %                                                                      %
     %   R. Sabatini et al., J. Phys.: Condens. Matter 24, 424209 (2012).   %
     %                                                                      %
     %%%%%%%%%%%%%%%%%%%%%%%%%%%%%%%%%%%%%%%%%%%%%%%%%%%%%%%%%%%%%%%%%%%%%%%%

     %%%%%%%%%%%%%%%%%%%%%%%%%%%%%%%%%%%%%%%%%%%%%%%%%%%%%%%%%%%%%%%%%%%%%%%%
     %                                                                      %
     %  vdW-DF NEWS:                                                        %
     %                                                                      %
     %  * vdW-DF3 is now available. DOI: 10.1021/acs.jctc.0c00471           %
     %    use with input_dft = 'vdW-DF3-opt1' or 'vdW-DF3-opt2'             %
     %                                                                      %
     %  * Unscreened and range-separated hybrid vdW-DF-cx functionals       %
     %    DOI: 10.1063/1.4986522 and 10.1088/1361-648X/ac2ad2               %
     %    use with input_dft = 'vdW-DF-cx0'    and 'vdW-DF-ahcx'            %
     %  * Unscreened and range-separated hybrid vdW-DF2-b86r functionals    %
     %    DOI: 10.1063/1.4986522 and DOI: 10.1103/PhysRevX.12.041003        %
     %    use with input_dft = 'vdW-DF2-br0' and 'vdW-DF2-ahbr'             %
     %                                                                      %
     %%%%%%%%%%%%%%%%%%%%%%%%%%%%%%%%%%%%%%%%%%%%%%%%%%%%%%%%%%%%%%%%%%%%%%%%


     Carrying out vdW-DF run using the following parameters:
     Nqs    =  20  Npoints =  1024  r_max =  100.000
     q_mesh =  0.00001000  0.04494208  0.09755937  0.15916263
               0.23128650  0.31572767  0.41458969  0.53033537
               0.66584808  0.82450364  1.01025438  1.22772762
               1.48234092  1.78043706  2.12944203  2.53805004
               3.01644009  3.57652955  4.23227104  5.00000000


     -----------------------------------------------
     Non-local corr. energy    =       0.17587259 Ry
     -----------------------------------------------

     Starting wfcs are   16 randomized atomic wfcs

     total cpu time spent up to now is       11.0 secs

     Self-consistent Calculation

     iteration #  1     ecut=   120.00 Ry     beta= 0.70
     Davidson diagonalization with overlap

---- Real-time Memory Report at c_bands before calling an iterative solver
             0 MiB given to the printing process from OS
             0 MiB allocation reported by mallinfo(arena+hblkhd)
             0 MiB available memory on the node where the printing process lives
------------------
     ethr =  1.00E-02,  avg # of iterations =  4.2


     -----------------------------------------------
     Non-local corr. energy    =       0.20605663 Ry
     -----------------------------------------------


     total cpu time spent up to now is       12.7 secs

     total energy              =     -53.44475206 Ry
     estimated scf accuracy    <       0.76651391 Ry

     iteration #  2     ecut=   120.00 Ry     beta= 0.70
     Davidson diagonalization with overlap

---- Real-time Memory Report at c_bands before calling an iterative solver
             0 MiB given to the printing process from OS
             0 MiB allocation reported by mallinfo(arena+hblkhd)
             0 MiB available memory on the node where the printing process lives
------------------
     ethr =  4.79E-03,  avg # of iterations =  3.4


     -----------------------------------------------
     Non-local corr. energy    =       0.19988238 Ry
     -----------------------------------------------


     total cpu time spent up to now is       14.3 secs

     total energy              =     -53.64535042 Ry
     estimated scf accuracy    <       0.33162046 Ry

     iteration #  3     ecut=   120.00 Ry     beta= 0.70
     Davidson diagonalization with overlap

---- Real-time Memory Report at c_bands before calling an iterative solver
             0 MiB given to the printing process from OS
             0 MiB allocation reported by mallinfo(arena+hblkhd)
             0 MiB available memory on the node where the printing process lives
------------------
     ethr =  2.07E-03,  avg # of iterations =  2.0


     -----------------------------------------------
     Non-local corr. energy    =       0.20186334 Ry
     -----------------------------------------------


     total cpu time spent up to now is       16.2 secs

     total energy              =     -53.69869910 Ry
     estimated scf accuracy    <       0.00547139 Ry

     iteration #  4     ecut=   120.00 Ry     beta= 0.70
     Davidson diagonalization with overlap

---- Real-time Memory Report at c_bands before calling an iterative solver
             0 MiB given to the printing process from OS
             0 MiB allocation reported by mallinfo(arena+hblkhd)
             0 MiB available memory on the node where the printing process lives
------------------
     ethr =  3.42E-05,  avg # of iterations =  9.3


     -----------------------------------------------
     Non-local corr. energy    =       0.20199075 Ry
     -----------------------------------------------


     total cpu time spent up to now is       18.8 secs

     total energy              =     -53.70336852 Ry
     estimated scf accuracy    <       0.00530798 Ry

     iteration #  5     ecut=   120.00 Ry     beta= 0.70
     Davidson diagonalization with overlap

---- Real-time Memory Report at c_bands before calling an iterative solver
             0 MiB given to the printing process from OS
             0 MiB allocation reported by mallinfo(arena+hblkhd)
             0 MiB available memory on the node where the printing process lives
------------------
     ethr =  3.32E-05,  avg # of iterations =  3.1


     -----------------------------------------------
     Non-local corr. energy    =       0.20195928 Ry
     -----------------------------------------------


     total cpu time spent up to now is       20.4 secs

     total energy              =     -53.70351123 Ry
     estimated scf accuracy    <       0.00096739 Ry

     iteration #  6     ecut=   120.00 Ry     beta= 0.70
     Davidson diagonalization with overlap

---- Real-time Memory Report at c_bands before calling an iterative solver
             0 MiB given to the printing process from OS
             0 MiB allocation reported by mallinfo(arena+hblkhd)
             0 MiB available memory on the node where the printing process lives
------------------
     ethr =  6.05E-06,  avg # of iterations =  3.8

     negative rho (up, down):  1.943E-07 0.000E+00


     -----------------------------------------------
     Non-local corr. energy    =       0.20198348 Ry
     -----------------------------------------------


     total cpu time spent up to now is       21.8 secs

     total energy              =     -53.70380494 Ry
     estimated scf accuracy    <       0.00001817 Ry

     iteration #  7     ecut=   120.00 Ry     beta= 0.70
     Davidson diagonalization with overlap

---- Real-time Memory Report at c_bands before calling an iterative solver
             0 MiB given to the printing process from OS
             0 MiB allocation reported by mallinfo(arena+hblkhd)
             0 MiB available memory on the node where the printing process lives
------------------
     ethr =  1.14E-07,  avg # of iterations =  6.4


     -----------------------------------------------
     Non-local corr. energy    =       0.20199290 Ry
     -----------------------------------------------


     total cpu time spent up to now is       23.5 secs

     total energy              =     -53.70380994 Ry
     estimated scf accuracy    <       0.00002501 Ry

     iteration #  8     ecut=   120.00 Ry     beta= 0.70
     Davidson diagonalization with overlap

---- Real-time Memory Report at c_bands before calling an iterative solver
             0 MiB given to the printing process from OS
             0 MiB allocation reported by mallinfo(arena+hblkhd)
             0 MiB available memory on the node where the printing process lives
------------------
     ethr =  1.14E-07,  avg # of iterations =  1.1


     -----------------------------------------------
     Non-local corr. energy    =       0.20199993 Ry
     -----------------------------------------------


     total cpu time spent up to now is       24.5 secs

     total energy              =     -53.70380768 Ry
     estimated scf accuracy    <       0.00000692 Ry

     iteration #  9     ecut=   120.00 Ry     beta= 0.70
     Davidson diagonalization with overlap

---- Real-time Memory Report at c_bands before calling an iterative solver
             0 MiB given to the printing process from OS
             0 MiB allocation reported by mallinfo(arena+hblkhd)
             0 MiB available memory on the node where the printing process lives
------------------
     ethr =  4.33E-08,  avg # of iterations =  2.0


     -----------------------------------------------
     Non-local corr. energy    =       0.20200038 Ry
     -----------------------------------------------


     total cpu time spent up to now is       25.9 secs

     End of self-consistent calculation

          k = 0.0000 0.0000 0.0000 ( 16399 PWs)   bands (ev):

   -20.1517 -20.0016  -8.1934  -7.2167  -3.8858  -3.8858  -3.8059  -3.8059
     2.0170   2.5659   3.7015   4.7785

     occupation numbers 
     1.0000   1.0000   1.0000   1.0000   1.0000   1.0000   1.0000   1.0000
     0.0000   0.0000   0.0000   0.0000

          k = 0.0000 0.0962 0.0000 ( 16391 PWs)   bands (ev):

   -20.0180 -19.8697  -8.0101  -7.0429  -4.4375  -4.3577  -4.1417  -4.0614
     2.2492   2.7796   3.9240   4.9950

     occupation numbers 
     1.0000   1.0000   1.0000   1.0000   1.0000   1.0000   1.0000   1.0000
     0.0000   0.0000   0.0000   0.0000

          k = 0.0000 0.1925 0.0000 ( 16390 PWs)   bands (ev):

   -19.6243 -19.4813  -7.4687  -6.5346  -5.8298  -5.7477  -4.7658  -4.6847
     2.9091   3.4014   4.5780   5.4640

     occupation numbers 
     1.0000   1.0000   1.0000   1.0000   1.0000   1.0000   1.0000   1.0000
     0.0000   0.0000   0.0000   0.0000

          k = 0.0000 0.2887 0.0000 ( 16370 PWs)   bands (ev):

   -18.9977 -18.8640  -7.6097  -7.5262  -6.5826  -5.7063  -5.4907  -5.4088
     3.9514   4.3490   5.4921   5.8689

     occupation numbers 
     1.0000   1.0000   1.0000   1.0000   1.0000   1.0000   1.0000   1.0000
     0.0000   0.0000   0.0000   0.0000

          k = 0.0000 0.3849 0.0000 ( 16376 PWs)   bands (ev):

   -18.2068 -18.0868  -9.3743  -9.2834  -6.1143  -6.0320  -5.4460  -4.6734
     4.3794   4.7069   5.3265   6.3506

     occupation numbers 
     1.0000   1.0000   1.0000   1.0000   1.0000   1.0000   1.0000   1.0000
     0.0000   0.0000   0.0000   0.0000

          k = 0.0000 0.4811 0.0000 ( 16402 PWs)   bands (ev):

   -17.4271 -17.3267 -10.7878 -10.6922  -6.5238  -6.4412  -4.2303  -3.6679
     2.8234   3.3290   6.7155   7.3555

     occupation numbers 
     1.0000   1.0000   1.0000   1.0000   1.0000   1.0000   1.0000   1.0000
     0.0000   0.0000   0.0000   0.0000

          k = 0.0000-0.5774 0.0000 ( 16394 PWs)   bands (ev):

   -17.0579 -16.9719 -11.3722 -11.2757  -6.6656  -6.5828  -3.5453  -3.2492
     2.0784   2.6166   7.2924   7.3782

     occupation numbers 
     1.0000   1.0000   1.0000   1.0000   1.0000   1.0000   1.0000   1.0000
     0.0000   0.0000   0.0000   0.0000

          k = 0.0833 0.1443 0.0000 ( 16405 PWs)   bands (ev):

   -19.7542 -19.6094  -7.6475  -6.7007  -5.3429  -5.2640  -4.6472  -4.5676
     2.6960   3.1982   4.3634   5.3168

     occupation numbers 
     1.0000   1.0000   1.0000   1.0000   1.0000   1.0000   1.0000   1.0000
     0.0000   0.0000   0.0000   0.0000

          k = 0.0833 0.2406 0.0000 ( 16381 PWs)   bands (ev):

   -19.2427 -19.1052  -6.9664  -6.8115  -6.7222  -6.0225  -5.4318  -5.3512
     3.5539   3.9972   5.2098   5.7921

     occupation numbers 
     1.0000   1.0000   1.0000   1.0000   1.0000   1.0000   1.0000   1.0000
     0.0000   0.0000   0.0000   0.0000

          k = 0.0833 0.3368 0.0000 ( 16367 PWs)   bands (ev):

   -18.5276 -18.4014  -8.5269  -8.4415  -6.1762  -6.0957  -5.9143  -5.0918
     4.7635   4.8373   5.1890   6.2797

     occupation numbers 
     1.0000   1.0000   1.0000   1.0000   1.0000   1.0000   1.0000   1.0000
     0.0000   0.0000   0.0000   0.0000

          k = 0.0833 0.4330 0.0000 ( 16378 PWs)   bands (ev):

   -17.7186 -17.6089 -10.1055 -10.0134  -6.7259  -6.6428  -4.7100  -4.0350
     3.5762   3.9772   6.3056   7.1384

     occupation numbers 
     1.0000   1.0000   1.0000   1.0000   1.0000   1.0000   1.0000   1.0000
     0.0000   0.0000   0.0000   0.0000

          k = 0.0833 0.5292 0.0000 ( 16379 PWs)   bands (ev):

   -17.0909 -17.0010 -11.1422 -11.0468  -7.0143  -6.9306  -3.6466  -3.2548
     2.3125   2.8111   7.5806   7.9406

     occupation numbers 
     1.0000   1.0000   1.0000   1.0000   1.0000   1.0000   1.0000   1.0000
     0.0000   0.0000   0.0000   0.0000

          k = 0.1667 0.2887 0.0000 ( 16366 PWs)   bands (ev):

   -18.6387 -18.5104  -8.0243  -7.9479  -6.4406  -6.3627  -6.0746  -5.2363
     4.6088   4.8134   5.4111   6.3871

     occupation numbers 
     1.0000   1.0000   1.0000   1.0000   1.0000   1.0000   1.0000   1.0000
     0.0000   0.0000   0.0000   0.0000

          k = 0.1667 0.3849 0.0000 ( 16360 PWs)   bands (ev):

   -17.8839 -17.7692  -9.3686  -9.2870  -7.3025  -7.2206  -4.9731  -4.2460
     4.2224   4.4052   6.0569   6.8561

     occupation numbers 
     1.0000   1.0000   1.0000   1.0000   1.0000   1.0000   1.0000   1.0000
     0.0000   0.0000   0.0000   0.0000

          k = 0.1667 0.4811 0.0000 ( 16379 PWs)   bands (ev):

   -17.1539 -17.0574 -10.5519 -10.4619  -7.8226  -7.7375  -3.8097  -3.2945
     2.8508   3.1904   7.7474   8.4241

     occupation numbers 
     1.0000   1.0000   1.0000   1.0000   1.0000   1.0000   1.0000   1.0000
     0.0000   0.0000   0.0000   0.0000

          k = 0.1667 0.5774 0.0000 ( 16386 PWs)   bands (ev):

   -16.8161 -16.7318 -11.0554 -10.9621  -7.9940  -7.9077  -3.1638  -2.9033
     2.1940   2.5911   8.9457   9.1408

     occupation numbers 
     1.0000   1.0000   1.0000   1.0000   1.0000   1.0000   1.0000   1.0000
     0.0000   0.0000   0.0000   0.0000

          k = 0.2500 0.4330 0.0000 ( 16348 PWs)   bands (ev):

   -17.1840 -17.0846 -10.0901 -10.0129  -8.3785  -8.2970  -3.8803  -3.3204
     3.2133   3.3273   7.6751   8.2762

     occupation numbers 
     1.0000   1.0000   1.0000   1.0000   1.0000   1.0000   1.0000   1.0000
     0.0000   0.0000   0.0000   0.0000

          k = 0.2500 0.5292 0.0000 ( 16377 PWs)   bands (ev):

   -16.6735 -16.5890 -10.6056 -10.5202  -8.9845  -8.8991  -2.9575  -2.6695
     2.3561   2.5570   9.3563   9.6232

     occupation numbers 
     1.0000   1.0000   1.0000   1.0000   1.0000   1.0000   1.0000   1.0000
     0.0000   0.0000   0.0000   0.0000

          k = 0.3333 0.5774 0.0000 ( 16404 PWs)   bands (ev):

   -16.4796 -16.3997 -10.3906 -10.3188  -9.6498  -9.5766  -2.5421  -2.4494
     2.1679   2.3010   9.5472   9.7294

     occupation numbers 
     1.0000   1.0000   1.0000   1.0000   1.0000   1.0000   1.0000   1.0000
     0.0000   0.0000   0.0000   0.0000

     the Fermi energy is    -1.3060 ev

!    total energy              =     -53.70380936 Ry
     estimated scf accuracy    <          7.7E-09 Ry
     smearing contrib. (-TS)   =       0.00000000 Ry
     internal energy E=F+TS    =     -53.70380936 Ry

     The total energy is F=E-TS. E is the sum of the following terms:
     one-electron contribution =    -525.74872971 Ry
     hartree contribution      =     267.04289890 Ry
     xc contribution           =     -17.38709852 Ry
     ewald contribution        =     222.38911997 Ry

     convergence has been achieved in   9 iterations


     -----------------------------------------------
     Non-local corr. energy    =       0.20200038 Ry
     -----------------------------------------------


     Forces acting on atoms (cartesian axes, Ry/au):

     atom    1 type  1   force =     0.00000000    0.00000000    0.00131270
     atom    2 type  2   force =     0.00000000   -0.00000000   -0.00022068
     atom    3 type  2   force =     0.00000000    0.00000000   -0.00137461
     atom    4 type  1   force =     0.00000000    0.00000000    0.00028259
     The non-local contrib.  to forces
     atom    1 type  1   force =     0.00000000   -0.00000000    0.00046032
     atom    2 type  2   force =     0.00000000    0.00000000   -0.00013684
     atom    3 type  2   force =     0.00000000    0.00000000   -0.00491908
     atom    4 type  1   force =     0.00000000   -0.00000000    0.00002992
     The ionic contribution  to forces
     atom    1 type  1   force =    -0.00000464   -0.00000089  -10.26392899
     atom    2 type  2   force =     0.00000464    0.00000089  -17.09856971
     atom    3 type  2   force =     0.00000773   -0.00000446   17.12371352
     atom    4 type  1   force =    -0.00000773    0.00000446   10.23878518
     The local contribution  to forces
     atom    1 type  1   force =    -0.00000000   -0.00000000   10.26480249
     atom    2 type  2   force =     0.00002008    0.00000387   17.09847049
     atom    3 type  2   force =    -0.00000000    0.00000000  -17.12052420
     atom    4 type  1   force =     0.00000420   -0.00000242  -10.23871872
     The core correction contribution to forces
     atom    1 type  1   force =    -0.00000000   -0.00000000   -0.00004922
     atom    2 type  2   force =    -0.00000083   -0.00000016   -0.00002087
     atom    3 type  2   force =     0.00000000   -0.00000000    0.00015539
     atom    4 type  1   force =     0.00000025   -0.00000015    0.00008626
     The Hubbard contrib.    to forces
     atom    1 type  1   force =     0.00000000    0.00000000    0.00000000
     atom    2 type  2   force =     0.00000000    0.00000000    0.00000000
     atom    3 type  2   force =     0.00000000    0.00000000    0.00000000
     atom    4 type  1   force =     0.00000000    0.00000000    0.00000000
     The SCF correction term to forces
     atom    1 type  1   force =     0.00000000    0.00000000    0.00000000
     atom    2 type  2   force =    -0.00000000   -0.00000000    0.00000000
     atom    3 type  2   force =     0.00000000    0.00000000    0.00017892
     atom    4 type  1   force =    -0.00000000   -0.00000000    0.00007912

     Total force =     0.001403     Total SCF correction =     0.000196
     SCF correction compared to forces is large: reduce conv_thr to get better values


     Computing stress (Cartesian axis) and pressure



     -----------------------------------------------
     Non-local corr. energy    =       0.20200038 Ry
     -----------------------------------------------

          total   stress  (Ry/bohr**3)                   (kbar)     P=        3.65
   0.00004223   0.00000000   0.00000000            6.21        0.00        0.00
   0.00000000   0.00004223  -0.00000000            0.00        6.21       -0.00
   0.00000000  -0.00000000  -0.00001010            0.00       -0.00       -1.49

     kinetic stress (kbar)   4829.42      0.00      0.00
                                0.00   4829.42     -0.00
                                0.00     -0.00   5250.80

     local   stress (kbar)-107725.13      0.00      0.00
                                0.00-107725.13     -0.00
                                0.00     -0.00 108413.71

     nonloc. stress (kbar)   -797.08      0.00      0.00
                                0.00   -797.08     -0.00
                                0.00     -0.00   -768.96

     hartree stress (kbar)  52409.29     -0.00      0.00
                               -0.00  52409.29      0.00
                                0.00      0.00 -51576.74

     exc-cor stress (kbar)   -485.08     -0.00      0.00
                               -0.00   -485.08     -0.00
                                0.00     -0.00   -532.79

     corecor stress (kbar)   -541.72      0.00     -0.00
                                0.00   -541.72      0.00
                               -0.00      0.00   -529.86

     ewald   stress (kbar)  52312.17     -0.01     -0.00
                               -0.01  52312.17     -0.00
                               -0.00     -0.00 -60285.38

     hubbard stress (kbar)      0.00      0.00      0.00
                                0.00      0.00      0.00
                                0.00      0.00      0.00

     DFT-D   stress (kbar)      0.00      0.00      0.00
                                0.00      0.00      0.00
                                0.00      0.00      0.00

     XDM     stress (kbar)      0.00      0.00      0.00
                                0.00      0.00      0.00
                                0.00      0.00      0.00

     dft-nl  stress (kbar)      4.35      0.00     -0.00
                                0.00      4.35     -0.00
                               -0.00     -0.00     27.73

     TS-vdW  stress (kbar)      0.00      0.00      0.00
                                0.00      0.00      0.00
                                0.00      0.00      0.00

     MDB     stress (kbar)      0.00      0.00      0.00
                                0.00      0.00      0.00
                                0.00      0.00      0.00

     3D-RISM stress (kbar)      0.00      0.00      0.00
                                0.00      0.00      0.00
                                0.00      0.00      0.00


     BFGS Geometry Optimization
     Energy error            =      0.0E+00 Ry
     Gradient error          =      1.4E-03 Ry/Bohr
     Cell gradient error     =      1.5E+00 kbar

     number of scf cycles    =   1
     number of bfgs steps    =   0

     enthalpy           new  =     -53.7038093595 Ry

     new trust radius        =       0.0013746110 bohr
     new conv_thr            =       0.0000010000 Ry

     new unit-cell volume =    737.64260 a.u.^3 (   109.30736 Ang^3 )
     density =      0.72952 g/cm^3

CELL_PARAMETERS (alat=  4.74000000)
   1.000000000   0.000000000   0.000000000
  -0.500000000   0.866025404   0.000000000
   0.000000000   0.000000000   7.997980399

ATOMIC_POSITIONS (crystal)
B             0.0000000000        0.0000000000        0.0000000000    0   0   0
N             0.3333330000        0.6666666000        0.0000000000    0   0   0
N             0.0000000000        0.0000000000        0.1689794649
B             0.6666670000        0.3333330000        0.1689255978



     Writing config-only to output data dir ./tmp/BN2L_AB1_PBE_vdW.save/
     NEW-OLD atomic charge density approx. for the potential

     negative rho (up, down):  4.194E-08 0.000E+00


     -----------------------------------------------
     Non-local corr. energy    =       0.20195401 Ry
     -----------------------------------------------

     extrapolated charge   15.99596, renormalised to   16.00000

     total cpu time spent up to now is       31.4 secs

     Self-consistent Calculation

     iteration #  1     ecut=   120.00 Ry     beta= 0.70
     Davidson diagonalization with overlap

---- Real-time Memory Report at c_bands before calling an iterative solver
             0 MiB given to the printing process from OS
             0 MiB allocation reported by mallinfo(arena+hblkhd)
             0 MiB available memory on the node where the printing process lives
------------------
     ethr =  1.00E-06,  avg # of iterations =  4.5


     -----------------------------------------------
     Non-local corr. energy    =       0.20204498 Ry
     -----------------------------------------------


     total cpu time spent up to now is       32.8 secs

     total energy              =     -53.70378827 Ry
     estimated scf accuracy    <       0.00001926 Ry

     iteration #  2     ecut=   120.00 Ry     beta= 0.70
     Davidson diagonalization with overlap

---- Real-time Memory Report at c_bands before calling an iterative solver
             0 MiB given to the printing process from OS
             0 MiB allocation reported by mallinfo(arena+hblkhd)
             0 MiB available memory on the node where the printing process lives
------------------
     ethr =  1.20E-07,  avg # of iterations =  5.2


     -----------------------------------------------
     Non-local corr. energy    =       0.20202063 Ry
     -----------------------------------------------


     total cpu time spent up to now is       34.3 secs

     total energy              =     -53.70380829 Ry
     estimated scf accuracy    <       0.00007187 Ry

     iteration #  3     ecut=   120.00 Ry     beta= 0.70
     Davidson diagonalization with overlap

---- Real-time Memory Report at c_bands before calling an iterative solver
             0 MiB given to the printing process from OS
             0 MiB allocation reported by mallinfo(arena+hblkhd)
             0 MiB available memory on the node where the printing process lives
------------------
     ethr =  1.20E-07,  avg # of iterations =  2.0


     -----------------------------------------------
     Non-local corr. energy    =       0.20201104 Ry
     -----------------------------------------------


     total cpu time spent up to now is       35.4 secs

     total energy              =     -53.70381386 Ry
     estimated scf accuracy    <       0.00000772 Ry

     iteration #  4     ecut=   120.00 Ry     beta= 0.70
     Davidson diagonalization with overlap

---- Real-time Memory Report at c_bands before calling an iterative solver
             0 MiB given to the printing process from OS
             0 MiB allocation reported by mallinfo(arena+hblkhd)
             0 MiB available memory on the node where the printing process lives
------------------
     ethr =  4.83E-08,  avg # of iterations =  1.0


     -----------------------------------------------
     Non-local corr. energy    =       0.20200031 Ry
     -----------------------------------------------


     total cpu time spent up to now is       36.4 secs

     total energy              =     -53.70381286 Ry
     estimated scf accuracy    <       0.00000424 Ry

     iteration #  5     ecut=   120.00 Ry     beta= 0.70
     Davidson diagonalization with overlap

---- Real-time Memory Report at c_bands before calling an iterative solver
             0 MiB given to the printing process from OS
             0 MiB allocation reported by mallinfo(arena+hblkhd)
             0 MiB available memory on the node where the printing process lives
------------------
     ethr =  2.65E-08,  avg # of iterations =  1.1


     -----------------------------------------------
     Non-local corr. energy    =       0.20198911 Ry
     -----------------------------------------------


     total cpu time spent up to now is       37.3 secs

     total energy              =     -53.70381260 Ry
     estimated scf accuracy    <       0.00000111 Ry

     iteration #  6     ecut=   120.00 Ry     beta= 0.70
     Davidson diagonalization with overlap

---- Real-time Memory Report at c_bands before calling an iterative solver
             0 MiB given to the printing process from OS
             0 MiB allocation reported by mallinfo(arena+hblkhd)
             0 MiB available memory on the node where the printing process lives
------------------
     ethr =  6.97E-09,  avg # of iterations =  2.0


     -----------------------------------------------
     Non-local corr. energy    =       0.20198711 Ry
     -----------------------------------------------


     total cpu time spent up to now is       38.4 secs

     End of self-consistent calculation

          k = 0.0000 0.0000 0.0000 ( 16399 PWs)   bands (ev):

   -20.1499 -19.9977  -8.1913  -7.2132  -3.8847  -3.8847  -3.8013  -3.8013
     2.0187   2.5675   3.7315   4.7958

     occupation numbers 
     1.0000   1.0000   1.0000   1.0000   1.0000   1.0000   1.0000   1.0000
     0.0000   0.0000   0.0000   0.0000

          k = 0.0000 0.0962 0.0000 ( 16391 PWs)   bands (ev):

   -20.0162 -19.8658  -8.0080  -7.0394  -4.4364  -4.3531  -4.1405  -4.0568
     2.2509   2.7811   3.9539   5.0121

     occupation numbers 
     1.0000   1.0000   1.0000   1.0000   1.0000   1.0000   1.0000   1.0000
     0.0000   0.0000   0.0000   0.0000

          k = 0.0000 0.1925 0.0000 ( 16390 PWs)   bands (ev):

   -19.6226 -19.4774  -7.4666  -6.5310  -5.8286  -5.7431  -4.7646  -4.6801
     2.9107   3.4028   4.6070   5.4812

     occupation numbers 
     1.0000   1.0000   1.0000   1.0000   1.0000   1.0000   1.0000   1.0000
     0.0000   0.0000   0.0000   0.0000

          k = 0.0000 0.2887 0.0000 ( 16370 PWs)   bands (ev):

   -18.9961 -18.8600  -7.6085  -7.5218  -6.5805  -5.7028  -5.4895  -5.4043
     3.9528   4.3500   5.5062   5.8955

     occupation numbers 
     1.0000   1.0000   1.0000   1.0000   1.0000   1.0000   1.0000   1.0000
     0.0000   0.0000   0.0000   0.0000

          k = 0.0000 0.3849 0.0000 ( 16376 PWs)   bands (ev):

   -18.2052 -18.0827  -9.3730  -9.2791  -6.1132  -6.0275  -5.4439  -4.6699
     4.3816   4.7093   5.3292   6.3538

     occupation numbers 
     1.0000   1.0000   1.0000   1.0000   1.0000   1.0000   1.0000   1.0000
     0.0000   0.0000   0.0000   0.0000

          k = 0.0000 0.4811 0.0000 ( 16402 PWs)   bands (ev):

   -17.4257 -17.3224 -10.7865 -10.6880  -6.5227  -6.4367  -4.2282  -3.6644
     2.8261   3.3317   6.7179   7.3581

     occupation numbers 
     1.0000   1.0000   1.0000   1.0000   1.0000   1.0000   1.0000   1.0000
     0.0000   0.0000   0.0000   0.0000

          k = 0.0000-0.5774 0.0000 ( 16394 PWs)   bands (ev):

   -17.0566 -16.9674 -11.3709 -11.2716  -6.6644  -6.5783  -3.5434  -3.2456
     2.0813   2.6192   7.2940   7.3820

     occupation numbers 
     1.0000   1.0000   1.0000   1.0000   1.0000   1.0000   1.0000   1.0000
     0.0000   0.0000   0.0000   0.0000

          k = 0.0833 0.1443 0.0000 ( 16405 PWs)   bands (ev):

   -19.7524 -19.6055  -7.6454  -6.6972  -5.3418  -5.2594  -4.6461  -4.5630
     2.6976   3.1997   4.3929   5.3338

     occupation numbers 
     1.0000   1.0000   1.0000   1.0000   1.0000   1.0000   1.0000   1.0000
     0.0000   0.0000   0.0000   0.0000

          k = 0.0833 0.2406 0.0000 ( 16381 PWs)   bands (ev):

   -19.2410 -19.1013  -6.9646  -6.8099  -6.7178  -6.0190  -5.4307  -5.3466
     3.5554   3.9984   5.2360   5.8099

     occupation numbers 
     1.0000   1.0000   1.0000   1.0000   1.0000   1.0000   1.0000   1.0000
     0.0000   0.0000   0.0000   0.0000

          k = 0.0833 0.3368 0.0000 ( 16367 PWs)   bands (ev):

   -18.5260 -18.3974  -8.5257  -8.4371  -6.1751  -6.0912  -5.9121  -5.0883
     4.7608   4.8412   5.1954   6.2838

     occupation numbers 
     1.0000   1.0000   1.0000   1.0000   1.0000   1.0000   1.0000   1.0000
     0.0000   0.0000   0.0000   0.0000

          k = 0.0833 0.4330 0.0000 ( 16378 PWs)   bands (ev):

   -17.7171 -17.6047 -10.1042 -10.0091  -6.7248  -6.6384  -4.7079  -4.0315
     3.5788   3.9800   6.3079   7.1407

     occupation numbers 
     1.0000   1.0000   1.0000   1.0000   1.0000   1.0000   1.0000   1.0000
     0.0000   0.0000   0.0000   0.0000

          k = 0.0833 0.5292 0.0000 ( 16379 PWs)   bands (ev):

   -17.0896 -16.9966 -11.1409 -11.0426  -7.0132  -6.9262  -3.6446  -3.2512
     2.3153   2.8138   7.5830   7.9434

     occupation numbers 
     1.0000   1.0000   1.0000   1.0000   1.0000   1.0000   1.0000   1.0000
     0.0000   0.0000   0.0000   0.0000

          k = 0.1667 0.2887 0.0000 ( 16366 PWs)   bands (ev):

   -18.6370 -18.5064  -8.0233  -7.9434  -6.4395  -6.3582  -6.0724  -5.2328
     4.6090   4.8147   5.4182   6.4111

     occupation numbers 
     1.0000   1.0000   1.0000   1.0000   1.0000   1.0000   1.0000   1.0000
     0.0000   0.0000   0.0000   0.0000

          k = 0.1667 0.3849 0.0000 ( 16360 PWs)   bands (ev):

   -17.8824 -17.7651  -9.3674  -9.2825  -7.3014  -7.2162  -4.9710  -4.2425
     4.2246   4.4082   6.0593   6.8587

     occupation numbers 
     1.0000   1.0000   1.0000   1.0000   1.0000   1.0000   1.0000   1.0000
     0.0000   0.0000   0.0000   0.0000

          k = 0.1667 0.4811 0.0000 ( 16379 PWs)   bands (ev):

   -17.1525 -17.0530 -10.5506 -10.4576  -7.8215  -7.7331  -3.8076  -3.2910
     2.8532   3.1934   7.7496   8.4261

     occupation numbers 
     1.0000   1.0000   1.0000   1.0000   1.0000   1.0000   1.0000   1.0000
     0.0000   0.0000   0.0000   0.0000

          k = 0.1667 0.5774 0.0000 ( 16386 PWs)   bands (ev):

   -16.8148 -16.7273 -11.0541 -10.9579  -7.9928  -7.9033  -3.1618  -2.8995
     2.1967   2.5940   8.9478   9.1442

     occupation numbers 
     1.0000   1.0000   1.0000   1.0000   1.0000   1.0000   1.0000   1.0000
     0.0000   0.0000   0.0000   0.0000

          k = 0.2500 0.4330 0.0000 ( 16348 PWs)   bands (ev):

   -17.1826 -17.0803 -10.0891 -10.0084  -8.3774  -8.2926  -3.8782  -3.3169
     3.2147   3.3314   7.6772   8.2782

     occupation numbers 
     1.0000   1.0000   1.0000   1.0000   1.0000   1.0000   1.0000   1.0000
     0.0000   0.0000   0.0000   0.0000

          k = 0.2500 0.5292 0.0000 ( 16377 PWs)   bands (ev):

   -16.6723 -16.5845 -10.6045 -10.5159  -8.9834  -8.8947  -2.9555  -2.6659
     2.3580   2.5606   9.3574   9.6266

     occupation numbers 
     1.0000   1.0000   1.0000   1.0000   1.0000   1.0000   1.0000   1.0000
     0.0000   0.0000   0.0000   0.0000

          k = 0.3333 0.5774 0.0000 ( 16404 PWs)   bands (ev):

   -16.4784 -16.3951 -10.3896 -10.3143  -9.6487  -9.5721  -2.5410  -2.4448
     2.1688   2.3055   9.5497   9.7303

     occupation numbers 
     1.0000   1.0000   1.0000   1.0000   1.0000   1.0000   1.0000   1.0000
     0.0000   0.0000   0.0000   0.0000

     the Fermi energy is    -1.3047 ev

!    total energy              =     -53.70381281 Ry
     estimated scf accuracy    <       0.00000001 Ry
     smearing contrib. (-TS)   =       0.00000000 Ry
     internal energy E=F+TS    =     -53.70381281 Ry

     The total energy is F=E-TS. E is the sum of the following terms:
     one-electron contribution =    -525.63825701 Ry
     hartree contribution      =     266.98812944 Ry
     xc contribution           =     -17.38710458 Ry
     ewald contribution        =     222.33341934 Ry

     convergence has been achieved in   6 iterations


     -----------------------------------------------
     Non-local corr. energy    =       0.20198711 Ry
     -----------------------------------------------


     Forces acting on atoms (cartesian axes, Ry/au):

     atom    1 type  1   force =     0.00000000    0.00000000    0.00129022
     atom    2 type  2   force =     0.00000000    0.00000000   -0.00026705
     atom    3 type  2   force =     0.00000000    0.00000000   -0.00079318
     atom    4 type  1   force =     0.00000000    0.00000000   -0.00022999
     The non-local contrib.  to forces
     atom    1 type  1   force =     0.00000000    0.00000000    0.00047645
     atom    2 type  2   force =    -0.00000000   -0.00000000   -0.00015179
     atom    3 type  2   force =     0.00000000    0.00000000   -0.00229472
     atom    4 type  1   force =     0.00000000   -0.00000000    0.00006080
     The ionic contribution  to forces
     atom    1 type  1   force =    -0.00000464   -0.00000089  -10.26455741
     atom    2 type  2   force =     0.00000464    0.00000089  -17.09958046
     atom    3 type  2   force =     0.00000773   -0.00000446   17.11562495
     atom    4 type  1   force =    -0.00000773    0.00000446   10.24851292
     The local contribution  to forces
     atom    1 type  1   force =    -0.00000000   -0.00000000   10.26530739
     atom    2 type  2   force =     0.00002009    0.00000387   17.09926653
     atom    3 type  2   force =     0.00000000    0.00000000  -17.11387515
     atom    4 type  1   force =     0.00000420   -0.00000242  -10.24869253
     The core correction contribution to forces
     atom    1 type  1   force =    -0.00000000   -0.00000000   -0.00005053
     atom    2 type  2   force =    -0.00000083   -0.00000016   -0.00002114
     atom    3 type  2   force =     0.00000000   -0.00000000    0.00009045
     atom    4 type  1   force =     0.00000025   -0.00000015    0.00006799
     The Hubbard contrib.    to forces
     atom    1 type  1   force =     0.00000000    0.00000000    0.00000000
     atom    2 type  2   force =     0.00000000    0.00000000    0.00000000
     atom    3 type  2   force =     0.00000000    0.00000000    0.00000000
     atom    4 type  1   force =     0.00000000    0.00000000    0.00000000
     The SCF correction term to forces
     atom    1 type  1   force =    -0.00000000   -0.00000000    0.00000000
     atom    2 type  2   force =     0.00000000    0.00000000    0.00000000
     atom    3 type  2   force =     0.00000000   -0.00000000   -0.00033124
     atom    4 type  1   force =     0.00000000   -0.00000000   -0.00017172

     Total force =     0.000826     Total SCF correction =     0.000373
     SCF correction compared to forces is large: reduce conv_thr to get better values


     Computing stress (Cartesian axis) and pressure



     -----------------------------------------------
     Non-local corr. energy    =       0.20198711 Ry
     -----------------------------------------------

          total   stress  (Ry/bohr**3)                   (kbar)     P=        3.65
   0.00004233   0.00000000  -0.00000000            6.23        0.00       -0.00
   0.00000000   0.00004233  -0.00000000            0.00        6.23       -0.00
  -0.00000000  -0.00000000  -0.00001020           -0.00       -0.00       -1.50

     kinetic stress (kbar)   4830.64      0.00      0.00
                                0.00   4830.64      0.00
                                0.00      0.00   5252.08

     local   stress (kbar)-107730.30      0.00      0.00
                                0.00-107730.30     -0.00
                                0.00     -0.00 108419.07

     nonloc. stress (kbar)   -797.28      0.00      0.00
                                0.00   -797.28      0.00
                                0.00      0.00   -769.13

     hartree stress (kbar)  52411.60      0.00      0.00
                                0.00  52411.60      0.00
                                0.00      0.00 -51578.83

     exc-cor stress (kbar)   -485.20     -0.00      0.00
                               -0.00   -485.20     -0.00
                                0.00     -0.00   -532.92

     corecor stress (kbar)   -541.86      0.00     -0.00
                                0.00   -541.86      0.00
                               -0.00      0.00   -529.99

     ewald   stress (kbar)  52314.28     -0.01     -0.00
                               -0.01  52314.28      0.00
                               -0.00      0.00 -60289.50

     hubbard stress (kbar)      0.00      0.00      0.00
                                0.00      0.00      0.00
                                0.00      0.00      0.00

     DFT-D   stress (kbar)      0.00      0.00      0.00
                                0.00      0.00      0.00
                                0.00      0.00      0.00

     XDM     stress (kbar)      0.00      0.00      0.00
                                0.00      0.00      0.00
                                0.00      0.00      0.00

     dft-nl  stress (kbar)      4.35      0.00      0.00
                                0.00      4.35     -0.00
                                0.00     -0.00     27.73

     TS-vdW  stress (kbar)      0.00      0.00      0.00
                                0.00      0.00      0.00
                                0.00      0.00      0.00

     MDB     stress (kbar)      0.00      0.00      0.00
                                0.00      0.00      0.00
                                0.00      0.00      0.00

     3D-RISM stress (kbar)      0.00      0.00      0.00
                                0.00      0.00      0.00
                                0.00      0.00      0.00

     Energy error            =      3.5E-06 Ry
     Gradient error          =      7.9E-04 Ry/Bohr
     Cell gradient error     =      1.5E+00 kbar

     number of scf cycles    =   2
     number of bfgs steps    =   1

     enthalpy           old  =     -53.7038093595 Ry
     enthalpy           new  =     -53.7038128101 Ry

     CASE: enthalpy          _new < enthalpy          _old

     new trust radius        =       0.0020613959 bohr
     new conv_thr            =       0.0000000100 Ry

     new unit-cell volume =    737.36267 a.u.^3 (   109.26587 Ang^3 )
     density =      0.72980 g/cm^3

CELL_PARAMETERS (alat=  4.74000000)
   1.000000000   0.000000000   0.000000000
  -0.500000000   0.866025404   0.000000000
   0.000000000   0.000000000   7.994945189

ATOMIC_POSITIONS (crystal)
B             0.0000000000        0.0000000000        0.0000000000    0   0   0
N             0.3333330000        0.6666666000        0.0000000000    0   0   0
N             0.0000000000        0.0000000000        0.1689416124
B             0.6666670000        0.3333330000        0.1689224045



     Writing config-only to output data dir ./tmp/BN2L_AB1_PBE_vdW.save/
     NEW-OLD atomic charge density approx. for the potential

     negative rho (up, down):  5.110E-08 0.000E+00


     -----------------------------------------------
     Non-local corr. energy    =       0.20191654 Ry
     -----------------------------------------------

     extrapolated charge   15.99393, renormalised to   16.00000

     total cpu time spent up to now is       43.9 secs

     Self-consistent Calculation

     iteration #  1     ecut=   120.00 Ry     beta= 0.70
     Davidson diagonalization with overlap

---- Real-time Memory Report at c_bands before calling an iterative solver
             0 MiB given to the printing process from OS
             0 MiB allocation reported by mallinfo(arena+hblkhd)
             0 MiB available memory on the node where the printing process lives
------------------
     ethr =  1.00E-06,  avg # of iterations =  6.2

     negative rho (up, down):  1.240E-08 0.000E+00


     -----------------------------------------------
     Non-local corr. energy    =       0.20205461 Ry
     -----------------------------------------------


     total cpu time spent up to now is       45.5 secs

     total energy              =     -53.70376030 Ry
     estimated scf accuracy    <       0.00004480 Ry

     iteration #  2     ecut=   120.00 Ry     beta= 0.70
     Davidson diagonalization with overlap

---- Real-time Memory Report at c_bands before calling an iterative solver
             0 MiB given to the printing process from OS
             0 MiB allocation reported by mallinfo(arena+hblkhd)
             0 MiB available memory on the node where the printing process lives
------------------
     ethr =  2.80E-07,  avg # of iterations =  7.0


     -----------------------------------------------
     Non-local corr. energy    =       0.20201734 Ry
     -----------------------------------------------


     total cpu time spent up to now is       47.1 secs

     total energy              =     -53.70380586 Ry
     estimated scf accuracy    <       0.00016825 Ry

     iteration #  3     ecut=   120.00 Ry     beta= 0.70
     Davidson diagonalization with overlap

---- Real-time Memory Report at c_bands before calling an iterative solver
             0 MiB given to the printing process from OS
             0 MiB allocation reported by mallinfo(arena+hblkhd)
             0 MiB available memory on the node where the printing process lives
------------------
     ethr =  2.80E-07,  avg # of iterations =  2.0


     -----------------------------------------------
     Non-local corr. energy    =       0.20200404 Ry
     -----------------------------------------------


     total cpu time spent up to now is       48.3 secs

     total energy              =     -53.70381921 Ry
     estimated scf accuracy    <       0.00001792 Ry

     iteration #  4     ecut=   120.00 Ry     beta= 0.70
     Davidson diagonalization with overlap

---- Real-time Memory Report at c_bands before calling an iterative solver
             0 MiB given to the printing process from OS
             0 MiB allocation reported by mallinfo(arena+hblkhd)
             0 MiB available memory on the node where the printing process lives
------------------
     ethr =  1.12E-07,  avg # of iterations =  1.0


     -----------------------------------------------
     Non-local corr. energy    =       0.20198759 Ry
     -----------------------------------------------


     total cpu time spent up to now is       49.3 secs

     total energy              =     -53.70381671 Ry
     estimated scf accuracy    <       0.00001036 Ry

     iteration #  5     ecut=   120.00 Ry     beta= 0.70
     Davidson diagonalization with overlap

---- Real-time Memory Report at c_bands before calling an iterative solver
             0 MiB given to the printing process from OS
             0 MiB allocation reported by mallinfo(arena+hblkhd)
             0 MiB available memory on the node where the printing process lives
------------------
     ethr =  6.48E-08,  avg # of iterations =  1.1


     -----------------------------------------------
     Non-local corr. energy    =       0.20197233 Ry
     -----------------------------------------------


     total cpu time spent up to now is       50.2 secs

     total energy              =     -53.70381619 Ry
     estimated scf accuracy    <       0.00000269 Ry

     iteration #  6     ecut=   120.00 Ry     beta= 0.70
     Davidson diagonalization with overlap

---- Real-time Memory Report at c_bands before calling an iterative solver
             0 MiB given to the printing process from OS
             0 MiB allocation reported by mallinfo(arena+hblkhd)
             0 MiB available memory on the node where the printing process lives
------------------
     ethr =  1.68E-08,  avg # of iterations =  2.0


     -----------------------------------------------
     Non-local corr. energy    =       0.20196851 Ry
     -----------------------------------------------


     total cpu time spent up to now is       51.3 secs

     total energy              =     -53.70381659 Ry
     estimated scf accuracy    <       0.00000010 Ry

     iteration #  7     ecut=   120.00 Ry     beta= 0.70
     Davidson diagonalization with overlap

---- Real-time Memory Report at c_bands before calling an iterative solver
             0 MiB given to the printing process from OS
             0 MiB allocation reported by mallinfo(arena+hblkhd)
             0 MiB available memory on the node where the printing process lives
------------------
     ethr =  6.48E-10,  avg # of iterations =  3.9


     -----------------------------------------------
     Non-local corr. energy    =       0.20196832 Ry
     -----------------------------------------------


     total cpu time spent up to now is       52.6 secs

     total energy              =     -53.70381667 Ry
     estimated scf accuracy    <       0.00000001 Ry

     iteration #  8     ecut=   120.00 Ry     beta= 0.70
     Davidson diagonalization with overlap

---- Real-time Memory Report at c_bands before calling an iterative solver
             0 MiB given to the printing process from OS
             0 MiB allocation reported by mallinfo(arena+hblkhd)
             0 MiB available memory on the node where the printing process lives
------------------
     ethr =  7.95E-11,  avg # of iterations =  2.1


     -----------------------------------------------
     Non-local corr. energy    =       0.20196850 Ry
     -----------------------------------------------


     total cpu time spent up to now is       53.7 secs

     total energy              =     -53.70381666 Ry
     estimated scf accuracy    <       0.00000003 Ry

     iteration #  9     ecut=   120.00 Ry     beta= 0.70
     Davidson diagonalization with overlap

---- Real-time Memory Report at c_bands before calling an iterative solver
             0 MiB given to the printing process from OS
             0 MiB allocation reported by mallinfo(arena+hblkhd)
             0 MiB available memory on the node where the printing process lives
------------------
     ethr =  7.95E-11,  avg # of iterations =  2.0


     -----------------------------------------------
     Non-local corr. energy    =       0.20196906 Ry
     -----------------------------------------------


     total cpu time spent up to now is       54.9 secs

     End of self-consistent calculation

          k = 0.0000 0.0000 0.0000 ( 16399 PWs)   bands (ev):

   -20.1492 -19.9952  -8.1907  -7.2103  -3.8844  -3.8844  -3.7983  -3.7983
     2.0200   2.5684   3.7327   4.7802

     occupation numbers 
     1.0000   1.0000   1.0000   1.0000   1.0000   1.0000   1.0000   1.0000
     0.0000   0.0000   0.0000   0.0000

          k = 0.0000 0.0962 0.0000 ( 16391 PWs)   bands (ev):

   -20.0155 -19.8632  -8.0074  -7.0365  -4.4361  -4.3501  -4.1403  -4.0538
     2.2522   2.7820   3.9552   4.9792

     occupation numbers 
     1.0000   1.0000   1.0000   1.0000   1.0000   1.0000   1.0000   1.0000
     0.0000   0.0000   0.0000   0.0000

          k = 0.0000 0.1925 0.0000 ( 16390 PWs)   bands (ev):

   -19.6219 -19.4749  -7.4661  -6.5282  -5.8283  -5.7402  -4.7643  -4.6771
     2.9119   3.4037   4.6086   5.4867

     occupation numbers 
     1.0000   1.0000   1.0000   1.0000   1.0000   1.0000   1.0000   1.0000
     0.0000   0.0000   0.0000   0.0000

          k = 0.0000 0.2887 0.0000 ( 16370 PWs)   bands (ev):

   -18.9954 -18.8574  -7.6082  -7.5190  -6.5798  -5.7000  -5.4892  -5.4014
     3.9538   4.3506   5.5111   5.8972

     occupation numbers 
     1.0000   1.0000   1.0000   1.0000   1.0000   1.0000   1.0000   1.0000
     0.0000   0.0000   0.0000   0.0000

          k = 0.0000 0.3849 0.0000 ( 16376 PWs)   bands (ev):

   -18.2046 -18.0800  -9.3726  -9.2763  -6.1129  -6.0245  -5.4432  -4.6671
     4.3827   4.7110   5.3315   6.3557

     occupation numbers 
     1.0000   1.0000   1.0000   1.0000   1.0000   1.0000   1.0000   1.0000
     0.0000   0.0000   0.0000   0.0000

          k = 0.0000 0.4811 0.0000 ( 16402 PWs)   bands (ev):

   -17.4253 -17.3196 -10.7861 -10.6853  -6.5224  -6.4338  -4.2274  -3.6618
     2.8275   3.3336   6.7198   7.3597

     occupation numbers 
     1.0000   1.0000   1.0000   1.0000   1.0000   1.0000   1.0000   1.0000
     0.0000   0.0000   0.0000   0.0000

          k = 0.0000-0.5774 0.0000 ( 16394 PWs)   bands (ev):

   -17.0563 -16.9644 -11.3704 -11.2688  -6.6641  -6.5754  -3.5427  -3.2431
     2.0829   2.6210   7.2949   7.3845

     occupation numbers 
     1.0000   1.0000   1.0000   1.0000   1.0000   1.0000   1.0000   1.0000
     0.0000   0.0000   0.0000   0.0000

          k = 0.0833 0.1443 0.0000 ( 16405 PWs)   bands (ev):

   -19.7518 -19.6029  -7.6448  -6.6943  -5.3416  -5.2564  -4.6458  -4.5600
     2.6988   3.2005   4.3944   5.3393

     occupation numbers 
     1.0000   1.0000   1.0000   1.0000   1.0000   1.0000   1.0000   1.0000
     0.0000   0.0000   0.0000   0.0000

          k = 0.0833 0.2406 0.0000 ( 16381 PWs)   bands (ev):

   -19.2404 -19.0987  -6.9642  -6.8093  -6.7150  -6.0162  -5.4305  -5.3437
     3.5565   3.9991   5.2383   5.8151

     occupation numbers 
     1.0000   1.0000   1.0000   1.0000   1.0000   1.0000   1.0000   1.0000
     0.0000   0.0000   0.0000   0.0000

          k = 0.0833 0.3368 0.0000 ( 16367 PWs)   bands (ev):

   -18.5254 -18.3947  -8.5253  -8.4342  -6.1748  -6.0883  -5.9114  -5.0856
     4.7586   4.8440   5.2003   6.2856

     occupation numbers 
     1.0000   1.0000   1.0000   1.0000   1.0000   1.0000   1.0000   1.0000
     0.0000   0.0000   0.0000   0.0000

          k = 0.0833 0.4330 0.0000 ( 16378 PWs)   bands (ev):

   -17.7166 -17.6020 -10.1038 -10.0063  -6.7245  -6.6354  -4.7072  -4.0288
     3.5802   3.9819   6.3098   7.1423

     occupation numbers 
     1.0000   1.0000   1.0000   1.0000   1.0000   1.0000   1.0000   1.0000
     0.0000   0.0000   0.0000   0.0000

          k = 0.0833 0.5292 0.0000 ( 16379 PWs)   bands (ev):

   -17.0892 -16.9937 -11.1405 -11.0399  -7.0129  -6.9233  -3.6438  -3.2487
     2.3168   2.8157   7.5847   7.9452

     occupation numbers 
     1.0000   1.0000   1.0000   1.0000   1.0000   1.0000   1.0000   1.0000
     0.0000   0.0000   0.0000   0.0000

          k = 0.1667 0.2887 0.0000 ( 16366 PWs)   bands (ev):

   -18.6364 -18.5037  -8.0230  -7.9404  -6.4392  -6.3553  -6.0717  -5.2300
     4.6092   4.8154   5.4236   6.4104

     occupation numbers 
     1.0000   1.0000   1.0000   1.0000   1.0000   1.0000   1.0000   1.0000
     0.0000   0.0000   0.0000   0.0000

          k = 0.1667 0.3849 0.0000 ( 16360 PWs)   bands (ev):

   -17.8818 -17.7624  -9.3671  -9.2796  -7.3011  -7.2133  -4.9703  -4.2398
     4.2258   4.4102   6.0613   6.8604

     occupation numbers 
     1.0000   1.0000   1.0000   1.0000   1.0000   1.0000   1.0000   1.0000
     0.0000   0.0000   0.0000   0.0000

          k = 0.1667 0.4811 0.0000 ( 16379 PWs)   bands (ev):

   -17.1521 -17.0502 -10.5502 -10.4548  -7.8211  -7.7302  -3.8068  -3.2884
     2.8545   3.1954   7.7514   8.4275

     occupation numbers 
     1.0000   1.0000   1.0000   1.0000   1.0000   1.0000   1.0000   1.0000
     0.0000   0.0000   0.0000   0.0000

          k = 0.1667 0.5774 0.0000 ( 16386 PWs)   bands (ev):

   -16.8145 -16.7243 -11.0537 -10.9551  -7.9925  -7.9005  -3.1611  -2.8971
     2.1981   2.5960   8.9492   9.1466

     occupation numbers 
     1.0000   1.0000   1.0000   1.0000   1.0000   1.0000   1.0000   1.0000
     0.0000   0.0000   0.0000   0.0000

          k = 0.2500 0.4330 0.0000 ( 16348 PWs)   bands (ev):

   -17.1821 -17.0775 -10.0888 -10.0055  -8.3771  -8.2897  -3.8774  -3.3143
     3.2153   3.3341   7.6789   8.2796

     occupation numbers 
     1.0000   1.0000   1.0000   1.0000   1.0000   1.0000   1.0000   1.0000
     0.0000   0.0000   0.0000   0.0000

          k = 0.2500 0.5292 0.0000 ( 16377 PWs)   bands (ev):

   -16.6720 -16.5815 -10.6041 -10.5131  -8.9830  -8.8919  -2.9547  -2.6634
     2.3589   2.5630   9.3584   9.6296

     occupation numbers 
     1.0000   1.0000   1.0000   1.0000   1.0000   1.0000   1.0000   1.0000
     0.0000   0.0000   0.0000   0.0000

          k = 0.3333 0.5774 0.0000 ( 16404 PWs)   bands (ev):

   -16.4781 -16.3921 -10.3894 -10.3114  -9.6485  -9.5692  -2.5408  -2.4417
     2.1691   2.3087   9.5513   9.7312

     occupation numbers 
     1.0000   1.0000   1.0000   1.0000   1.0000   1.0000   1.0000   1.0000
     0.0000   0.0000   0.0000   0.0000

     the Fermi energy is    -1.3039 ev

!    total energy              =     -53.70381666 Ry
     estimated scf accuracy    <          1.8E-09 Ry
     smearing contrib. (-TS)   =       0.00000000 Ry
     internal energy E=F+TS    =     -53.70381666 Ry

     The total energy is F=E-TS. E is the sum of the following terms:
     one-electron contribution =    -525.46424761 Ry
     hartree contribution      =     266.90320108 Ry
     xc contribution           =     -17.38724984 Ry
     ewald contribution        =     222.24447970 Ry

     convergence has been achieved in   9 iterations


     -----------------------------------------------
     Non-local corr. energy    =       0.20196906 Ry
     -----------------------------------------------


     Forces acting on atoms (cartesian axes, Ry/au):

     atom    1 type  1   force =     0.00000000    0.00000000    0.00130161
     atom    2 type  2   force =     0.00000000    0.00000000   -0.00020488
     atom    3 type  2   force =     0.00000000    0.00000000   -0.00049427
     atom    4 type  1   force =     0.00000000    0.00000000   -0.00060247
     The non-local contrib.  to forces
     atom    1 type  1   force =     0.00000000    0.00000000    0.00045218
     atom    2 type  2   force =     0.00000000    0.00000000   -0.00015269
     atom    3 type  2   force =     0.00000000    0.00000000   -0.00036499
     atom    4 type  1   force =     0.00000000    0.00000000    0.00016585
     The ionic contribution  to forces
     atom    1 type  1   force =    -0.00000464   -0.00000089  -10.26534322
     atom    2 type  2   force =     0.00000464    0.00000089  -17.10084257
     atom    3 type  2   force =     0.00000773   -0.00000446   17.10968474
     atom    4 type  1   force =    -0.00000773    0.00000446   10.25650104
     The local contribution  to forces
     atom    1 type  1   force =    -0.00000000   -0.00000000   10.26623695
     atom    2 type  2   force =     0.00002009    0.00000387   17.10080180
     atom    3 type  2   force =     0.00000000    0.00000000  -17.10981972
     atom    4 type  1   force =     0.00000420   -0.00000242  -10.25730288
     The core correction contribution to forces
     atom    1 type  1   force =    -0.00000000   -0.00000000   -0.00004883
     atom    2 type  2   force =    -0.00000083   -0.00000016   -0.00001968
     atom    3 type  2   force =     0.00000000   -0.00000000    0.00003946
     atom    4 type  1   force =     0.00000025   -0.00000015    0.00004849
     The Hubbard contrib.    to forces
     atom    1 type  1   force =     0.00000000    0.00000000    0.00000000
     atom    2 type  2   force =     0.00000000    0.00000000    0.00000000
     atom    3 type  2   force =     0.00000000    0.00000000    0.00000000
     atom    4 type  1   force =     0.00000000    0.00000000    0.00000000
     The SCF correction term to forces
     atom    1 type  1   force =     0.00000000    0.00000000    0.00000000
     atom    2 type  2   force =    -0.00000000   -0.00000000    0.00000000
     atom    3 type  2   force =    -0.00000000    0.00000000   -0.00003309
     atom    4 type  1   force =    -0.00000000    0.00000000   -0.00001430

     Total force =     0.000779     Total SCF correction =     0.000036


     Computing stress (Cartesian axis) and pressure



     -----------------------------------------------
     Non-local corr. energy    =       0.20196906 Ry
     -----------------------------------------------

          total   stress  (Ry/bohr**3)                   (kbar)     P=        3.70
   0.00004258   0.00000000   0.00000000            6.26        0.00        0.00
   0.00000000   0.00004258   0.00000000            0.00        6.26        0.00
   0.00000000   0.00000000  -0.00000968            0.00        0.00       -1.42

     kinetic stress (kbar)   4832.56      0.00      0.00
                                0.00   4832.56      0.00
                                0.00      0.00   5254.17

     local   stress (kbar)-107736.47      0.00      0.00
                                0.00-107736.47     -0.00
                                0.00     -0.00 108425.50

     nonloc. stress (kbar)   -797.63     -0.00      0.00
                               -0.00   -797.63      0.00
                                0.00      0.00   -769.47

     hartree stress (kbar)  52414.51      0.00      0.00
                                0.00  52414.51      0.00
                                0.00      0.00 -51581.39

     exc-cor stress (kbar)   -485.39     -0.00      0.00
                               -0.00   -485.39     -0.00
                                0.00     -0.00   -533.13

     corecor stress (kbar)   -542.07      0.00     -0.00
                                0.00   -542.07      0.00
                               -0.00      0.00   -530.19

     ewald   stress (kbar)  52316.40     -0.01     -0.00
                               -0.01  52316.40      0.00
                               -0.00      0.00 -60294.66

     hubbard stress (kbar)      0.00      0.00      0.00
                                0.00      0.00      0.00
                                0.00      0.00      0.00

     DFT-D   stress (kbar)      0.00      0.00      0.00
                                0.00      0.00      0.00
                                0.00      0.00      0.00

     XDM     stress (kbar)      0.00      0.00      0.00
                                0.00      0.00      0.00
                                0.00      0.00      0.00

     dft-nl  stress (kbar)      4.35      0.00      0.00
                                0.00      4.35     -0.00
                                0.00     -0.00     27.74

     TS-vdW  stress (kbar)      0.00      0.00      0.00
                                0.00      0.00      0.00
                                0.00      0.00      0.00

     MDB     stress (kbar)      0.00      0.00      0.00
                                0.00      0.00      0.00
                                0.00      0.00      0.00

     3D-RISM stress (kbar)      0.00      0.00      0.00
                                0.00      0.00      0.00
                                0.00      0.00      0.00

     Energy error            =      3.8E-06 Ry
     Gradient error          =      6.0E-04 Ry/Bohr
     Cell gradient error     =      1.4E+00 kbar

     number of scf cycles    =   3
     number of bfgs steps    =   2

     enthalpy           old  =     -53.7038128101 Ry
     enthalpy           new  =     -53.7038166573 Ry

     CASE: enthalpy          _new < enthalpy          _old

     new trust radius        =       0.0030926807 bohr
     new conv_thr            =       0.0000000100 Ry

     new unit-cell volume =    736.94277 a.u.^3 (   109.20365 Ang^3 )
     density =      0.73022 g/cm^3

CELL_PARAMETERS (alat=  4.74000000)
   1.000000000   0.000000000   0.000000000
  -0.500000000   0.866025404   0.000000000
   0.000000000   0.000000000   7.990392373

ATOMIC_POSITIONS (crystal)
B             0.0000000000        0.0000000000        0.0000000000    0   0   0
N             0.3333330000        0.6666666000        0.0000000000    0   0   0
N             0.0000000000        0.0000000000        0.1688900212
B             0.6666670000        0.3333330000        0.1689076771



     Writing config-only to output data dir ./tmp/BN2L_AB1_PBE_vdW.save/
     NEW-OLD atomic charge density approx. for the potential

     negative rho (up, down):  7.604E-08 0.000E+00


     -----------------------------------------------
     Non-local corr. energy    =       0.20186182 Ry
     -----------------------------------------------

     extrapolated charge   15.99088, renormalised to   16.00000

     total cpu time spent up to now is       60.4 secs

     Self-consistent Calculation

     iteration #  1     ecut=   120.00 Ry     beta= 0.70
     Davidson diagonalization with overlap

---- Real-time Memory Report at c_bands before calling an iterative solver
             0 MiB given to the printing process from OS
             0 MiB allocation reported by mallinfo(arena+hblkhd)
             0 MiB available memory on the node where the printing process lives
------------------
     ethr =  1.00E-06,  avg # of iterations =  6.5

     negative rho (up, down):  1.815E-08 0.000E+00


     -----------------------------------------------
     Non-local corr. energy    =       0.20206644 Ry
     -----------------------------------------------


     total cpu time spent up to now is       62.1 secs

     total energy              =     -53.70370004 Ry
     estimated scf accuracy    <       0.00009387 Ry

     iteration #  2     ecut=   120.00 Ry     beta= 0.70
     Davidson diagonalization with overlap

---- Real-time Memory Report at c_bands before calling an iterative solver
             0 MiB given to the printing process from OS
             0 MiB allocation reported by mallinfo(arena+hblkhd)
             0 MiB available memory on the node where the printing process lives
------------------
     c_bands:  1 eigenvalues not converged
     ethr =  5.87E-07,  avg # of iterations =  8.4

     negative rho (up, down):  1.198E-08 0.000E+00


     -----------------------------------------------
     Non-local corr. energy    =       0.20201139 Ry
     -----------------------------------------------


     total cpu time spent up to now is       63.9 secs

     total energy              =     -53.70379955 Ry
     estimated scf accuracy    <       0.00037172 Ry

     iteration #  3     ecut=   120.00 Ry     beta= 0.70
     Davidson diagonalization with overlap

---- Real-time Memory Report at c_bands before calling an iterative solver
             0 MiB given to the printing process from OS
             0 MiB allocation reported by mallinfo(arena+hblkhd)
             0 MiB available memory on the node where the printing process lives
------------------
     ethr =  5.87E-07,  avg # of iterations =  2.7

     negative rho (up, down):  1.001E-08 0.000E+00


     -----------------------------------------------
     Non-local corr. energy    =       0.20199234 Ry
     -----------------------------------------------


     total cpu time spent up to now is       65.1 secs

     total energy              =     -53.70382800 Ry
     estimated scf accuracy    <       0.00004185 Ry

     iteration #  4     ecut=   120.00 Ry     beta= 0.70
     Davidson diagonalization with overlap

---- Real-time Memory Report at c_bands before calling an iterative solver
             0 MiB given to the printing process from OS
             0 MiB allocation reported by mallinfo(arena+hblkhd)
             0 MiB available memory on the node where the printing process lives
------------------
     ethr =  2.62E-07,  avg # of iterations =  1.0


     -----------------------------------------------
     Non-local corr. energy    =       0.20196648 Ry
     -----------------------------------------------


     total cpu time spent up to now is       66.1 secs

     total energy              =     -53.70382177 Ry
     estimated scf accuracy    <       0.00002465 Ry

     iteration #  5     ecut=   120.00 Ry     beta= 0.70
     Davidson diagonalization with overlap

---- Real-time Memory Report at c_bands before calling an iterative solver
             0 MiB given to the printing process from OS
             0 MiB allocation reported by mallinfo(arena+hblkhd)
             0 MiB available memory on the node where the printing process lives
------------------
     ethr =  1.54E-07,  avg # of iterations =  1.1


     -----------------------------------------------
     Non-local corr. energy    =       0.20194296 Ry
     -----------------------------------------------


     total cpu time spent up to now is       67.1 secs

     total energy              =     -53.70382060 Ry
     estimated scf accuracy    <       0.00000597 Ry

[...]

     iteration #  6     ecut=   120.00 Ry     beta= 0.70
     Davidson diagonalization with overlap

---- Real-time Memory Report at c_bands before calling an iterative solver
             0 MiB given to the printing process from OS
             0 MiB allocation reported by mallinfo(arena+hblkhd)
             0 MiB available memory on the node where the printing process lives
------------------
     ethr =  6.28E-06,  avg # of iterations =  3.6


     -----------------------------------------------
     Non-local corr. energy    =       0.20062665 Ry
     -----------------------------------------------


     total cpu time spent up to now is      296.3 secs

     total energy              =     -53.70393593 Ry
     estimated scf accuracy    <       0.00004091 Ry

     iteration #  7     ecut=   120.00 Ry     beta= 0.70
     Davidson diagonalization with overlap

---- Real-time Memory Report at c_bands before calling an iterative solver
             0 MiB given to the printing process from OS
             0 MiB allocation reported by mallinfo(arena+hblkhd)
             0 MiB available memory on the node where the printing process lives
------------------
     ethr =  2.56E-07,  avg # of iterations =  3.9


     -----------------------------------------------
     Non-local corr. energy    =       0.20063428 Ry
     -----------------------------------------------


     total cpu time spent up to now is      297.6 secs

     total energy              =     -53.70393727 Ry
     estimated scf accuracy    <       0.00001523 Ry

     iteration #  8     ecut=   120.00 Ry     beta= 0.70
     Davidson diagonalization with overlap

---- Real-time Memory Report at c_bands before calling an iterative solver
             0 MiB given to the printing process from OS
             0 MiB allocation reported by mallinfo(arena+hblkhd)
             0 MiB available memory on the node where the printing process lives
------------------
     ethr =  9.52E-08,  avg # of iterations =  1.1


     -----------------------------------------------
     Non-local corr. energy    =       0.20064050 Ry
     -----------------------------------------------


     total cpu time spent up to now is      298.6 secs

     total energy              =     -53.70393631 Ry
     estimated scf accuracy    <       0.00000392 Ry

     iteration #  9     ecut=   120.00 Ry     beta= 0.70
     Davidson diagonalization with overlap

---- Real-time Memory Report at c_bands before calling an iterative solver
             0 MiB given to the printing process from OS
             0 MiB allocation reported by mallinfo(arena+hblkhd)
             0 MiB available memory on the node where the printing process lives
------------------
     ethr =  2.45E-08,  avg # of iterations =  2.1


     -----------------------------------------------
     Non-local corr. energy    =       0.20064195 Ry
     -----------------------------------------------


     total cpu time spent up to now is      299.8 secs

     total energy              =     -53.70393715 Ry
     estimated scf accuracy    <       0.00000003 Ry

     iteration # 10     ecut=   120.00 Ry     beta= 0.70
     Davidson diagonalization with overlap

---- Real-time Memory Report at c_bands before calling an iterative solver
             0 MiB given to the printing process from OS
             0 MiB allocation reported by mallinfo(arena+hblkhd)
             0 MiB available memory on the node where the printing process lives
------------------
     ethr =  1.86E-10,  avg # of iterations =  5.0


     -----------------------------------------------
     Non-local corr. energy    =       0.20064197 Ry
     -----------------------------------------------


     total cpu time spent up to now is      301.4 secs

     total energy              =     -53.70393718 Ry
     estimated scf accuracy    <       0.00000009 Ry

     iteration # 11     ecut=   120.00 Ry     beta= 0.70
     Davidson diagonalization with overlap

---- Real-time Memory Report at c_bands before calling an iterative solver
             0 MiB given to the printing process from OS
             0 MiB allocation reported by mallinfo(arena+hblkhd)
             0 MiB available memory on the node where the printing process lives
------------------
     ethr =  1.86E-10,  avg # of iterations =  2.1


     -----------------------------------------------
     Non-local corr. energy    =       0.20064268 Ry
     -----------------------------------------------


     total cpu time spent up to now is      302.6 secs

     End of self-consistent calculation

          k = 0.0000 0.0000 0.0000 ( 15975 PWs)   bands (ev):

   -20.0921 -19.8940  -8.1840  -7.0486  -3.8164  -3.8164  -3.7031  -3.7031
     2.1354   2.6709   3.8553   5.0493

     occupation numbers 
     1.0000   1.0000   1.0000   1.0000   1.0000   1.0000   1.0000   1.0000
     0.0000   0.0000   0.0000   0.0000

          k = 0.0000 0.0962 0.0000 ( 16001 PWs)   bands (ev):

   -19.9582 -19.7623  -8.0005  -6.8757  -4.3680  -4.2548  -4.0724  -3.9586
     2.3669   2.8839   4.0787   5.1866

     occupation numbers 
     1.0000   1.0000   1.0000   1.0000   1.0000   1.0000   1.0000   1.0000
     0.0000   0.0000   0.0000   0.0000

          k = 0.0000 0.1925 0.0000 ( 15996 PWs)   bands (ev):

   -19.5639 -19.3744  -7.4585  -6.3726  -5.7588  -5.6432  -4.6967  -4.5819
     3.0257   3.5035   4.7351   5.7554

     occupation numbers 
     1.0000   1.0000   1.0000   1.0000   1.0000   1.0000   1.0000   1.0000
     0.0000   0.0000   0.0000   0.0000

          k = 0.0000 0.2887 0.0000 ( 15976 PWs)   bands (ev):

   -18.9362 -18.7577  -7.5432  -7.4270  -6.5656  -5.5447  -5.4219  -5.3061
     4.0662   4.4441   5.6924   6.0300

     occupation numbers 
     1.0000   1.0000   1.0000   1.0000   1.0000   1.0000   1.0000   1.0000
     0.0000   0.0000   0.0000   0.0000

          k = 0.0000 0.3849 0.0000 ( 15960 PWs)   bands (ev):

   -18.1435 -17.9817  -9.3079  -9.1820  -6.0457  -5.9293  -5.4265  -4.5213
     4.4372   4.8307   5.4550   6.4661

     occupation numbers 
     1.0000   1.0000   1.0000   1.0000   1.0000   1.0000   1.0000   1.0000
     0.0000   0.0000   0.0000   0.0000

          k = 0.0000 0.4811 0.0000 ( 16014 PWs)   bands (ev):

   -17.3614 -17.2234 -10.7220 -10.5909  -6.4553  -6.3385  -4.1995  -3.5352
     2.8757   3.4562   6.8286   7.4560

     occupation numbers 
     1.0000   1.0000   1.0000   1.0000   1.0000   1.0000   1.0000   1.0000
     0.0000   0.0000   0.0000   0.0000

          k = 0.0000-0.5774 0.0000 ( 16046 PWs)   bands (ev):

   -16.9905 -16.8698 -11.3064 -11.1748  -6.5971  -6.4802  -3.4995  -3.1398
     2.1375   2.7433   7.3774   7.4779

     occupation numbers 
     1.0000   1.0000   1.0000   1.0000   1.0000   1.0000   1.0000   1.0000
     0.0000   0.0000   0.0000   0.0000

          k = 0.0833 0.1443 0.0000 ( 16011 PWs)   bands (ev):

   -19.6940 -19.5023  -7.6374  -6.5359  -5.2728  -5.1609  -4.5778  -4.4650
     2.8128   3.3010   4.5197   5.6082

     occupation numbers 
     1.0000   1.0000   1.0000   1.0000   1.0000   1.0000   1.0000   1.0000
     0.0000   0.0000   0.0000   0.0000

          k = 0.0833 0.2406 0.0000 ( 15983 PWs)   bands (ev):

   -19.1816 -18.9987  -6.9537  -6.7437  -6.6215  -5.8582  -5.3628  -5.2486
     3.6694   4.0962   5.3765   6.0446

     occupation numbers 
     1.0000   1.0000   1.0000   1.0000   1.0000   1.0000   1.0000   1.0000
     0.0000   0.0000   0.0000   0.0000

          k = 0.0833 0.3368 0.0000 ( 15975 PWs)   bands (ev):

   -18.4651 -18.2958  -8.4599  -8.3407  -6.1078  -5.9961  -5.8939  -4.9350
     4.8373   4.9422   5.3549   6.3837

     occupation numbers 
     1.0000   1.0000   1.0000   1.0000   1.0000   1.0000   1.0000   1.0000
     0.0000   0.0000   0.0000   0.0000

          k = 0.0833 0.4330 0.0000 ( 15960 PWs)   bands (ev):

   -17.6541 -17.5047 -10.0393  -9.9121  -6.6576  -6.5404  -4.6854  -3.8917
     3.6323   4.0979   6.4289   7.2501

     occupation numbers 
     1.0000   1.0000   1.0000   1.0000   1.0000   1.0000   1.0000   1.0000
     0.0000   0.0000   0.0000   0.0000

          k = 0.0833 0.5292 0.0000 ( 15997 PWs)   bands (ev):

   -17.0240 -16.8986 -11.0764 -10.9457  -6.9461  -6.8282  -3.6059  -3.1375
     2.3700   2.9355   7.6841   8.0340

     occupation numbers 
     1.0000   1.0000   1.0000   1.0000   1.0000   1.0000   1.0000   1.0000
     0.0000   0.0000   0.0000   0.0000

          k = 0.1667 0.2887 0.0000 ( 15982 PWs)   bands (ev):

   -18.5764 -18.4046  -7.9564  -7.8485  -6.3717  -6.2627  -6.0556  -5.0779
     4.7133   4.9021   5.5900   6.5038

     occupation numbers 
     1.0000   1.0000   1.0000   1.0000   1.0000   1.0000   1.0000   1.0000
     0.0000   0.0000   0.0000   0.0000

          k = 0.1667 0.3849 0.0000 ( 15966 PWs)   bands (ev):

   -17.8200 -17.6646  -9.3010  -9.1867  -7.2342  -7.1189  -4.9510  -4.0977
     4.2942   4.5087   6.1833   6.9652

     occupation numbers 
     1.0000   1.0000   1.0000   1.0000   1.0000   1.0000   1.0000   1.0000
     0.0000   0.0000   0.0000   0.0000

          k = 0.1667 0.4811 0.0000 ( 15977 PWs)   bands (ev):

   -17.0877 -16.9543 -10.4853 -10.3611  -7.7550  -7.6355  -3.7758  -3.1657
     2.9108   3.3033   7.8701   8.5255

     occupation numbers 
     1.0000   1.0000   1.0000   1.0000   1.0000   1.0000   1.0000   1.0000
     0.0000   0.0000   0.0000   0.0000

          k = 0.1667 0.5774 0.0000 ( 16006 PWs)   bands (ev):

   -16.7484 -16.6299 -10.9892 -10.8612  -7.9265  -7.8056  -3.1148  -2.7965
     2.2569   2.7063   9.0395   9.2486

     occupation numbers 
     1.0000   1.0000   1.0000   1.0000   1.0000   1.0000   1.0000   1.0000
     0.0000   0.0000   0.0000   0.0000

          k = 0.2500 0.4330 0.0000 ( 15934 PWs)   bands (ev):

   -17.1181 -16.9813 -10.0222  -9.9135  -8.3103  -8.1958  -3.8489  -3.1872
     3.2803   3.4280   7.7989   8.3744

     occupation numbers 
     1.0000   1.0000   1.0000   1.0000   1.0000   1.0000   1.0000   1.0000
     0.0000   0.0000   0.0000   0.0000

          k = 0.2500 0.5292 0.0000 ( 15977 PWs)   bands (ev):

   -16.6058 -16.4869 -10.5386 -10.4202  -8.9170  -8.7977  -2.9089  -2.5607
     2.4196   2.6621   9.4484   9.7410

     occupation numbers 
     1.0000   1.0000   1.0000   1.0000   1.0000   1.0000   1.0000   1.0000
     0.0000   0.0000   0.0000   0.0000

          k = 0.3333 0.5774 0.0000 ( 16014 PWs)   bands (ev):

   -16.4112 -16.2980 -10.3225 -10.2214  -9.5795  -9.4768  -2.4836  -2.3524
     2.2242   2.4104   9.6376  10.9002

     occupation numbers 
     1.0000   1.0000   1.0000   1.0000   1.0000   1.0000   1.0000   1.0000
     0.0000   0.0000   0.0000   0.0000

     the Fermi energy is    -0.5519 ev

!    total energy              =     -53.70393719 Ry
     estimated scf accuracy    <          4.5E-09 Ry
     smearing contrib. (-TS)   =       0.00000000 Ry
     internal energy E=F+TS    =     -53.70393719 Ry

     The total energy is F=E-TS. E is the sum of the following terms:
     one-electron contribution =    -513.93538677 Ry
     hartree contribution      =     261.18799444 Ry
     xc contribution           =     -17.39064748 Ry
     ewald contribution        =     216.43410263 Ry

     convergence has been achieved in  11 iterations


     -----------------------------------------------
     Non-local corr. energy    =       0.20064268 Ry
     -----------------------------------------------


     Forces acting on atoms (cartesian axes, Ry/au):

     atom    1 type  1   force =     0.00000000    0.00000000    0.00083234
     atom    2 type  2   force =     0.00000000    0.00000000   -0.00087472
     atom    3 type  2   force =     0.00000000    0.00000000    0.00001569
     atom    4 type  1   force =     0.00000000    0.00000000    0.00002669
     The non-local contrib.  to forces
     atom    1 type  1   force =     0.00000000    0.00000000    0.00029988
     atom    2 type  2   force =    -0.00000000   -0.00000000   -0.00068687
     atom    3 type  2   force =     0.00000000    0.00000000    0.00047539
     atom    4 type  1   force =     0.00000000    0.00000000    0.00061043
     The ionic contribution  to forces
     atom    1 type  1   force =    -0.00000463   -0.00000089  -10.30816485
     atom    2 type  2   force =     0.00000465    0.00000089  -17.16928499
     atom    3 type  2   force =     0.00000772   -0.00000446   17.17971772
     atom    4 type  1   force =    -0.00000774    0.00000446   10.29773211
     The local contribution  to forces
     atom    1 type  1   force =     0.00000000   -0.00000000   10.30871028
     atom    2 type  2   force =     0.00002009    0.00000387   17.16902115
     atom    3 type  2   force =    -0.00000000    0.00000000  -17.18013570
     atom    4 type  1   force =     0.00000420   -0.00000242  -10.29833560
     The core correction contribution to forces
     atom    1 type  1   force =    -0.00000000   -0.00000000   -0.00003701
     atom    2 type  2   force =    -0.00000083   -0.00000016    0.00002126
     atom    3 type  2   force =     0.00000000   -0.00000000   -0.00000960
     atom    4 type  1   force =     0.00000025   -0.00000015    0.00003247
     The Hubbard contrib.    to forces
     atom    1 type  1   force =     0.00000000    0.00000000    0.00000000
     atom    2 type  2   force =     0.00000000    0.00000000    0.00000000
     atom    3 type  2   force =     0.00000000    0.00000000    0.00000000
     atom    4 type  1   force =     0.00000000    0.00000000    0.00000000
     The SCF correction term to forces
     atom    1 type  1   force =    -0.00000000   -0.00000000    0.00000000
     atom    2 type  2   force =    -0.00000000   -0.00000000    0.00000000
     atom    3 type  2   force =    -0.00000000   -0.00000000   -0.00003303
     atom    4 type  1   force =    -0.00000000    0.00000000   -0.00001361

     Total force =     0.000031     Total SCF correction =     0.000036
     SCF correction compared to forces is large: reduce conv_thr to get better values


     Computing stress (Cartesian axis) and pressure



     -----------------------------------------------
     Non-local corr. energy    =       0.20064268 Ry
     -----------------------------------------------

          total   stress  (Ry/bohr**3)                   (kbar)     P=        4.27
   0.00004346   0.00000000   0.00000000            6.39        0.00        0.00
   0.00000000   0.00004346   0.00000000            0.00        6.39        0.00
   0.00000000   0.00000000   0.00000014            0.00        0.00        0.02

     kinetic stress (kbar)   4950.50      0.00      0.00
                                0.00   4950.50      0.00
                                0.00      0.00   5383.94

     local   stress (kbar)-108005.61      0.00      0.00
                                0.00-108005.61     -0.00
                                0.00     -0.00 108712.12

     nonloc. stress (kbar)   -817.01     -0.00      0.00
                               -0.00   -817.01     -0.00
                                0.00     -0.00   -788.49

     hartree stress (kbar)  52523.23      0.00     -0.00
                                0.00  52523.23      0.00
                               -0.00      0.00 -51670.13

     exc-cor stress (kbar)   -497.41     -0.00      0.00
                               -0.00   -497.41     -0.00
                                0.00     -0.00   -545.91

     corecor stress (kbar)   -555.26      0.00     -0.00
                                0.00   -555.26      0.00
                               -0.00      0.00   -543.12

     ewald   stress (kbar)  52403.46     -0.01     -0.00
                               -0.01  52403.46      0.00
                               -0.00      0.00 -60576.47

     hubbard stress (kbar)      0.00      0.00      0.00
                                0.00      0.00      0.00
                                0.00      0.00      0.00

     DFT-D   stress (kbar)      0.00      0.00      0.00
                                0.00      0.00      0.00
                                0.00      0.00      0.00

     XDM     stress (kbar)      0.00      0.00      0.00
                                0.00      0.00      0.00
                                0.00      0.00      0.00

     dft-nl  stress (kbar)      4.49      0.00      0.00
                                0.00      4.49     -0.00
                                0.00     -0.00     28.08

     TS-vdW  stress (kbar)      0.00      0.00      0.00
                                0.00      0.00      0.00
                                0.00      0.00      0.00

     MDB     stress (kbar)      0.00      0.00      0.00
                                0.00      0.00      0.00
                                0.00      0.00      0.00

     3D-RISM stress (kbar)      0.00      0.00      0.00
                                0.00      0.00      0.00
                                0.00      0.00      0.00


     Writing all to output data dir ./tmp/BN2L_AB1_PBE_vdW.save/

     init_run     :     12.68s CPU     12.85s WALL (       2 calls)
     electrons    :    207.77s CPU    205.80s WALL (      14 calls)
     update_pot   :     19.57s CPU     20.00s WALL (      12 calls)
     forces       :     14.54s CPU     14.95s WALL (      14 calls)
     stress       :     39.10s CPU     52.85s WALL (      14 calls)

     Called by init_run:
     wfcinit      :      0.86s CPU      0.87s WALL (       2 calls)
     wfcinit:atom :      0.02s CPU      0.02s WALL (      38 calls)
     wfcinit:wfcr :      0.77s CPU      0.77s WALL (      38 calls)
     potinit      :      9.74s CPU      9.88s WALL (       2 calls)
     hinit0       :      1.61s CPU      1.63s WALL (       2 calls)

     Called by electrons:
     c_bands      :    163.18s CPU    157.30s WALL (     140 calls)
     sum_band     :     20.18s CPU     20.67s WALL (     140 calls)
     v_of_rho     :     34.09s CPU     37.27s WALL (     154 calls)
     v_h          :      0.29s CPU      0.30s WALL (     154 calls)
     v_xc         :     38.28s CPU     41.99s WALL (     182 calls)
     mix_rho      :      0.95s CPU      1.40s WALL (     140 calls)
     vdW_kernel   :      8.74s CPU      8.83s WALL (       1 calls)

     Called by c_bands:
     init_us_2    :      3.88s CPU      3.93s WALL (    5890 calls)
     init_us_2:cp :      3.86s CPU      3.91s WALL (    5890 calls)
     cegterg      :    157.50s CPU    151.44s WALL (    2660 calls)

     Called by sum_band:
     sum_band:wei :      0.00s CPU      0.01s WALL (     140 calls)
     sum_band:loo :     19.60s CPU     20.05s WALL (     140 calls)
     sum_band:buf :      0.66s CPU      0.67s WALL (    2660 calls)
     sum_band:ini :      1.88s CPU      1.91s WALL (    2660 calls)

     Called by *egterg:
     cdiaghg      :      2.60s CPU      2.67s WALL (   13420 calls)
     cegterg:over :      8.77s CPU      9.11s WALL (   10988 calls)
     cegterg:upda :      7.27s CPU      6.01s WALL (   10988 calls)
     cegterg:last :      9.75s CPU      6.64s WALL (    6420 calls)
     h_psi        :    124.69s CPU    122.02s WALL (   13686 calls)
     g_psi        :      0.83s CPU      1.00s WALL (   10988 calls)

     Called by h_psi:
     h_psi:calbec :     11.41s CPU     10.38s WALL (   13686 calls)
     vloc_psi     :     98.99s CPU    101.76s WALL (   13686 calls)
     add_vuspsi   :     13.06s CPU      8.57s WALL (   13686 calls)

     General routines
     calbec       :     12.76s CPU     11.75s WALL (   15016 calls)
     fft          :     12.05s CPU     12.35s WALL (   11604 calls)
     ffts         :      0.15s CPU      0.15s WALL (     140 calls)
     fftw         :     98.22s CPU    100.69s WALL (  221336 calls)

     Parallel routines

     PWSCF        :   4m53.89s CPU   5m 6.76s WALL


   This run was terminated on:  11:53:51  15Apr2024            

=------------------------------------------------------------------------------=
   JOB DONE.
=------------------------------------------------------------------------------=
