
     Program PWSCF v.7.2 starts on 17Apr2024 at 15:19:57 

     This program is part of the open-source Quantum ESPRESSO suite
     for quantum simulation of materials; please cite
         "P. Giannozzi et al., J. Phys.:Condens. Matter 21 395502 (2009);
         "P. Giannozzi et al., J. Phys.:Condens. Matter 29 465901 (2017);
         "P. Giannozzi et al., J. Chem. Phys. 152 154105 (2020);
          URL http://www.quantum-espresso.org", 
     in publications or presentations arising from this work. More details at
     http://www.quantum-espresso.org/quote

     Parallel version (MPI & OpenMP), running on       8 processor cores
     Number of MPI processes:                 8
     Threads/MPI process:                     1

     MPI processes distributed on     1 nodes
     0 MiB available memory on the printing compute node when the environment starts

     Waiting for input...
     Reading input from standard input
Warning: card &CELL ignored
Warning: card CELL_DOFREE = 'ALL' ignored
Warning: card / ignored

     Current dimensions of program PWSCF are:
     Max number of different atomic species (ntypx) = 10
     Max number of k-points (npk) =  40000
     Max angular momentum in pseudopotentials (lmaxx) =  4

     IMPORTANT: XC functional enforced from input :
     Exchange-correlation= VDW-DF2-B86R
                           (   1   4  26   0   2   0   0)
     Any further DFT definition will be discarded
     Please, verify this is what you really want


     R & G space division:  proc/nbgrp/npool/nimage =       8
     Subspace diagonalization in iterative solution of the eigenvalue problem:
     a serial algorithm will be used


     Parallelization info
     --------------------
     sticks:   dense  smooth     PW     G-vecs:    dense   smooth      PW
     Min          93      93     26                16477    16477    2580
     Max          94      94     27                16516    16516    2611
     Sum         745     745    211               131881   131881   20729

     Using Slab Decomposition



     bravais-lattice index     =            4
     lattice parameter (alat)  =       4.7486  a.u.
     unit-cell volume          =     741.8522 (a.u.)^3
     number of atoms/cell      =            4
     number of atomic types    =            2
     number of electrons       =        16.00
     number of Kohn-Sham states=           12
     kinetic-energy cutoff     =     120.0000  Ry
     charge density cutoff     =     480.0000  Ry
     scf convergence threshold =      1.0E-06
     mixing beta               =       0.7000
     number of iterations used =            8  plain     mixing
     energy convergence thresh.=      1.0E-04
     force convergence thresh. =      1.0E-03
     Exchange-correlation= VDW-DF2-B86R
                           (   1   4  26   0   2   0   0)
     nstep                     =           50


     celldm(1)=   4.748600  celldm(2)=   0.000000  celldm(3)=   8.000000
     celldm(4)=   0.000000  celldm(5)=   0.000000  celldm(6)=   0.000000

     crystal axes: (cart. coord. in units of alat)
               a(1) = (   1.000000   0.000000   0.000000 )  
               a(2) = (  -0.500000   0.866025   0.000000 )  
               a(3) = (   0.000000   0.000000   8.000000 )  

     reciprocal axes: (cart. coord. in units 2 pi/alat)
               b(1) = (  1.000000  0.577350 -0.000000 )  
               b(2) = (  0.000000  1.154701  0.000000 )  
               b(3) = (  0.000000 -0.000000  0.125000 )  


     PseudoPot. # 1 for B  read from file:
     ../../../../Pseudo/PBE/B.upf
     MD5 check sum: 72f82fc31bc892420d0cab7e25c88ab8
     Pseudo is Norm-conserving + core correction, Zval =  3.0
     Generated using ONCVPSP code by D. R. Hamann
     Using radial grid of 1534 points,  4 beta functions with: 
                l(1) =   0
                l(2) =   0
                l(3) =   1
                l(4) =   1

     PseudoPot. # 2 for N  read from file:
     ../../../../Pseudo/PBE/N.upf
     MD5 check sum: d34365f73bb0e2ee98afc20ec3e87676
     Pseudo is Norm-conserving + core correction, Zval =  5.0
     Generated using ONCVPSP code by D. R. Hamann
     Using radial grid of 1058 points,  4 beta functions with: 
                l(1) =   0
                l(2) =   0
                l(3) =   1
                l(4) =   1

     atomic species   valence    mass     pseudopotential
        B              3.00    10.00000     B ( 1.00)
        N              5.00    14.01100     N ( 1.00)

      6 Sym. Ops. (no inversion) found


                                    s                        frac. trans.

      isym =  1     identity                                     

 cryst.   s( 1) = (     1          0          0      )
                  (     0          1          0      )
                  (     0          0          1      )

 cart.    s( 1) = (  1.0000000  0.0000000  0.0000000 )
                  (  0.0000000  1.0000000  0.0000000 )
                  (  0.0000000  0.0000000  1.0000000 )


      isym =  2     120 deg rotation - cryst. axis [0,0,1]       

 cryst.   s( 2) = (     0          1          0      )
                  (    -1         -1          0      )
                  (     0          0          1      )

 cart.    s( 2) = ( -0.5000000 -0.8660254  0.0000000 )
                  (  0.8660254 -0.5000000  0.0000000 )
                  (  0.0000000  0.0000000  1.0000000 )


      isym =  3     120 deg rotation - cryst. axis [0,0,-1]      

 cryst.   s( 3) = (    -1         -1          0      )
                  (     1          0          0      )
                  (     0          0          1      )

 cart.    s( 3) = ( -0.5000000  0.8660254  0.0000000 )
                  ( -0.8660254 -0.5000000  0.0000000 )
                  (  0.0000000  0.0000000  1.0000000 )


      isym =  4     inv. 180 deg rotation - cart. axis [1,0,0]   

 cryst.   s( 4) = (    -1          0          0      )
                  (     1          1          0      )
                  (     0          0          1      )

 cart.    s( 4) = ( -1.0000000  0.0000000  0.0000000 )
                  (  0.0000000  1.0000000  0.0000000 )
                  (  0.0000000  0.0000000  1.0000000 )


      isym =  5     inv. 180 deg rotation - cryst. axis [0,1,0]  

 cryst.   s( 5) = (     1          1          0      )
                  (     0         -1          0      )
                  (     0          0          1      )

 cart.    s( 5) = (  0.5000000  0.8660254  0.0000000 )
                  (  0.8660254 -0.5000000  0.0000000 )
                  (  0.0000000  0.0000000  1.0000000 )


      isym =  6     inv. 180 deg rotation - cryst. axis [1,1,0]  

 cryst.   s( 6) = (     0         -1          0      )
                  (    -1          0          0      )
                  (     0          0          1      )

 cart.    s( 6) = (  0.5000000 -0.8660254  0.0000000 )
                  ( -0.8660254 -0.5000000  0.0000000 )
                  (  0.0000000  0.0000000  1.0000000 )


     point group C_3v (3m)  
     there are  3 classes
     the character table:

       E     2C3   3s_v 
A_1    1.00  1.00  1.00
A_2    1.00  1.00 -1.00
E      2.00 -1.00  0.00

     the symmetry operations in each class and the name of the first element:

     E        1
          identity                                               
     2C3      2    3
          120 deg rotation - cryst. axis [0,0,1]                 
     3s_v     4    5    6
          inv. 180 deg rotation - cart. axis [1,0,0]             

   Cartesian axes

     site n.     atom                  positions (alat units)
         1           B   tau(   1) = (   0.0000000   0.0000000   0.0000000  )
         2           N   tau(   2) = (  -0.0000003   0.5773502   0.0000000  )
         3           N   tau(   3) = (   0.0000000   0.0000000   1.3079920  )
         4           B   tau(   4) = (   0.5000005   0.2886748   1.3079920  )

   Crystallographic axes

     site n.     atom                  positions (cryst. coord.)
         1           B   tau(   1) = (  0.0000000  0.0000000  0.0000000  )
         2           N   tau(   2) = (  0.3333330  0.6666666  0.0000000  )
         3           N   tau(   3) = (  0.0000000  0.0000000  0.1634990  )
         4           B   tau(   4) = (  0.6666670  0.3333330  0.1634990  )

     number of k points=    19  Marzari-Vanderbilt smearing, width (Ry)=  0.0050
                       cart. coord. in units 2pi/alat
        k(    1) = (   0.0000000   0.0000000   0.0000000), wk =   0.0138889
        k(    2) = (   0.0000000   0.0962250   0.0000000), wk =   0.0833333
        k(    3) = (   0.0000000   0.1924501   0.0000000), wk =   0.0833333
        k(    4) = (   0.0000000   0.2886751   0.0000000), wk =   0.0833333
        k(    5) = (   0.0000000   0.3849002   0.0000000), wk =   0.0833333
        k(    6) = (   0.0000000   0.4811252   0.0000000), wk =   0.0833333
        k(    7) = (   0.0000000  -0.5773503   0.0000000), wk =   0.0416667
        k(    8) = (   0.0833333   0.1443376   0.0000000), wk =   0.0833333
        k(    9) = (   0.0833333   0.2405626   0.0000000), wk =   0.1666667
        k(   10) = (   0.0833333   0.3367877   0.0000000), wk =   0.1666667
        k(   11) = (   0.0833333   0.4330127   0.0000000), wk =   0.1666667
        k(   12) = (   0.0833333   0.5292377   0.0000000), wk =   0.1666667
        k(   13) = (   0.1666667   0.2886751   0.0000000), wk =   0.0833333
        k(   14) = (   0.1666667   0.3849002   0.0000000), wk =   0.1666667
        k(   15) = (   0.1666667   0.4811252   0.0000000), wk =   0.1666667
        k(   16) = (   0.1666667   0.5773503   0.0000000), wk =   0.0833333
        k(   17) = (   0.2500000   0.4330127   0.0000000), wk =   0.0833333
        k(   18) = (   0.2500000   0.5292377   0.0000000), wk =   0.1666667
        k(   19) = (   0.3333333   0.5773503   0.0000000), wk =   0.0277778

                       cryst. coord.
        k(    1) = (   0.0000000   0.0000000   0.0000000), wk =   0.0138889
        k(    2) = (   0.0000000   0.0833333   0.0000000), wk =   0.0833333
        k(    3) = (   0.0000000   0.1666667   0.0000000), wk =   0.0833333
        k(    4) = (   0.0000000   0.2500000   0.0000000), wk =   0.0833333
        k(    5) = (   0.0000000   0.3333333   0.0000000), wk =   0.0833333
        k(    6) = (   0.0000000   0.4166667   0.0000000), wk =   0.0833333
        k(    7) = (   0.0000000  -0.5000000   0.0000000), wk =   0.0416667
        k(    8) = (   0.0833333   0.0833333   0.0000000), wk =   0.0833333
        k(    9) = (   0.0833333   0.1666667   0.0000000), wk =   0.1666667
        k(   10) = (   0.0833333   0.2500000   0.0000000), wk =   0.1666667
        k(   11) = (   0.0833333   0.3333333   0.0000000), wk =   0.1666667
        k(   12) = (   0.0833333   0.4166667   0.0000000), wk =   0.1666667
        k(   13) = (   0.1666667   0.1666667   0.0000000), wk =   0.0833333
        k(   14) = (   0.1666667   0.2500000   0.0000000), wk =   0.1666667
        k(   15) = (   0.1666667   0.3333333   0.0000000), wk =   0.1666667
        k(   16) = (   0.1666667   0.4166667   0.0000000), wk =   0.0833333
        k(   17) = (   0.2500000   0.2500000   0.0000000), wk =   0.0833333
        k(   18) = (   0.2500000   0.3333333   0.0000000), wk =   0.1666667
        k(   19) = (   0.3333333   0.3333333   0.0000000), wk =   0.0277778

     Dense  grid:   131881 G-vectors     FFT dimensions: (  36,  36, 270)

     Dynamical RAM for                 wfc:       0.38 MB

     Dynamical RAM for     wfc (w. buffer):       7.54 MB

     Dynamical RAM for           str. fact:       0.50 MB

     Dynamical RAM for           local pot:       0.00 MB

     Dynamical RAM for          nlocal pot:       1.00 MB

     Dynamical RAM for                qrad:       1.00 MB

     Dynamical RAM for          rho,v,vnew:       1.76 MB

     Dynamical RAM for               rhoin:       0.59 MB

     Dynamical RAM for            rho*nmix:       4.02 MB

     Dynamical RAM for           G-vectors:       1.07 MB

     Dynamical RAM for          h,s,v(r/c):       0.03 MB

     Dynamical RAM for          <psi|beta>:       0.01 MB

     Dynamical RAM for                 psi:       0.75 MB

     Dynamical RAM for                hpsi:       0.75 MB

     Dynamical RAM for      wfcinit/wfcrot:       1.01 MB

     Estimated static dynamical RAM per process >      15.90 MB

     Estimated max dynamical RAM per process >      21.47 MB

     Estimated total dynamical RAM >     171.74 MB

     Initial potential from superposition of free atoms

     starting charge      15.9995, renormalised to      16.0000

     negative rho (up, down):  4.063E-06 0.000E+00


     %%%%%%%%%%%%%%%%%%%%%%%%%%%%%%%%%%%%%%%%%%%%%%%%%%%%%%%%%%%%%%%%%%%%%%%%
     %                                                                      %
     % You are using vdW-DF, which was implemented by the Thonhauser group. %
     % Please cite the following two papers that made this development      %
     % possible and the two reviews that describe the various versions:     %
     %                                                                      %
     %   T. Thonhauser et al., PRL 115, 136402 (2015).                      %
     %   T. Thonhauser et al., PRB 76, 125112 (2007).                       %
     %   K. Berland et al., Rep. Prog. Phys. 78, 066501 (2015).             %
     %   D.C. Langreth et al., J. Phys.: Condens. Matter 21, 084203 (2009). %
     %                                                                      %
     % If you are calculating stress with vdW-DF, please also cite:         %
     %                                                                      %
     %   R. Sabatini et al., J. Phys.: Condens. Matter 24, 424209 (2012).   %
     %                                                                      %
     %%%%%%%%%%%%%%%%%%%%%%%%%%%%%%%%%%%%%%%%%%%%%%%%%%%%%%%%%%%%%%%%%%%%%%%%

     %%%%%%%%%%%%%%%%%%%%%%%%%%%%%%%%%%%%%%%%%%%%%%%%%%%%%%%%%%%%%%%%%%%%%%%%
     %                                                                      %
     %  vdW-DF NEWS:                                                        %
     %                                                                      %
     %  * vdW-DF3 is now available. DOI: 10.1021/acs.jctc.0c00471           %
     %    use with input_dft = 'vdW-DF3-opt1' or 'vdW-DF3-opt2'             %
     %                                                                      %
     %  * Unscreened and range-separated hybrid vdW-DF-cx functionals       %
     %    DOI: 10.1063/1.4986522 and 10.1088/1361-648X/ac2ad2               %
     %    use with input_dft = 'vdW-DF-cx0'    and 'vdW-DF-ahcx'            %
     %  * Unscreened and range-separated hybrid vdW-DF2-b86r functionals    %
     %    DOI: 10.1063/1.4986522 and DOI: 10.1103/PhysRevX.12.041003        %
     %    use with input_dft = 'vdW-DF2-br0' and 'vdW-DF2-ahbr'             %
     %                                                                      %
     %%%%%%%%%%%%%%%%%%%%%%%%%%%%%%%%%%%%%%%%%%%%%%%%%%%%%%%%%%%%%%%%%%%%%%%%


     Carrying out vdW-DF run using the following parameters:
     Nqs    =  20  Npoints =  1024  r_max =  100.000
     q_mesh =  0.00001000  0.04494208  0.09755937  0.15916263
               0.23128650  0.31572767  0.41458969  0.53033537
               0.66584808  0.82450364  1.01025438  1.22772762
               1.48234092  1.78043706  2.12944203  2.53805004
               3.01644009  3.57652955  4.23227104  5.00000000


     -----------------------------------------------
     Non-local corr. energy    =       0.17466260 Ry
     -----------------------------------------------

     Starting wfcs are   16 randomized atomic wfcs

     total cpu time spent up to now is       11.5 secs

     Self-consistent Calculation

     iteration #  1     ecut=   120.00 Ry     beta= 0.70
     Davidson diagonalization with overlap

---- Real-time Memory Report at c_bands before calling an iterative solver
             0 MiB given to the printing process from OS
             0 MiB allocation reported by mallinfo(arena+hblkhd)
             0 MiB available memory on the node where the printing process lives
------------------
     ethr =  1.00E-02,  avg # of iterations =  4.1


     -----------------------------------------------
     Non-local corr. energy    =       0.20486416 Ry
     -----------------------------------------------


     total cpu time spent up to now is       13.9 secs

     total energy              =     -53.44693145 Ry
     estimated scf accuracy    <       0.75858422 Ry

     iteration #  2     ecut=   120.00 Ry     beta= 0.70
     Davidson diagonalization with overlap

---- Real-time Memory Report at c_bands before calling an iterative solver
             0 MiB given to the printing process from OS
             0 MiB allocation reported by mallinfo(arena+hblkhd)
             0 MiB available memory on the node where the printing process lives
------------------
     ethr =  4.74E-03,  avg # of iterations =  3.7


     -----------------------------------------------
     Non-local corr. energy    =       0.19872117 Ry
     -----------------------------------------------


     total cpu time spent up to now is       16.3 secs

     total energy              =     -53.64522654 Ry
     estimated scf accuracy    <       0.33274014 Ry

     iteration #  3     ecut=   120.00 Ry     beta= 0.70
     Davidson diagonalization with overlap

---- Real-time Memory Report at c_bands before calling an iterative solver
             0 MiB given to the printing process from OS
             0 MiB allocation reported by mallinfo(arena+hblkhd)
             0 MiB available memory on the node where the printing process lives
------------------
     ethr =  2.08E-03,  avg # of iterations =  2.0


     -----------------------------------------------
     Non-local corr. energy    =       0.20064809 Ry
     -----------------------------------------------


     total cpu time spent up to now is       17.7 secs

     total energy              =     -53.69871279 Ry
     estimated scf accuracy    <       0.00573544 Ry

     iteration #  4     ecut=   120.00 Ry     beta= 0.70
     Davidson diagonalization with overlap

---- Real-time Memory Report at c_bands before calling an iterative solver
             0 MiB given to the printing process from OS
             0 MiB allocation reported by mallinfo(arena+hblkhd)
             0 MiB available memory on the node where the printing process lives
------------------
     ethr =  3.58E-05,  avg # of iterations = 10.1


     -----------------------------------------------
     Non-local corr. energy    =       0.20083474 Ry
     -----------------------------------------------


     total cpu time spent up to now is       21.2 secs

     total energy              =     -53.70352901 Ry
     estimated scf accuracy    <       0.00590126 Ry

     iteration #  5     ecut=   120.00 Ry     beta= 0.70
     Davidson diagonalization with overlap

---- Real-time Memory Report at c_bands before calling an iterative solver
             0 MiB given to the printing process from OS
             0 MiB allocation reported by mallinfo(arena+hblkhd)
             0 MiB available memory on the node where the printing process lives
------------------
     ethr =  3.58E-05,  avg # of iterations =  2.1


     -----------------------------------------------
     Non-local corr. energy    =       0.20081757 Ry
     -----------------------------------------------


     total cpu time spent up to now is       22.7 secs

     total energy              =     -53.70365213 Ry
     estimated scf accuracy    <       0.00115841 Ry

     iteration #  6     ecut=   120.00 Ry     beta= 0.70
     Davidson diagonalization with overlap

---- Real-time Memory Report at c_bands before calling an iterative solver
             0 MiB given to the printing process from OS
             0 MiB allocation reported by mallinfo(arena+hblkhd)
             0 MiB available memory on the node where the printing process lives
------------------
     ethr =  7.24E-06,  avg # of iterations =  4.9

     negative rho (up, down):  1.251E-07 0.000E+00


     -----------------------------------------------
     Non-local corr. energy    =       0.20083306 Ry
     -----------------------------------------------


     total cpu time spent up to now is       24.7 secs

     total energy              =     -53.70398043 Ry
     estimated scf accuracy    <       0.00001817 Ry

     iteration #  7     ecut=   120.00 Ry     beta= 0.70
     Davidson diagonalization with overlap

---- Real-time Memory Report at c_bands before calling an iterative solver
             0 MiB given to the printing process from OS
             0 MiB allocation reported by mallinfo(arena+hblkhd)
             0 MiB available memory on the node where the printing process lives
------------------
     ethr =  1.14E-07,  avg # of iterations =  6.8


     -----------------------------------------------
     Non-local corr. energy    =       0.20084388 Ry
     -----------------------------------------------


     total cpu time spent up to now is       27.1 secs

     total energy              =     -53.70398579 Ry
     estimated scf accuracy    <       0.00002104 Ry

     iteration #  8     ecut=   120.00 Ry     beta= 0.70
     Davidson diagonalization with overlap

---- Real-time Memory Report at c_bands before calling an iterative solver
             0 MiB given to the printing process from OS
             0 MiB allocation reported by mallinfo(arena+hblkhd)
             0 MiB available memory on the node where the printing process lives
------------------
     ethr =  1.14E-07,  avg # of iterations =  1.1


     -----------------------------------------------
     Non-local corr. energy    =       0.20085090 Ry
     -----------------------------------------------


     total cpu time spent up to now is       28.3 secs

     total energy              =     -53.70398395 Ry
     estimated scf accuracy    <       0.00000578 Ry

     iteration #  9     ecut=   120.00 Ry     beta= 0.70
     Davidson diagonalization with overlap

---- Real-time Memory Report at c_bands before calling an iterative solver
             0 MiB given to the printing process from OS
             0 MiB allocation reported by mallinfo(arena+hblkhd)
             0 MiB available memory on the node where the printing process lives
------------------
     ethr =  3.61E-08,  avg # of iterations =  2.0


     -----------------------------------------------
     Non-local corr. energy    =       0.20085002 Ry
     -----------------------------------------------


     total cpu time spent up to now is       29.9 secs

     End of self-consistent calculation

          k = 0.0000 0.0000 0.0000 ( 16471 PWs)   bands (ev):

   -20.1686 -19.9717  -8.2617  -7.1341  -3.9320  -3.9320  -3.8178  -3.8178
     2.0281   2.5631   3.7038   4.7442

     occupation numbers 
     1.0000   1.0000   1.0000   1.0000   1.0000   1.0000   1.0000   1.0000
     0.0000   0.0000   0.0000   0.0000

          k = 0.0000 0.0962 0.0000 ( 16513 PWs)   bands (ev):

   -20.0353 -19.8405  -8.0791  -6.9620  -4.4823  -4.3682  -4.1865  -4.0718
     2.2592   2.7753   3.9261   4.9594

     occupation numbers 
     1.0000   1.0000   1.0000   1.0000   1.0000   1.0000   1.0000   1.0000
     0.0000   0.0000   0.0000   0.0000

          k = 0.0000 0.1925 0.0000 ( 16495 PWs)   bands (ev):

   -19.6426 -19.4541  -7.5396  -6.4615  -5.8692  -5.7529  -4.8073  -4.6917
     2.9161   3.3927   4.5817   5.5866

     occupation numbers 
     1.0000   1.0000   1.0000   1.0000   1.0000   1.0000   1.0000   1.0000
     0.0000   0.0000   0.0000   0.0000

          k = 0.0000 0.2887 0.0000 ( 16464 PWs)   bands (ev):

   -19.0178 -18.8402  -7.6478  -7.5309  -6.6510  -5.6374  -5.5287  -5.4122
     3.9522   4.3282   5.5532   5.8628

     occupation numbers 
     1.0000   1.0000   1.0000   1.0000   1.0000   1.0000   1.0000   1.0000
     0.0000   0.0000   0.0000   0.0000

          k = 0.0000 0.3849 0.0000 ( 16432 PWs)   bands (ev):

   -18.2292 -18.0679  -9.4057  -9.2793  -6.1494  -6.0323  -5.5175  -4.6191
     4.3059   4.6961   5.3324   6.3384

     occupation numbers 
     1.0000   1.0000   1.0000   1.0000   1.0000   1.0000   1.0000   1.0000
     0.0000   0.0000   0.0000   0.0000

          k = 0.0000 0.4811 0.0000 ( 16468 PWs)   bands (ev):

   -17.4522 -17.3140 -10.8130 -10.6816  -6.5570  -6.4395  -4.2974  -3.6383
     2.7528   3.3280   6.6842   7.2990

     occupation numbers 
     1.0000   1.0000   1.0000   1.0000   1.0000   1.0000   1.0000   1.0000
     0.0000   0.0000   0.0000   0.0000

          k = 0.0000-0.5774 0.0000 ( 16490 PWs)   bands (ev):

   -17.0843 -16.9629 -11.3939 -11.2621  -6.6981  -6.5805  -3.6023  -3.2447
     2.0192   2.6200   7.2135   7.3144

     occupation numbers 
     1.0000   1.0000   1.0000   1.0000   1.0000   1.0000   1.0000   1.0000
     0.0000   0.0000   0.0000   0.0000

          k = 0.0833 0.1443 0.0000 ( 16509 PWs)   bands (ev):

   -19.7722 -19.5815  -7.7177  -6.6239  -5.3849  -5.2721  -4.6892  -4.5755
     2.7040   3.1910   4.3660   5.3824

     occupation numbers 
     1.0000   1.0000   1.0000   1.0000   1.0000   1.0000   1.0000   1.0000
     0.0000   0.0000   0.0000   0.0000

          k = 0.0833 0.2406 0.0000 ( 16477 PWs)   bands (ev):

   -19.2621 -19.0800  -7.0400  -6.8498  -6.7267  -5.9496  -5.4703  -5.3553
     3.5576   3.9827   5.2246   5.8796

     occupation numbers 
     1.0000   1.0000   1.0000   1.0000   1.0000   1.0000   1.0000   1.0000
     0.0000   0.0000   0.0000   0.0000

          k = 0.0833 0.3368 0.0000 ( 16455 PWs)   bands (ev):

   -18.5491 -18.3804  -8.5610  -8.4413  -6.2119  -6.0988  -5.9831  -5.0307
     4.7140   4.8222   5.2175   6.2463

     occupation numbers 
     1.0000   1.0000   1.0000   1.0000   1.0000   1.0000   1.0000   1.0000
     0.0000   0.0000   0.0000   0.0000

          k = 0.0833 0.4330 0.0000 ( 16463 PWs)   bands (ev):

   -17.7428 -17.5936 -10.1334 -10.0058  -6.7594  -6.6415  -4.7803  -3.9928
     3.5043   3.9656   6.3003   7.1202

     occupation numbers 
     1.0000   1.0000   1.0000   1.0000   1.0000   1.0000   1.0000   1.0000
     0.0000   0.0000   0.0000   0.0000

          k = 0.0833 0.5292 0.0000 ( 16482 PWs)   bands (ev):

   -17.1173 -16.9915 -11.1647 -11.0338  -7.0466  -6.9280  -3.7076  -3.2426
     2.2498   2.8104   7.5289   7.8705

     occupation numbers 
     1.0000   1.0000   1.0000   1.0000   1.0000   1.0000   1.0000   1.0000
     0.0000   0.0000   0.0000   0.0000

          k = 0.1667 0.2887 0.0000 ( 16470 PWs)   bands (ev):

   -18.6598 -18.4887  -8.0597  -7.9510  -6.4752  -6.3650  -6.1437  -5.1728
     4.5966   4.7815   5.4507   6.3605

     occupation numbers 
     1.0000   1.0000   1.0000   1.0000   1.0000   1.0000   1.0000   1.0000
     0.0000   0.0000   0.0000   0.0000

          k = 0.1667 0.3849 0.0000 ( 16434 PWs)   bands (ev):

   -17.9076 -17.7525  -9.3981  -9.2831  -7.3349  -7.2188  -5.0444  -4.1976
     4.1606   4.3741   6.0612   6.8402

     occupation numbers 
     1.0000   1.0000   1.0000   1.0000   1.0000   1.0000   1.0000   1.0000
     0.0000   0.0000   0.0000   0.0000

          k = 0.1667 0.4811 0.0000 ( 16467 PWs)   bands (ev):

   -17.1803 -17.0467 -10.5756 -10.4509  -7.8541  -7.7340  -3.8760  -3.2707
     2.7859   3.1749   7.7361   8.3918

     occupation numbers 
     1.0000   1.0000   1.0000   1.0000   1.0000   1.0000   1.0000   1.0000
     0.0000   0.0000   0.0000   0.0000

          k = 0.1667 0.5774 0.0000 ( 16464 PWs)   bands (ev):

   -16.8440 -16.7247 -11.0761 -10.9478  -8.0251  -7.9036  -3.2198  -2.9032
     2.1363   2.5819   8.8817   9.0881

     occupation numbers 
     1.0000   1.0000   1.0000   1.0000   1.0000   1.0000   1.0000   1.0000
     0.0000   0.0000   0.0000   0.0000

          k = 0.2500 0.4330 0.0000 ( 16436 PWs)   bands (ev):

   -17.2104 -17.0735 -10.1137 -10.0042  -8.4086  -8.2934  -3.9485  -3.2921
     3.1511   3.2991   7.6699   8.2458

     occupation numbers 
     1.0000   1.0000   1.0000   1.0000   1.0000   1.0000   1.0000   1.0000
     0.0000   0.0000   0.0000   0.0000

          k = 0.2500 0.5292 0.0000 ( 16475 PWs)   bands (ev):

   -16.7024 -16.5829 -10.6245 -10.5053  -9.0150  -8.8950  -3.0148  -2.6689
     2.2962   2.5372   9.3081   9.6043

     occupation numbers 
     1.0000   1.0000   1.0000   1.0000   1.0000   1.0000   1.0000   1.0000
     0.0000   0.0000   0.0000   0.0000

          k = 0.3333 0.5774 0.0000 ( 16482 PWs)   bands (ev):

   -16.5097 -16.3955 -10.4013 -10.2996  -9.6821  -9.5788  -2.5932  -2.4611
     2.1014   2.2869   9.5031  10.7446

     occupation numbers 
     1.0000   1.0000   1.0000   1.0000   1.0000   1.0000   1.0000   1.0000
     0.0000   0.0000   0.0000   0.0000

     the Fermi energy is    -0.6778 ev

!    total energy              =     -53.70398530 Ry
     estimated scf accuracy    <       0.00000002 Ry
     smearing contrib. (-TS)   =       0.00000000 Ry
     internal energy E=F+TS    =     -53.70398530 Ry

     The total energy is F=E-TS. E is the sum of the following terms:
     one-electron contribution =    -536.38368775 Ry
     hartree contribution      =     272.34661006 Ry
     xc contribution           =     -17.37603017 Ry
     ewald contribution        =     227.70912256 Ry

     convergence has been achieved in   9 iterations


     -----------------------------------------------
     Non-local corr. energy    =       0.20085002 Ry
     -----------------------------------------------


     Forces acting on atoms (cartesian axes, Ry/au):

     atom    1 type  1   force =     0.00000000    0.00000000    0.00087857
     atom    2 type  2   force =     0.00000000    0.00000000   -0.00083074
     atom    3 type  2   force =     0.00000000    0.00000000    0.00017134
     atom    4 type  1   force =     0.00000000    0.00000000   -0.00021916
     The non-local contrib.  to forces
     atom    1 type  1   force =     0.00000000   -0.00000000    0.00031962
     atom    2 type  2   force =     0.00000000    0.00000000   -0.00065490
     atom    3 type  2   force =    -0.00000000   -0.00000000    0.00148290
     atom    4 type  1   force =     0.00000000    0.00000000    0.00062526
     The ionic contribution  to forces
     atom    1 type  1   force =    -0.00000462   -0.00000089  -10.39690383
     atom    2 type  2   force =     0.00000463    0.00000089  -17.31722285
     atom    3 type  2   force =     0.00000770   -0.00000445   17.32379297
     atom    4 type  1   force =    -0.00000771    0.00000445   10.39033371
     The local contribution  to forces
     atom    1 type  1   force =    -0.00000000   -0.00000000   10.39752704
     atom    2 type  2   force =     0.00002013    0.00000387   17.31710689
     atom    3 type  2   force =     0.00000000    0.00000000  -17.32548427
     atom    4 type  1   force =     0.00000418   -0.00000241  -10.39139498
     The core correction contribution to forces
     atom    1 type  1   force =    -0.00000000   -0.00000000   -0.00003819
     atom    2 type  2   force =    -0.00000083   -0.00000016    0.00002086
     atom    3 type  2   force =     0.00000000   -0.00000000   -0.00003790
     atom    4 type  1   force =     0.00000025   -0.00000015    0.00002369
     The Hubbard contrib.    to forces
     atom    1 type  1   force =     0.00000000    0.00000000    0.00000000
     atom    2 type  2   force =     0.00000000    0.00000000    0.00000000
     atom    3 type  2   force =     0.00000000    0.00000000    0.00000000
     atom    4 type  1   force =     0.00000000    0.00000000    0.00000000
     The SCF correction term to forces
     atom    1 type  1   force =     0.00000000    0.00000000   -0.00000000
     atom    2 type  2   force =     0.00000000    0.00000000   -0.00000000
     atom    3 type  2   force =     0.00000000    0.00000000    0.00040300
     atom    4 type  1   force =    -0.00000000    0.00000000    0.00017852

     Total force =     0.000278     Total SCF correction =     0.000441
     SCF correction compared to forces is large: reduce conv_thr to get better values

     BFGS Geometry Optimization
     Energy error            =      0.0E+00 Ry
     Gradient error          =      2.2E-04 Ry/Bohr

     bfgs converged in   1 scf cycles and   0 bfgs steps
     (criteria: energy <  1.0E-04 Ry, force <  1.0E-03 Ry/Bohr)

     End of BFGS Geometry Optimization

     Final energy             =     -53.7039853018 Ry
Begin final coordinates

ATOMIC_POSITIONS (crystal)
B             0.0000000000        0.0000000000        0.0000000000    0   0   0
N             0.3333330000        0.6666666000        0.0000000000    0   0   0
N             0.0000000000        0.0000000000        0.1634990000
B             0.6666670000        0.3333330000        0.1634990000
End final coordinates



     Writing all to output data dir ./tmp/BN2L_AB1_PBE_vdW.save/

     init_run     :     11.21s CPU     11.42s WALL (       1 calls)
     electrons    :     18.34s CPU     18.40s WALL (       1 calls)
     forces       :      0.53s CPU      0.56s WALL (       1 calls)

     Called by init_run:
     wfcinit      :      0.69s CPU      0.71s WALL (       1 calls)
     wfcinit:atom :      0.01s CPU      0.02s WALL (      19 calls)
     wfcinit:wfcr :      0.63s CPU      0.64s WALL (      19 calls)
     potinit      :      9.81s CPU      9.99s WALL (       1 calls)
     hinit0       :      0.47s CPU      0.48s WALL (       1 calls)

     Called by electrons:
     c_bands      :     14.37s CPU     14.03s WALL (       9 calls)
     sum_band     :      2.00s CPU      2.08s WALL (       9 calls)
     v_of_rho     :     11.59s CPU     12.03s WALL (      10 calls)
     v_h          :      0.03s CPU      0.03s WALL (      10 calls)
     v_xc         :     11.76s CPU     12.22s WALL (      11 calls)
     mix_rho      :      0.08s CPU      0.12s WALL (       9 calls)
     vdW_kernel   :      9.53s CPU      9.67s WALL (       1 calls)

     Called by c_bands:
     init_us_2    :      0.33s CPU      0.34s WALL (     380 calls)
     init_us_2:cp :      0.33s CPU      0.34s WALL (     380 calls)
     cegterg      :     13.91s CPU     13.55s WALL (     171 calls)

     Called by sum_band:
     sum_band:wei :      0.00s CPU      0.00s WALL (       9 calls)
     sum_band:loo :      1.96s CPU      2.03s WALL (       9 calls)
     sum_band:buf :      0.06s CPU      0.06s WALL (     171 calls)
     sum_band:ini :      0.16s CPU      0.17s WALL (     171 calls)

     Called by *egterg:
     cdiaghg      :      0.19s CPU      0.19s WALL (     869 calls)
     cegterg:over :      0.73s CPU      0.76s WALL (     698 calls)
     cegterg:upda :      0.56s CPU      0.44s WALL (     698 calls)
     cegterg:last :      0.84s CPU      0.58s WALL (     448 calls)
     h_psi        :     11.75s CPU     11.69s WALL (     888 calls)
     g_psi        :      0.06s CPU      0.07s WALL (     698 calls)

     Called by h_psi:
     h_psi:calbec :      0.97s CPU      0.90s WALL (     888 calls)
     vloc_psi     :      9.59s CPU      9.97s WALL (     888 calls)
     add_vuspsi   :      1.09s CPU      0.71s WALL (     888 calls)

     General routines
     calbec       :      1.05s CPU      0.98s WALL (     964 calls)
     fft          :      1.24s CPU      1.29s WALL (     660 calls)
     ffts         :      0.01s CPU      0.01s WALL (       9 calls)
     fftw         :      8.95s CPU      9.29s WALL (   15250 calls)

     Parallel routines

     PWSCF        :     30.22s CPU     30.58s WALL


   This run was terminated on:  15:20:28  17Apr2024            

=------------------------------------------------------------------------------=
   JOB DONE.
=------------------------------------------------------------------------------=
