
     Program BANDS v.7.2 starts on 16Apr2024 at 14:13:28 

     This program is part of the open-source Quantum ESPRESSO suite
     for quantum simulation of materials; please cite
         "P. Giannozzi et al., J. Phys.:Condens. Matter 21 395502 (2009);
         "P. Giannozzi et al., J. Phys.:Condens. Matter 29 465901 (2017);
         "P. Giannozzi et al., J. Chem. Phys. 152 154105 (2020);
          URL http://www.quantum-espresso.org", 
     in publications or presentations arising from this work. More details at
     http://www.quantum-espresso.org/quote

     Parallel version (MPI & OpenMP), running on       8 processor cores
     Number of MPI processes:                 8
     Threads/MPI process:                     1

     MPI processes distributed on     1 nodes
     R & G space division:  proc/nbgrp/npool/nimage =       8
     0 MiB available memory on the printing compute node when the environment starts


     Reading xml data from directory:

     ./tmp/hBN_1l_LDA.save/

     IMPORTANT: XC functional enforced from input :
     Exchange-correlation= VDW-DF2-B86R
                           (   1   4  26   0   2   0   0)
     Any further DFT definition will be discarded
     Please, verify this is what you really want


     Parallelization info
     --------------------
     sticks:   dense  smooth     PW     G-vecs:    dense   smooth      PW
     Min          45      45     14                 5687     5687     988
     Max          46      46     16                 5712     5712    1001
     Sum         367     367    121                45625    45625    7963

     Using Slab Decomposition



     %%%%%%%%%%%%%%%%%%%%%%%%%%%%%%%%%%%%%%%%%%%%%%%%%%%%%%%%%%%%%%%%%%%%%%%%
     %                                                                      %
     % You are using vdW-DF, which was implemented by the Thonhauser group. %
     % Please cite the following two papers that made this development      %
     % possible and the two reviews that describe the various versions:     %
     %                                                                      %
     %   T. Thonhauser et al., PRL 115, 136402 (2015).                      %
     %   T. Thonhauser et al., PRB 76, 125112 (2007).                       %
     %   K. Berland et al., Rep. Prog. Phys. 78, 066501 (2015).             %
     %   D.C. Langreth et al., J. Phys.: Condens. Matter 21, 084203 (2009). %
     %                                                                      %
     % If you are calculating stress with vdW-DF, please also cite:         %
     %                                                                      %
     %   R. Sabatini et al., J. Phys.: Condens. Matter 24, 424209 (2012).   %
     %                                                                      %
     %%%%%%%%%%%%%%%%%%%%%%%%%%%%%%%%%%%%%%%%%%%%%%%%%%%%%%%%%%%%%%%%%%%%%%%%

     %%%%%%%%%%%%%%%%%%%%%%%%%%%%%%%%%%%%%%%%%%%%%%%%%%%%%%%%%%%%%%%%%%%%%%%%
     %                                                                      %
     %  vdW-DF NEWS:                                                        %
     %                                                                      %
     %  * vdW-DF3 is now available. DOI: 10.1021/acs.jctc.0c00471           %
     %    use with input_dft = 'vdW-DF3-opt1' or 'vdW-DF3-opt2'             %
     %                                                                      %
     %  * Unscreened and range-separated hybrid vdW-DF-cx functionals       %
     %    DOI: 10.1063/1.4986522 and 10.1088/1361-648X/ac2ad2               %
     %    use with input_dft = 'vdW-DF-cx0'    and 'vdW-DF-ahcx'            %
     %  * Unscreened and range-separated hybrid vdW-DF2-b86r functionals    %
     %    DOI: 10.1063/1.4986522 and DOI: 10.1103/PhysRevX.12.041003        %
     %    use with input_dft = 'vdW-DF2-br0' and 'vdW-DF2-ahbr'             %
     %                                                                      %
     %%%%%%%%%%%%%%%%%%%%%%%%%%%%%%%%%%%%%%%%%%%%%%%%%%%%%%%%%%%%%%%%%%%%%%%%


     Reading collected, re-writing distributed wavefunctions
     high-symmetry point:  0.0000 0.0000 0.0000   x coordinate   0.0000
     high-symmetry point: -0.3333 0.5774 0.0000   x coordinate   0.6667
     high-symmetry point:  0.0000 0.5774 0.0000   x coordinate   1.0000
     high-symmetry point:  0.0000 0.0000 0.0000   x coordinate   1.5773

     Plottable bands (eV) written to file Bande_hBN_1l_LDA.dat.gnu
     Bands written to file Bande_hBN_1l_LDA.dat

 **************************************************************************

                    xk=(   0.00000,   0.00000,   0.00000  )

     point group D_3h (-62m)
     there are  6 classes
     the character table:

       E     2C3   3C2   s_h   2S3   3s_v 
A'_1   1.00  1.00  1.00  1.00  1.00  1.00
A'_2   1.00  1.00 -1.00  1.00  1.00 -1.00
E'     2.00 -1.00  0.00  2.00 -1.00  0.00
A''1   1.00  1.00  1.00 -1.00 -1.00 -1.00
A''2   1.00  1.00 -1.00 -1.00 -1.00  1.00
E''    2.00 -1.00  0.00 -2.00  1.00  0.00

     the symmetry operations in each class and the name of the first element:

     E        1
                                                                 
     2C3      3    4
                                                                 
     3C2      2    6    5
                                                                 
     s_h      7
                                                                 
     2S3      9   10
                                                                 
     3s_v     8   11   12
                                                                 

     Band symmetry, D_3h (-62m) point group:

     e(  1 -  1) =    -21.69167  eV     1   --> A'_1           
     e(  2 -  2) =     -9.51036  eV     1   --> A''2           
     e(  3 -  4) =     -5.63841  eV     2   --> E'             
     e(  5 -  5) =      0.22129  eV     1   --> A'_1           
     e(  6 -  6) =      1.23300  eV     1   --> A''2           
     e(  7 -  7) =      1.78737  eV     1   --> A'_1           
     e(  8 -  8) =      2.60573  eV     1   --> A''2           
     e(  9 -  9) =      3.10750  eV     1   --> A'_1           
     e( 10 - 10) =      4.69183  eV     1   --> A''2           
     e( 11 - 11) =      5.25245  eV     1   --> A'_1           
     e( 12 - 12) =      7.29329  eV     1   --> A''2           
     e( 13 - 14) =      7.50171  eV     2   --> E'             
     e( 15 - 15) =      7.95643  eV     1   --> A'_1           
     e( 16 - 16) =      9.30523  eV     1   --> A''2           

 **************************************************************************

 **************************************************************************

                    xk=(  -0.01587,   0.02749,   0.00000  )

     point group C_s (m)    
     there are  2 classes
     the character table:

       E     s    
A'     1.00  1.00
A''    1.00 -1.00

     the symmetry operations in each class and the name of the first element:

     E        1
                                                                 
     s        2
                                                                 

     Band symmetry, C_s (m)     point group:

     e(  1 -  1) =    -21.67707  eV     1   --> A'             
     e(  2 -  2) =     -9.49047  eV     1   --> A''            
     e(  3 -  3) =     -5.69903  eV     1   --> A'             
     e(  4 -  4) =     -5.66800  eV     1   --> A'             
     e(  5 -  5) =      0.24656  eV     1   --> A'             
     e(  6 -  6) =      1.25603  eV     1   --> A''            
     e(  7 -  7) =      1.81177  eV     1   --> A'             
     e(  8 -  8) =      2.62926  eV     1   --> A''            
     e(  9 -  9) =      3.13215  eV     1   --> A'             
     e( 10 - 10) =      4.71342  eV     1   --> A''            
     e( 11 - 11) =      5.27750  eV     1   --> A'             
     e( 12 - 12) =      7.30113  eV     1   --> A''            
     e( 13 - 13) =      7.49314  eV     1   --> A'             
     e( 14 - 14) =      7.56704  eV     1   --> A'             
     e( 15 - 15) =      7.98962  eV     1   --> A'             
     e( 16 - 16) =      9.28720  eV     1   --> A''            

 **************************************************************************

 **************************************************************************

                    xk=(  -0.03174,   0.05499,   0.00000  )

     Band symmetry, C_s (m)     point group:

     e(  1 -  1) =    -21.63351  eV     1   --> A'             
     e(  2 -  2) =     -9.43129  eV     1   --> A''            
     e(  3 -  3) =     -5.87700  eV     1   --> A'             
     e(  4 -  4) =     -5.75566  eV     1   --> A'             
     e(  5 -  5) =      0.32189  eV     1   --> A'             
     e(  6 -  6) =      1.32493  eV     1   --> A''            
     e(  7 -  7) =      1.88492  eV     1   --> A'             
     e(  8 -  8) =      2.69973  eV     1   --> A''            
     e(  9 -  9) =      3.20591  eV     1   --> A'             
     e( 10 - 10) =      4.77768  eV     1   --> A''            
     e( 11 - 11) =      5.35202  eV     1   --> A'             
     e( 12 - 12) =      7.32029  eV     1   --> A''            
     e( 13 - 13) =      7.47348  eV     1   --> A'             
     e( 14 - 14) =      7.74920  eV     1   --> A'             
     e( 15 - 15) =      8.09131  eV     1   --> A'             
     e( 16 - 16) =      9.23580  eV     1   --> A''            

 **************************************************************************

 **************************************************************************

                    xk=(  -0.04761,   0.08248,   0.00000  )

     Band symmetry, C_s (m)     point group:

     e(  1 -  1) =    -21.56125  eV     1   --> A'             
     e(  2 -  2) =     -9.33290  eV     1   --> A''            
     e(  3 -  3) =     -6.15904  eV     1   --> A'             
     e(  4 -  4) =     -5.90017  eV     1   --> A'             
     e(  5 -  5) =      0.44613  eV     1   --> A'             
     e(  6 -  6) =      1.43938  eV     1   --> A''            
     e(  7 -  7) =      2.00675  eV     1   --> A'             
     e(  8 -  8) =      2.81690  eV     1   --> A''            
     e(  9 -  9) =      3.32833  eV     1   --> A'             
     e( 10 - 10) =      4.88306  eV     1   --> A''            
     e( 11 - 11) =      5.47461  eV     1   --> A'             
     e( 12 - 12) =      7.33697  eV     1   --> A''            
     e( 13 - 13) =      7.46032  eV     1   --> A'             
     e( 14 - 14) =      7.99393  eV     1   --> A'             
     e( 15 - 15) =      8.29143  eV     1   --> A'             
     e( 16 - 16) =      9.16247  eV     1   --> A''            

 **************************************************************************

 **************************************************************************

                    xk=(  -0.06349,   0.10998,   0.00000  )

     Band symmetry, C_s (m)     point group:

     e(  1 -  1) =    -21.46063  eV     1   --> A'             
     e(  2 -  2) =     -9.19588  eV     1   --> A''            
     e(  3 -  3) =     -6.52511  eV     1   --> A'             
     e(  4 -  4) =     -6.09637  eV     1   --> A'             
     e(  5 -  5) =      0.61806  eV     1   --> A'             
     e(  6 -  6) =      1.59875  eV     1   --> A''            
     e(  7 -  7) =      2.17720  eV     1   --> A'             
     e(  8 -  8) =      2.98029  eV     1   --> A''            
     e(  9 -  9) =      3.49892  eV     1   --> A'             
     e( 10 - 10) =      5.02630  eV     1   --> A''            
     e( 11 - 11) =      5.64388  eV     1   --> A'             
     e( 12 - 12) =      7.32689  eV     1   --> A''            
     e( 13 - 13) =      7.46607  eV     1   --> A'             
     e( 14 - 14) =      8.21904  eV     1   --> A'             
     e( 15 - 15) =      8.64046  eV     1   --> A'             
     e( 16 - 16) =      9.09546  eV     1   --> A''            

 **************************************************************************

 **************************************************************************

                    xk=(  -0.07936,   0.13747,   0.00000  )

     Band symmetry, C_s (m)     point group:

     e(  1 -  1) =    -21.33227  eV     1   --> A'             
     e(  2 -  2) =     -9.02094  eV     1   --> A''            
     e(  3 -  3) =     -6.95435  eV     1   --> A'             
     e(  4 -  4) =     -6.33900  eV     1   --> A'             
     e(  5 -  5) =      0.83669  eV     1   --> A'             
     e(  6 -  6) =      1.80186  eV     1   --> A''            
     e(  7 -  7) =      2.39618  eV     1   --> A'             
     e(  8 -  8) =      3.18898  eV     1   --> A''            
     e(  9 -  9) =      3.71727  eV     1   --> A'             
     e( 10 - 10) =      5.20002  eV     1   --> A''            
     e( 11 - 11) =      5.85874  eV     1   --> A'             
     e( 12 - 12) =      7.25845  eV     1   --> A''            
     e( 13 - 13) =      7.50221  eV     1   --> A'             
     e( 14 - 14) =      8.43352  eV     1   --> A'             
     e( 15 - 15) =      9.07636  eV     1   --> A''            
     e( 16 - 16) =      9.09377  eV     1   --> A'             

 **************************************************************************

 **************************************************************************

                    xk=(  -0.09523,   0.16496,   0.00000  )

     Band symmetry, C_s (m)     point group:

     e(  1 -  1) =    -21.17697  eV     1   --> A'             
     e(  2 -  2) =     -8.80866  eV     1   --> A''            
     e(  3 -  3) =     -7.42828  eV     1   --> A'             
     e(  4 -  4) =     -6.62133  eV     1   --> A'             
     e(  5 -  5) =      1.10145  eV     1   --> A'             
     e(  6 -  6) =      2.04674  eV     1   --> A''            
     e(  7 -  7) =      2.66366  eV     1   --> A'             
     e(  8 -  8) =      3.44121  eV     1   --> A''            
     e(  9 -  9) =      3.98312  eV     1   --> A'             
     e( 10 - 10) =      5.38723  eV     1   --> A''            
     e( 11 - 11) =      6.11857  eV     1   --> A'             
     e( 12 - 12) =      7.12125  eV     1   --> A''            
     e( 13 - 13) =      7.57484  eV     1   --> A'             
     e( 14 - 14) =      8.66517  eV     1   --> A'             
     e( 15 - 15) =      9.14363  eV     1   --> A''            
     e( 16 - 16) =      9.58442  eV     1   --> A'             

 **************************************************************************

 **************************************************************************

                    xk=(  -0.11110,   0.19246,   0.00000  )

     Band symmetry, C_s (m)     point group:

     e(  1 -  1) =    -20.99589  eV     1   --> A'             
     e(  2 -  2) =     -8.56052  eV     1   --> A''            
     e(  3 -  3) =     -7.93026  eV     1   --> A'             
     e(  4 -  4) =     -6.93635  eV     1   --> A'             
     e(  5 -  5) =      1.41195  eV     1   --> A'             
     e(  6 -  6) =      2.32931  eV     1   --> A''            
     e(  7 -  7) =      2.97961  eV     1   --> A'             
     e(  8 -  8) =      3.73301  eV     1   --> A''            
     e(  9 -  9) =      4.29625  eV     1   --> A'             
     e( 10 - 10) =      5.54455  eV     1   --> A''            
     e( 11 - 11) =      6.42274  eV     1   --> A'             
     e( 12 - 12) =      6.96399  eV     1   --> A''            
     e( 13 - 13) =      7.68850  eV     1   --> A'             
     e( 14 - 14) =      8.92070  eV     1   --> A'             
     e( 15 - 15) =      9.30810  eV     1   --> A''            
     e( 16 - 16) =     10.07078  eV     1   --> A'             

 **************************************************************************

 **************************************************************************

                    xk=(  -0.12697,   0.21995,   0.00000  )

     Band symmetry, C_s (m)     point group:

     e(  1 -  1) =    -20.79044  eV     1   --> A'             
     e(  2 -  2) =     -8.44581  eV     1   --> A'             
     e(  3 -  3) =     -8.27839  eV     1   --> A''            
     e(  4 -  4) =     -7.27733  eV     1   --> A'             
     e(  5 -  5) =      1.76809  eV     1   --> A'             
     e(  6 -  6) =      2.64099  eV     1   --> A''            
     e(  7 -  7) =      3.34402  eV     1   --> A'             
     e(  8 -  8) =      4.05435  eV     1   --> A''            
     e(  9 -  9) =      4.65656  eV     1   --> A'             
     e( 10 - 10) =      5.58637  eV     1   --> A''            
     e( 11 - 11) =      6.77068  eV     1   --> A'             
     e( 12 - 12) =      6.91357  eV     1   --> A''            
     e( 13 - 13) =      7.84510  eV     1   --> A'             
     e( 14 - 14) =      9.19913  eV     1   --> A'             
     e( 15 - 15) =      9.55826  eV     1   --> A''            
     e( 16 - 16) =     10.53415  eV     1   --> A'             

 **************************************************************************

 **************************************************************************

                    xk=(  -0.14284,   0.24744,   0.00000  )

     Band symmetry, C_s (m)     point group:

     e(  1 -  1) =    -20.56249  eV     1   --> A'             
     e(  2 -  2) =     -8.96355  eV     1   --> A'             
     e(  3 -  3) =     -7.96468  eV     1   --> A''            
     e(  4 -  4) =     -7.63679  eV     1   --> A'             
     e(  5 -  5) =      2.16967  eV     1   --> A'             
     e(  6 -  6) =      2.96052  eV     1   --> A''            
     e(  7 -  7) =      3.75688  eV     1   --> A'             
     e(  8 -  8) =      4.37365  eV     1   --> A''            
     e(  9 -  9) =      5.06386  eV     1   --> A'             
     e( 10 - 10) =      5.49014  eV     1   --> A''            
     e( 11 - 11) =      7.07166  eV     1   --> A''            
     e( 12 - 12) =      7.16148  eV     1   --> A'             
     e( 13 - 13) =      8.04366  eV     1   --> A'             
     e( 14 - 14) =      9.49658  eV     1   --> A'             
     e( 15 - 15) =      9.87677  eV     1   --> A''            
     e( 16 - 16) =     10.97765  eV     1   --> A'             

 **************************************************************************

 **************************************************************************

                    xk=(  -0.15871,   0.27494,   0.00000  )

     Band symmetry, C_s (m)     point group:

     e(  1 -  1) =    -20.31455  eV     1   --> A'             
     e(  2 -  2) =     -9.47389  eV     1   --> A'             
     e(  3 -  3) =     -8.00833  eV     1   --> A'             
     e(  4 -  4) =     -7.62159  eV     1   --> A''            
     e(  5 -  5) =      2.61637  eV     1   --> A'             
     e(  6 -  6) =      3.22852  eV     1   --> A''            
     e(  7 -  7) =      4.21814  eV     1   --> A'             
     e(  8 -  8) =      4.59960  eV     1   --> A''            
     e(  9 -  9) =      5.47144  eV     1   --> A''            
     e( 10 - 10) =      5.51785  eV     1   --> A'             
     e( 11 - 11) =      7.39620  eV     1   --> A''            
     e( 12 - 12) =      7.59350  eV     1   --> A'             
     e( 13 - 13) =      8.28079  eV     1   --> A'             
     e( 14 - 14) =      9.80763  eV     1   --> A'             
     e( 15 - 15) =     10.24723  eV     1   --> A''            
     e( 16 - 16) =     11.41690  eV     1   --> A'             

 **************************************************************************

 **************************************************************************

                    xk=(  -0.17459,   0.30243,   0.00000  )

     Band symmetry, C_s (m)     point group:

     e(  1 -  1) =    -20.04979  eV     1   --> A'             
     e(  2 -  2) =     -9.96687  eV     1   --> A'             
     e(  3 -  3) =     -8.38571  eV     1   --> A'             
     e(  4 -  4) =     -7.25332  eV     1   --> A''            
     e(  5 -  5) =      3.10787  eV     1   --> A'             
     e(  6 -  6) =      3.30362  eV     1   --> A''            
     e(  7 -  7) =      4.72779  eV     1   --> A'             
     e(  8 -  8) =      4.74008  eV     1   --> A''            
     e(  9 -  9) =      5.74684  eV     1   --> A''            
     e( 10 - 10) =      6.01816  eV     1   --> A'             
     e( 11 - 11) =      7.81926  eV     1   --> A''            
     e( 12 - 12) =      8.06442  eV     1   --> A'             
     e( 13 - 13) =      8.55193  eV     1   --> A'             
     e( 14 - 14) =     10.12794  eV     1   --> A'             
     e( 15 - 15) =     10.65022  eV     1   --> A''            
     e( 16 - 16) =     11.86942  eV     1   --> A'             

 **************************************************************************

 **************************************************************************

                    xk=(  -0.19046,   0.32993,   0.00000  )

     Band symmetry, C_s (m)     point group:

     e(  1 -  1) =    -19.77218  eV     1   --> A'             
     e(  2 -  2) =    -10.43432  eV     1   --> A'             
     e(  3 -  3) =     -8.76319  eV     1   --> A'             
     e(  4 -  4) =     -6.86420  eV     1   --> A''            
     e(  5 -  5) =      3.09301  eV     1   --> A''            
     e(  6 -  6) =      3.64360  eV     1   --> A'             
     e(  7 -  7) =      5.03837  eV     1   --> A''            
     e(  8 -  8) =      5.28576  eV     1   --> A'             
     e(  9 -  9) =      6.21062  eV     1   --> A''            
     e( 10 - 10) =      6.56410  eV     1   --> A'             
     e( 11 - 11) =      8.30533  eV     1   --> A''            
     e( 12 - 12) =      8.56976  eV     1   --> A'             
     e( 13 - 13) =      8.84867  eV     1   --> A'             
     e( 14 - 14) =     10.45633  eV     1   --> A'             
     e( 15 - 15) =     11.05046  eV     1   --> A''            
     e( 16 - 16) =     12.34906  eV     1   --> A'             

 **************************************************************************

 **************************************************************************

                    xk=(  -0.20633,   0.35742,   0.00000  )

     Band symmetry, C_s (m)     point group:

     e(  1 -  1) =    -19.48709  eV     1   --> A'             
     e(  2 -  2) =    -10.86803  eV     1   --> A'             
     e(  3 -  3) =     -9.13621  eV     1   --> A'             
     e(  4 -  4) =     -6.46004  eV     1   --> A''            
     e(  5 -  5) =      2.71380  eV     1   --> A''            
     e(  6 -  6) =      4.22265  eV     1   --> A'             
     e(  7 -  7) =      5.49935  eV     1   --> A''            
     e(  8 -  8) =      5.89197  eV     1   --> A'             
     e(  9 -  9) =      6.76280  eV     1   --> A''            
     e( 10 - 10) =      7.15445  eV     1   --> A'             
     e( 11 - 11) =      8.83201  eV     1   --> A''            
     e( 12 - 12) =      9.08938  eV     1   --> A'             
     e( 13 - 13) =      9.17234  eV     1   --> A'             
     e( 14 - 14) =     10.79788  eV     1   --> A'             
     e( 15 - 15) =     11.36255  eV     1   --> A''            
     e( 16 - 16) =     12.86418  eV     1   --> A'             

 **************************************************************************

 **************************************************************************

                    xk=(  -0.22220,   0.38491,   0.00000  )

     Band symmetry, C_s (m)     point group:

     e(  1 -  1) =    -19.20155  eV     1   --> A'             
     e(  2 -  2) =    -11.25889  eV     1   --> A'             
     e(  3 -  3) =     -9.50025  eV     1   --> A'             
     e(  4 -  4) =     -6.04985  eV     1   --> A''            
     e(  5 -  5) =      2.28090  eV     1   --> A''            
     e(  6 -  6) =      4.84347  eV     1   --> A'             
     e(  7 -  7) =      6.04925  eV     1   --> A''            
     e(  8 -  8) =      6.54624  eV     1   --> A'             
     e(  9 -  9) =      7.37103  eV     1   --> A''            
     e( 10 - 10) =      7.78672  eV     1   --> A'             
     e( 11 - 11) =      9.36893  eV     1   --> A''            
     e( 12 - 12) =      9.44154  eV     1   --> A'             
     e( 13 - 13) =      9.67699  eV     1   --> A'             
     e( 14 - 14) =     11.16600  eV     1   --> A'             
     e( 15 - 15) =     11.44997  eV     1   --> A''            
     e( 16 - 16) =     13.22336  eV     1   --> A''            

 **************************************************************************

 **************************************************************************

                    xk=(  -0.23807,   0.41241,   0.00000  )

     Band symmetry, C_s (m)     point group:

     e(  1 -  1) =    -18.92395  eV     1   --> A'             
     e(  2 -  2) =    -11.59712  eV     1   --> A'             
     e(  3 -  3) =     -9.85124  eV     1   --> A'             
     e(  4 -  4) =     -5.64433  eV     1   --> A''            
     e(  5 -  5) =      1.84938  eV     1   --> A''            
     e(  6 -  6) =      5.50383  eV     1   --> A'             
     e(  7 -  7) =      6.64549  eV     1   --> A''            
     e(  8 -  8) =      7.24825  eV     1   --> A'             
     e(  9 -  9) =      8.01782  eV     1   --> A''            
     e( 10 - 10) =      8.45519  eV     1   --> A'             
     e( 11 - 11) =      9.71623  eV     1   --> A'             
     e( 12 - 12) =      9.84235  eV     1   --> A''            
     e( 13 - 13) =     10.23801  eV     1   --> A'             
     e( 14 - 14) =     11.40124  eV     1   --> A''            
     e( 15 - 15) =     11.57962  eV     1   --> A'             
     e( 16 - 16) =     13.57416  eV     1   --> A''            

 **************************************************************************

 **************************************************************************

                    xk=(  -0.25394,   0.43990,   0.00000  )

     Band symmetry, C_s (m)     point group:

     e(  1 -  1) =    -18.66522  eV     1   --> A'             
     e(  2 -  2) =    -11.87224  eV     1   --> A'             
     e(  3 -  3) =    -10.18591  eV     1   --> A'             
     e(  4 -  4) =     -5.25770  eV     1   --> A''            
     e(  5 -  5) =      1.44935  eV     1   --> A''            
     e(  6 -  6) =      6.19946  eV     1   --> A'             
     e(  7 -  7) =      7.24824  eV     1   --> A''            
     e(  8 -  8) =      7.99725  eV     1   --> A'             
     e(  9 -  9) =      8.67674  eV     1   --> A''            
     e( 10 - 10) =      9.14005  eV     1   --> A'             
     e( 11 - 11) =      9.95506  eV     1   --> A'             
     e( 12 - 12) =     10.11993  eV     1   --> A''            
     e( 13 - 13) =     10.78179  eV     1   --> A'             
     e( 14 - 14) =     11.57167  eV     1   --> A''            
     e( 15 - 15) =     12.05091  eV     1   --> A'             
     e( 16 - 16) =     14.04415  eV     1   --> A''            

 **************************************************************************

 **************************************************************************

                    xk=(  -0.26981,   0.46739,   0.00000  )

     Band symmetry, C_s (m)     point group:

     e(  1 -  1) =    -18.43690  eV     1   --> A'             
     e(  2 -  2) =    -12.07378  eV     1   --> A'             
     e(  3 -  3) =    -10.49957  eV     1   --> A'             
     e(  4 -  4) =     -4.90778  eV     1   --> A''            
     e(  5 -  5) =      1.10254  eV     1   --> A''            
     e(  6 -  6) =      6.92299  eV     1   --> A'             
     e(  7 -  7) =      7.78263  eV     1   --> A''            
     e(  8 -  8) =      8.79084  eV     1   --> A'             
     e(  9 -  9) =      9.28442  eV     1   --> A''            
     e( 10 - 10) =      9.73226  eV     1   --> A'             
     e( 11 - 11) =     10.25058  eV     1   --> A'             
     e( 12 - 12) =     10.31759  eV     1   --> A''            
     e( 13 - 13) =     11.25870  eV     1   --> A'             
     e( 14 - 14) =     12.07016  eV     1   --> A''            
     e( 15 - 15) =     12.55755  eV     1   --> A'             
     e( 16 - 16) =     13.65599  eV     1   --> A'             

 **************************************************************************

 **************************************************************************

                    xk=(  -0.28569,   0.49489,   0.00000  )

     Band symmetry, C_s (m)     point group:

     e(  1 -  1) =    -18.25113  eV     1   --> A'             
     e(  2 -  2) =    -12.19442  eV     1   --> A'             
     e(  3 -  3) =    -10.78679  eV     1   --> A'             
     e(  4 -  4) =     -4.61378  eV     1   --> A''            
     e(  5 -  5) =      0.82715  eV     1   --> A''            
     e(  6 -  6) =      7.65781  eV     1   --> A'             
     e(  7 -  7) =      8.11571  eV     1   --> A''            
     e(  8 -  8) =      9.60921  eV     1   --> A'             
     e(  9 -  9) =      9.80990  eV     1   --> A''            
     e( 10 - 10) =      9.99625  eV     1   --> A'             
     e( 11 - 11) =     10.78796  eV     1   --> A''            
     e( 12 - 12) =     10.82214  eV     1   --> A'             
     e( 13 - 13) =     11.57050  eV     1   --> A'             
     e( 14 - 14) =     12.69725  eV     1   --> A''            
     e( 15 - 15) =     12.95392  eV     1   --> A'             
     e( 16 - 16) =     13.53644  eV     1   --> A'             

 **************************************************************************

 **************************************************************************

                    xk=(  -0.30156,   0.52238,   0.00000  )

     Band symmetry, C_s (m)     point group:

     e(  1 -  1) =    -18.11731  eV     1   --> A'             
     e(  2 -  2) =    -12.23502  eV     1   --> A'             
     e(  3 -  3) =    -11.03715  eV     1   --> A'             
     e(  4 -  4) =     -4.39611  eV     1   --> A''            
     e(  5 -  5) =      0.63555  eV     1   --> A''            
     e(  6 -  6) =      8.20184  eV     1   --> A''            
     e(  7 -  7) =      8.36115  eV     1   --> A'             
     e(  8 -  8) =      9.99375  eV     1   --> A'             
     e(  9 -  9) =     10.41716  eV     1   --> A''            
     e( 10 - 10) =     10.56025  eV     1   --> A'             
     e( 11 - 11) =     11.21104  eV     1   --> A'             
     e( 12 - 12) =     11.50113  eV     1   --> A''            
     e( 13 - 13) =     11.87001  eV     1   --> A'             
     e( 14 - 14) =     12.84932  eV     1   --> A''            
     e( 15 - 15) =     13.18477  eV     1   --> A'             
     e( 16 - 16) =     13.37196  eV     1   --> A''            

 **************************************************************************

 **************************************************************************

                    xk=(  -0.31743,   0.54988,   0.00000  )

     Band symmetry, C_s (m)     point group:

     e(  1 -  1) =    -18.03950  eV     1   --> A'             
     e(  2 -  2) =    -12.21443  eV     1   --> A'             
     e(  3 -  3) =    -11.22808  eV     1   --> A'             
     e(  4 -  4) =     -4.26683  eV     1   --> A''            
     e(  5 -  5) =      0.53025  eV     1   --> A''            
     e(  6 -  6) =      8.17470  eV     1   --> A''            
     e(  7 -  7) =      8.90732  eV     1   --> A'             
     e(  8 -  8) =     10.10293  eV     1   --> A'             
     e(  9 -  9) =     10.96418  eV     1   --> A'             
     e( 10 - 10) =     11.11882  eV     1   --> A''            
     e( 11 - 11) =     11.50301  eV     1   --> A'             
     e( 12 - 12) =     12.17660  eV     1   --> A''            
     e( 13 - 13) =     12.49056  eV     1   --> A''            
     e( 14 - 14) =     12.51448  eV     1   --> A'             
     e( 15 - 15) =     12.91980  eV     1   --> A'             
     e( 16 - 16) =     13.02283  eV     1   --> A'             

 **************************************************************************

 **************************************************************************

                    xk=(  -0.33330,   0.57737,   0.00000  )

     Band symmetry, C_s (m)     point group:

     e(  1 -  1) =    -18.01516  eV     1   --> A'             
     e(  2 -  2) =    -12.18892  eV     1   --> A'             
     e(  3 -  3) =    -11.30778  eV     1   --> A'             
     e(  4 -  4) =     -4.22559  eV     1   --> A''            
     e(  5 -  5) =      0.50016  eV     1   --> A''            
     e(  6 -  6) =      8.15166  eV     1   --> A''            
     e(  7 -  7) =      9.09155  eV     1   --> A'             
     e(  8 -  8) =     10.27649  eV     1   --> A'             
     e(  9 -  9) =     10.74074  eV     1   --> A'             
     e( 10 - 10) =     11.58632  eV     1   --> A''            
     e( 11 - 11) =     12.03869  eV     1   --> A''            
     e( 12 - 12) =     12.37099  eV     1   --> A'             
     e( 13 - 13) =     12.45781  eV     1   --> A'             
     e( 14 - 14) =     12.51012  eV     1   --> A'             
     e( 15 - 15) =     12.66260  eV     1   --> A''            
     e( 16 - 16) =     13.00466  eV     1   --> A'             

 **************************************************************************

 **************************************************************************

                    xk=(  -0.30300,   0.57737,   0.00000  )

     Band symmetry, C_s (m)     point group:

     e(  1 -  1) =    -18.03419  eV     1   --> A'             
     e(  2 -  2) =    -12.22763  eV     1   --> A'             
     e(  3 -  3) =    -11.22363  eV     1   --> A'             
     e(  4 -  4) =     -4.25745  eV     1   --> A''            
     e(  5 -  5) =      0.51939  eV     1   --> A''            
     e(  6 -  6) =      8.18096  eV     1   --> A''            
     e(  7 -  7) =      8.98993  eV     1   --> A'             
     e(  8 -  8) =     10.04546  eV     1   --> A'             
     e(  9 -  9) =     10.90688  eV     1   --> A'             
     e( 10 - 10) =     11.31540  eV     1   --> A''            
     e( 11 - 11) =     11.94821  eV     1   --> A''            
     e( 12 - 12) =     11.98369  eV     1   --> A'             
     e( 13 - 13) =     12.04049  eV     1   --> A'             
     e( 14 - 14) =     12.72194  eV     1   --> A''            
     e( 15 - 15) =     12.79416  eV     1   --> A'             
     e( 16 - 16) =     12.94486  eV     1   --> A''            

 **************************************************************************

 **************************************************************************

                    xk=(  -0.27270,   0.57737,   0.00000  )

     Band symmetry, C_s (m)     point group:

     e(  1 -  1) =    -18.08413  eV     1   --> A'             
     e(  2 -  2) =    -12.33046  eV     1   --> A'             
     e(  3 -  3) =    -10.99515  eV     1   --> A'             
     e(  4 -  4) =     -4.33940  eV     1   --> A''            
     e(  5 -  5) =      0.56083  eV     1   --> A''            
     e(  6 -  6) =      8.27166  eV     1   --> A''            
     e(  7 -  7) =      8.76596  eV     1   --> A'             
     e(  8 -  8) =      9.68834  eV     1   --> A'             
     e(  9 -  9) =     10.88425  eV     1   --> A'             
     e( 10 - 10) =     10.94890  eV     1   --> A''            
     e( 11 - 11) =     11.58484  eV     1   --> A'             
     e( 12 - 12) =     11.64556  eV     1   --> A'             
     e( 13 - 13) =     11.66004  eV     1   --> A''            
     e( 14 - 14) =     12.39220  eV     1   --> A''            
     e( 15 - 15) =     12.53314  eV     1   --> A'             
     e( 16 - 16) =     12.77329  eV     1   --> A''            

 **************************************************************************

 **************************************************************************

                    xk=(  -0.24240,   0.57736,   0.00000  )

     Band symmetry, C_s (m)     point group:

     e(  1 -  1) =    -18.15429  eV     1   --> A'             
     e(  2 -  2) =    -12.45901  eV     1   --> A'             
     e(  3 -  3) =    -10.67651  eV     1   --> A'             
     e(  4 -  4) =     -4.45196  eV     1   --> A''            
     e(  5 -  5) =      0.60388  eV     1   --> A''            
     e(  6 -  6) =      8.41212  eV     1   --> A''            
     e(  7 -  7) =      8.47195  eV     1   --> A'             
     e(  8 -  8) =      9.34314  eV     1   --> A'             
     e(  9 -  9) =     10.56277  eV     1   --> A'             
     e( 10 - 10) =     10.61072  eV     1   --> A''            
     e( 11 - 11) =     11.21659  eV     1   --> A'             
     e( 12 - 12) =     11.28125  eV     1   --> A'             
     e( 13 - 13) =     11.37621  eV     1   --> A''            
     e( 14 - 14) =     12.03721  eV     1   --> A''            
     e( 15 - 15) =     12.23458  eV     1   --> A'             
     e( 16 - 16) =     12.53330  eV     1   --> A''            

 **************************************************************************

 **************************************************************************

                    xk=(  -0.21210,   0.57736,   0.00000  )

     Band symmetry, C_s (m)     point group:

     e(  1 -  1) =    -18.23500  eV     1   --> A'             
     e(  2 -  2) =    -12.58893  eV     1   --> A'             
     e(  3 -  3) =    -10.31004  eV     1   --> A'             
     e(  4 -  4) =     -4.57915  eV     1   --> A''            
     e(  5 -  5) =      0.63593  eV     1   --> A''            
     e(  6 -  6) =      8.11818  eV     1   --> A'             
     e(  7 -  7) =      8.57226  eV     1   --> A''            
     e(  8 -  8) =      9.03324  eV     1   --> A'             
     e(  9 -  9) =     10.12584  eV     1   --> A'             
     e( 10 - 10) =     10.31385  eV     1   --> A''            
     e( 11 - 11) =     10.88946  eV     1   --> A'             
     e( 12 - 12) =     10.94706  eV     1   --> A'             
     e( 13 - 13) =     11.13786  eV     1   --> A''            
     e( 14 - 14) =     11.72059  eV     1   --> A''            
     e( 15 - 15) =     11.95832  eV     1   --> A'             
     e( 16 - 16) =     12.28793  eV     1   --> A'             

 **************************************************************************

 **************************************************************************

                    xk=(  -0.18180,   0.57736,   0.00000  )

     Band symmetry, C_s (m)     point group:

     e(  1 -  1) =    -18.31835  eV     1   --> A'             
     e(  2 -  2) =    -12.70886  eV     1   --> A'             
     e(  3 -  3) =     -9.92510  eV     1   --> A'             
     e(  4 -  4) =     -4.70747  eV     1   --> A''            
     e(  5 -  5) =      0.65259  eV     1   --> A''            
     e(  6 -  6) =      7.70858  eV     1   --> A'             
     e(  7 -  7) =      8.71173  eV     1   --> A''            
     e(  8 -  8) =      8.76740  eV     1   --> A'             
     e(  9 -  9) =      9.69515  eV     1   --> A'             
     e( 10 - 10) =     10.06163  eV     1   --> A''            
     e( 11 - 11) =     10.60571  eV     1   --> A'             
     e( 12 - 12) =     10.65502  eV     1   --> A'             
     e( 13 - 13) =     10.95060  eV     1   --> A''            
     e( 14 - 14) =     11.44757  eV     1   --> A''            
     e( 15 - 15) =     11.71471  eV     1   --> A'             
     e( 16 - 16) =     12.00746  eV     1   --> A'             

 **************************************************************************

 **************************************************************************

                    xk=(  -0.15150,   0.57736,   0.00000  )

     Band symmetry, C_s (m)     point group:

     e(  1 -  1) =    -18.39768  eV     1   --> A'             
     e(  2 -  2) =    -12.81410  eV     1   --> A'             
     e(  3 -  3) =     -9.54480  eV     1   --> A'             
     e(  4 -  4) =     -4.82798  eV     1   --> A''            
     e(  5 -  5) =      0.65492  eV     1   --> A''            
     e(  6 -  6) =      7.26310  eV     1   --> A'             
     e(  7 -  7) =      8.54702  eV     1   --> A'             
     e(  8 -  8) =      8.79816  eV     1   --> A''            
     e(  9 -  9) =      9.32796  eV     1   --> A'             
     e( 10 - 10) =      9.85402  eV     1   --> A''            
     e( 11 - 11) =     10.36552  eV     1   --> A'             
     e( 12 - 12) =     10.40833  eV     1   --> A'             
     e( 13 - 13) =     10.80483  eV     1   --> A''            
     e( 14 - 14) =     11.21931  eV     1   --> A''            
     e( 15 - 15) =     11.50554  eV     1   --> A'             
     e( 16 - 16) =     11.76728  eV     1   --> A'             

 **************************************************************************

 **************************************************************************

                    xk=(  -0.12120,   0.57736,   0.00000  )

     Band symmetry, C_s (m)     point group:

     e(  1 -  1) =    -18.46841  eV     1   --> A'             
     e(  2 -  2) =    -12.90213  eV     1   --> A'             
     e(  3 -  3) =     -9.19146  eV     1   --> A'             
     e(  4 -  4) =     -4.93418  eV     1   --> A''            
     e(  5 -  5) =      0.64705  eV     1   --> A''            
     e(  6 -  6) =      6.81844  eV     1   --> A'             
     e(  7 -  7) =      8.36995  eV     1   --> A'             
     e(  8 -  8) =      8.82587  eV     1   --> A''            
     e(  9 -  9) =      9.03959  eV     1   --> A'             
     e( 10 - 10) =      9.68872  eV     1   --> A''            
     e( 11 - 11) =     10.16891  eV     1   --> A'             
     e( 12 - 12) =     10.20702  eV     1   --> A'             
     e( 13 - 13) =     10.68609  eV     1   --> A''            
     e( 14 - 14) =     11.03546  eV     1   --> A''            
     e( 15 - 15) =     11.33226  eV     1   --> A'             
     e( 16 - 16) =     11.56990  eV     1   --> A'             

 **************************************************************************

 **************************************************************************

                    xk=(  -0.09090,   0.57736,   0.00000  )

     Band symmetry, C_s (m)     point group:

     e(  1 -  1) =    -18.52665  eV     1   --> A'             
     e(  2 -  2) =    -12.97136  eV     1   --> A'             
     e(  3 -  3) =     -8.88615  eV     1   --> A'             
     e(  4 -  4) =     -5.02064  eV     1   --> A''            
     e(  5 -  5) =      0.63443  eV     1   --> A''            
     e(  6 -  6) =      6.41851  eV     1   --> A'             
     e(  7 -  7) =      8.23399  eV     1   --> A'             
     e(  8 -  8) =      8.81388  eV     1   --> A''            
     e(  9 -  9) =      8.82633  eV     1   --> A'             
     e( 10 - 10) =      9.56262  eV     1   --> A''            
     e( 11 - 11) =     10.01594  eV     1   --> A'             
     e( 12 - 12) =     10.05075  eV     1   --> A'             
     e( 13 - 13) =     10.58778  eV     1   --> A''            
     e( 14 - 14) =     10.89466  eV     1   --> A''            
     e( 15 - 15) =     11.19625  eV     1   --> A'             
     e( 16 - 16) =     11.41612  eV     1   --> A'             

 **************************************************************************

 **************************************************************************

                    xk=(  -0.06060,   0.57735,   0.00000  )

     Band symmetry, C_s (m)     point group:

     e(  1 -  1) =    -18.56985  eV     1   --> A'             
     e(  2 -  2) =    -13.02129  eV     1   --> A'             
     e(  3 -  3) =     -8.64947  eV     1   --> A'             
     e(  4 -  4) =     -5.08406  eV     1   --> A''            
     e(  5 -  5) =      0.62179  eV     1   --> A''            
     e(  6 -  6) =      6.10226  eV     1   --> A'             
     e(  7 -  7) =      8.13756  eV     1   --> A'             
     e(  8 -  8) =      8.68013  eV     1   --> A'             
     e(  9 -  9) =      8.78717  eV     1   --> A''            
     e( 10 - 10) =      9.47337  eV     1   --> A''            
     e( 11 - 11) =      9.90662  eV     1   --> A'             
     e( 12 - 12) =      9.93926  eV     1   --> A'             
     e( 13 - 13) =     10.51231  eV     1   --> A''            
     e( 14 - 14) =     10.79527  eV     1   --> A''            
     e( 15 - 15) =     11.09842  eV     1   --> A'             
     e( 16 - 16) =     11.30620  eV     1   --> A'             

 **************************************************************************

 **************************************************************************

                    xk=(  -0.03030,   0.57735,   0.00000  )

     Band symmetry, C_s (m)     point group:

     e(  1 -  1) =    -18.59651  eV     1   --> A'             
     e(  2 -  2) =    -13.05145  eV     1   --> A'             
     e(  3 -  3) =     -8.49941  eV     1   --> A'             
     e(  4 -  4) =     -5.12300  eV     1   --> A''            
     e(  5 -  5) =      0.61279  eV     1   --> A''            
     e(  6 -  6) =      5.89991  eV     1   --> A'             
     e(  7 -  7) =      8.07988  eV     1   --> A'             
     e(  8 -  8) =      8.59475  eV     1   --> A'             
     e(  9 -  9) =      8.76436  eV     1   --> A''            
     e( 10 - 10) =      9.41994  eV     1   --> A''            
     e( 11 - 11) =      9.84102  eV     1   --> A'             
     e( 12 - 12) =      9.87242  eV     1   --> A'             
     e( 13 - 13) =     10.46464  eV     1   --> A''            
     e( 14 - 14) =     10.73603  eV     1   --> A''            
     e( 15 - 15) =     11.03943  eV     1   --> A'             
     e( 16 - 16) =     11.24023  eV     1   --> A'             

 **************************************************************************

 **************************************************************************

                    xk=(   0.00000,   0.57735,   0.00000  )

     point group C_2v (mm2) 
     there are  4 classes
     the character table:

       E     C2    s_v   s_v' 
A_1    1.00  1.00  1.00  1.00
A_2    1.00  1.00 -1.00 -1.00
B_1    1.00 -1.00  1.00 -1.00
B_2    1.00 -1.00 -1.00  1.00

     the symmetry operations in each class and the name of the first element:

     E        1
                                                                 
     C2       2
                                                                 
     s_v      3
                                                                 
     s_v'     4
                                                                 

     Band symmetry, C_2v (mm2)  point group:

     e(  1 -  1) =    -18.60539  eV     1   --> A_1  D_1  S_1  
     e(  2 -  2) =    -13.06140  eV     1   --> A_1  D_1  S_1  
     e(  3 -  3) =     -8.44726  eV     1   --> B_1  D_3  S_3  
     e(  4 -  4) =     -5.13610  eV     1   --> B_2  D_4  S_4  
     e(  5 -  5) =      0.60960  eV     1   --> B_2  D_4  S_4  
     e(  6 -  6) =      5.83032  eV     1   --> A_1  D_1  S_1  
     e(  7 -  7) =      8.06073  eV     1   --> A_1  D_1  S_1  
     e(  8 -  8) =      8.56668  eV     1   --> A_1  D_1  S_1  
     e(  9 -  9) =      8.75572  eV     1   --> B_2  D_4  S_4  
     e( 10 - 10) =      9.40213  eV     1   --> B_2  D_4  S_4  
     e( 11 - 11) =      9.81915  eV     1   --> A_1  D_1  S_1  
     e( 12 - 12) =      9.85015  eV     1   --> A_1  D_1  S_1  
     e( 13 - 13) =     10.44836  eV     1   --> B_2  D_4  S_4  
     e( 14 - 14) =     10.71634  eV     1   --> B_2  D_4  S_4  
     e( 15 - 15) =     11.01976  eV     1   --> A_1  D_1  S_1  
     e( 16 - 16) =     11.21824  eV     1   --> A_1  D_1  S_1  

 **************************************************************************

 **************************************************************************

                    xk=(   0.00000,   0.54528,   0.00000  )

     Band symmetry, C_2v (mm2)  point group:

     e(  1 -  1) =    -18.65076  eV     1   --> A_1  D_1  S_1  
     e(  2 -  2) =    -12.99145  eV     1   --> A_1  D_1  S_1  
     e(  3 -  3) =     -8.43135  eV     1   --> B_1  D_3  S_3  
     e(  4 -  4) =     -5.20752  eV     1   --> B_2  D_4  S_4  
     e(  5 -  5) =      0.70117  eV     1   --> B_2  D_4  S_4  
     e(  6 -  6) =      5.77770  eV     1   --> A_1  D_1  S_1  
     e(  7 -  7) =      7.58645  eV     1   --> A_1  D_1  S_1  
     e(  8 -  8) =      8.24422  eV     1   --> B_2  D_4  S_4  
     e(  9 -  9) =      8.94701  eV     1   --> A_1  D_1  S_1  
     e( 10 - 10) =      9.14171  eV     1   --> A_1  D_1  S_1  
     e( 11 - 11) =      9.60130  eV     1   --> B_2  D_4  S_4  
     e( 12 - 12) =     10.08640  eV     1   --> B_2  D_4  S_4  
     e( 13 - 13) =     10.29262  eV     1   --> A_1  D_1  S_1  
     e( 14 - 14) =     10.74855  eV     1   --> A_1  D_1  S_1  
     e( 15 - 15) =     11.36448  eV     1   --> B_2  D_4  S_4  
     e( 16 - 16) =     11.85025  eV     1   --> B_2  D_4  S_4  

 **************************************************************************

 **************************************************************************

                    xk=(   0.00000,   0.51320,   0.00000  )

     Band symmetry, C_2v (mm2)  point group:

     e(  1 -  1) =    -18.77978  eV     1   --> A_1  D_1  S_1  
     e(  2 -  2) =    -12.78923  eV     1   --> A_1  D_1  S_1  
     e(  3 -  3) =     -8.38386  eV     1   --> B_1  D_3  S_3  
     e(  4 -  4) =     -5.40753  eV     1   --> B_2  D_4  S_4  
     e(  5 -  5) =      0.96019  eV     1   --> B_2  D_4  S_4  
     e(  6 -  6) =      5.59005  eV     1   --> A_1  D_1  S_1  
     e(  7 -  7) =      7.06493  eV     1   --> A_1  D_1  S_1  
     e(  8 -  8) =      7.52713  eV     1   --> B_2  D_4  S_4  
     e(  9 -  9) =      8.15788  eV     1   --> A_1  D_1  S_1  
     e( 10 - 10) =      8.91124  eV     1   --> B_2  D_4  S_4  
     e( 11 - 11) =      9.44095  eV     1   --> A_1  D_1  S_1  
     e( 12 - 12) =      9.97634  eV     1   --> A_1  D_1  S_1  
     e( 13 - 13) =     10.57708  eV     1   --> B_2  D_4  S_4  
     e( 14 - 14) =     11.22924  eV     1   --> B_2  D_4  S_4  
     e( 15 - 15) =     11.60713  eV     1   --> A_1  D_1  S_1  
     e( 16 - 16) =     11.74661  eV     1   --> A_1  D_1  S_1  

 **************************************************************************

 **************************************************************************

                    xk=(   0.00000,   0.48113,   0.00000  )

     Band symmetry, C_2v (mm2)  point group:

     e(  1 -  1) =    -18.97445  eV     1   --> A_1  D_1  S_1  
     e(  2 -  2) =    -12.47323  eV     1   --> A_1  D_1  S_1  
     e(  3 -  3) =     -8.30423  eV     1   --> B_1  D_3  S_3  
     e(  4 -  4) =     -5.70276  eV     1   --> B_2  D_4  S_4  
     e(  5 -  5) =      1.34868  eV     1   --> B_2  D_4  S_4  
     e(  6 -  6) =      5.22382  eV     1   --> A_1  D_1  S_1  
     e(  7 -  7) =      6.72422  eV     1   --> A_1  D_1  S_1  
     e(  8 -  8) =      6.82920  eV     1   --> B_2  D_4  S_4  
     e(  9 -  9) =      7.40758  eV     1   --> A_1  D_1  S_1  
     e( 10 - 10) =      8.18256  eV     1   --> B_2  D_4  S_4  
     e( 11 - 11) =      8.74477  eV     1   --> A_1  D_1  S_1  
     e( 12 - 12) =     10.19152  eV     1   --> B_2  D_4  S_4  
     e( 13 - 13) =     10.58180  eV     1   --> A_1  D_1  S_1  
     e( 14 - 14) =     11.12037  eV     1   --> A_1  D_1  S_1  
     e( 15 - 15) =     11.68786  eV     1   --> B_2  D_4  S_4  
     e( 16 - 16) =     12.70932  eV     1   --> A_1  D_1  S_1  

 **************************************************************************

 **************************************************************************

                    xk=(   0.00000,   0.44905,   0.00000  )

     Band symmetry, C_2v (mm2)  point group:

     e(  1 -  1) =    -19.21381  eV     1   --> A_1  D_1  S_1  
     e(  2 -  2) =    -12.06579  eV     1   --> A_1  D_1  S_1  
     e(  3 -  3) =     -8.19479  eV     1   --> B_1  D_3  S_3  
     e(  4 -  4) =     -6.05697  eV     1   --> B_2  D_4  S_4  
     e(  5 -  5) =      1.82106  eV     1   --> B_2  D_4  S_4  
     e(  6 -  6) =      4.72410  eV     1   --> A_1  D_1  S_1  
     e(  7 -  7) =      6.17554  eV     1   --> B_2  D_4  S_4  
     e(  8 -  8) =      6.46592  eV     1   --> A_1  D_1  S_1  
     e(  9 -  9) =      6.77966  eV     1   --> A_1  D_1  S_1  
     e( 10 - 10) =      7.49476  eV     1   --> B_2  D_4  S_4  
     e( 11 - 11) =      8.07531  eV     1   --> A_1  D_1  S_1  
     e( 12 - 12) =      9.56752  eV     1   --> B_2  D_4  S_4  
     e( 13 - 13) =     10.16973  eV     1   --> A_1  D_1  S_1  
     e( 14 - 14) =     11.61141  eV     1   --> A_1  D_1  S_1  
     e( 15 - 15) =     12.01418  eV     1   --> B_2  D_4  S_4  
     e( 16 - 16) =     13.02946  eV     1   --> B_2  D_4  S_4  

 **************************************************************************

 **************************************************************************

                    xk=(   0.00000,   0.41698,   0.00000  )

     Band symmetry, C_2v (mm2)  point group:

     e(  1 -  1) =    -19.47852  eV     1   --> A_1  D_1  S_1  
     e(  2 -  2) =    -11.58835  eV     1   --> A_1  D_1  S_1  
     e(  3 -  3) =     -8.05606  eV     1   --> B_1  D_3  S_3  
     e(  4 -  4) =     -6.44084  eV     1   --> B_2  D_4  S_4  
     e(  5 -  5) =      2.32959  eV     1   --> B_2  D_4  S_4  
     e(  6 -  6) =      4.17761  eV     1   --> A_1  D_1  S_1  
     e(  7 -  7) =      5.58174  eV     1   --> B_2  D_4  S_4  
     e(  8 -  8) =      5.94263  eV     1   --> A_1  D_1  S_1  
     e(  9 -  9) =      6.51760  eV     1   --> A_1  D_1  S_1  
     e( 10 - 10) =      6.85735  eV     1   --> B_2  D_4  S_4  
     e( 11 - 11) =      7.48668  eV     1   --> A_1  D_1  S_1  
     e( 12 - 12) =      8.95975  eV     1   --> B_2  D_4  S_4  
     e( 13 - 13) =      9.56107  eV     1   --> A_1  D_1  S_1  
     e( 14 - 14) =     11.69080  eV     1   --> B_2  D_4  S_4  
     e( 15 - 15) =     11.95766  eV     1   --> A_1  D_1  S_1  
     e( 16 - 16) =     12.96782  eV     1   --> A_1  D_1  S_1  

 **************************************************************************

 **************************************************************************

                    xk=(   0.00000,   0.38490,   0.00000  )

     Band symmetry, C_2v (mm2)  point group:

     e(  1 -  1) =    -19.75344  eV     1   --> A_1  D_1  S_1  
     e(  2 -  2) =    -11.05913  eV     1   --> A_1  D_1  S_1  
     e(  3 -  3) =     -7.89019  eV     1   --> B_1  D_3  S_3  
     e(  4 -  4) =     -6.83334  eV     1   --> B_2  D_4  S_4  
     e(  5 -  5) =      2.81257  eV     1   --> B_2  D_4  S_4  
     e(  6 -  6) =      3.63449  eV     1   --> A_1  D_1  S_1  
     e(  7 -  7) =      5.07450  eV     1   --> B_2  D_4  S_4  
     e(  8 -  8) =      5.34459  eV     1   --> A_1  D_1  S_1  
     e(  9 -  9) =      6.27942  eV     1   --> B_2  D_4  S_4  
     e( 10 - 10) =      6.30979  eV     1   --> A_1  D_1  S_1  
     e( 11 - 11) =      7.05434  eV     1   --> A_1  D_1  S_1  
     e( 12 - 12) =      8.39361  eV     1   --> B_2  D_4  S_4  
     e( 13 - 13) =      8.98472  eV     1   --> A_1  D_1  S_1  
     e( 14 - 14) =     11.21748  eV     1   --> B_2  D_4  S_4  
     e( 15 - 15) =     11.64953  eV     1   --> A_1  D_1  S_1  
     e( 16 - 16) =     13.18038  eV     1   --> A_1  D_1  S_1  

 **************************************************************************

 **************************************************************************

                    xk=(   0.00000,   0.35283,   0.00000  )

     Band symmetry, C_2v (mm2)  point group:

     e(  1 -  1) =    -20.02745  eV     1   --> A_1  D_1  S_1  
     e(  2 -  2) =    -10.49361  eV     1   --> A_1  D_1  S_1  
     e(  3 -  3) =     -7.69990  eV     1   --> B_1  D_3  S_3  
     e(  4 -  4) =     -7.21959  eV     1   --> B_2  D_4  S_4  
     e(  5 -  5) =      3.11633  eV     1   --> A_1  D_1  S_1  
     e(  6 -  6) =      3.15813  eV     1   --> B_2  D_4  S_4  
     e(  7 -  7) =      4.71769  eV     1   --> B_2  D_4  S_4  
     e(  8 -  8) =      4.78174  eV     1   --> A_1  D_1  S_1  
     e(  9 -  9) =      5.78363  eV     1   --> B_2  D_4  S_4  
     e( 10 - 10) =      5.94854  eV     1   --> A_1  D_1  S_1  
     e( 11 - 11) =      6.85181  eV     1   --> A_1  D_1  S_1  
     e( 12 - 12) =      7.88059  eV     1   --> B_2  D_4  S_4  
     e( 13 - 13) =      8.45884  eV     1   --> A_1  D_1  S_1  
     e( 14 - 14) =     10.74545  eV     1   --> B_2  D_4  S_4  
     e( 15 - 15) =     11.16477  eV     1   --> A_1  D_1  S_1  
     e( 16 - 16) =     13.21031  eV     1   --> A_1  D_1  S_1  

 **************************************************************************

 **************************************************************************

                    xk=(   0.00000,   0.32075,   0.00000  )

     Band symmetry, C_2v (mm2)  point group:

     e(  1 -  1) =    -20.29236  eV     1   --> A_1  D_1  S_1  
     e(  2 -  2) =     -9.90389  eV     1   --> A_1  D_1  S_1  
     e(  3 -  3) =     -7.58946  eV     1   --> B_2  D_4  S_4  
     e(  4 -  4) =     -7.48828  eV     1   --> B_1  D_3  S_3  
     e(  5 -  5) =      2.63301  eV     1   --> A_1  D_1  S_1  
     e(  6 -  6) =      3.20112  eV     1   --> B_2  D_4  S_4  
     e(  7 -  7) =      4.26463  eV     1   --> A_1  D_1  S_1  
     e(  8 -  8) =      4.56533  eV     1   --> B_2  D_4  S_4  
     e(  9 -  9) =      5.45085  eV     1   --> B_2  D_4  S_4  
     e( 10 - 10) =      5.50898  eV     1   --> A_1  D_1  S_1  
     e( 11 - 11) =      6.77464  eV     1   --> A_1  D_1  S_1  
     e( 12 - 12) =      7.43491  eV     1   --> B_2  D_4  S_4  
     e( 13 - 13) =      7.99754  eV     1   --> A_1  D_1  S_1  
     e( 14 - 14) =     10.30658  eV     1   --> B_2  D_4  S_4  
     e( 15 - 15) =     10.67596  eV     1   --> A_1  D_1  S_1  
     e( 16 - 16) =     12.78001  eV     1   --> B_1  D_3  S_3  

 **************************************************************************

 **************************************************************************

                    xk=(   0.00000,   0.28868,   0.00000  )

     Band symmetry, C_2v (mm2)  point group:

     e(  1 -  1) =    -20.54237  eV     1   --> A_1  D_1  S_1  
     e(  2 -  2) =     -9.30249  eV     1   --> A_1  D_1  S_1  
     e(  3 -  3) =     -7.93613  eV     1   --> B_2  D_4  S_4  
     e(  4 -  4) =     -7.25956  eV     1   --> B_1  D_3  S_3  
     e(  5 -  5) =      2.18926  eV     1   --> A_1  D_1  S_1  
     e(  6 -  6) =      2.97612  eV     1   --> B_2  D_4  S_4  
     e(  7 -  7) =      3.79550  eV     1   --> A_1  D_1  S_1  
     e(  8 -  8) =      4.38470  eV     1   --> B_2  D_4  S_4  
     e(  9 -  9) =      5.07500  eV     1   --> A_1  D_1  S_1  
     e( 10 - 10) =      5.43078  eV     1   --> B_2  D_4  S_4  
     e( 11 - 11) =      6.70635  eV     1   --> A_1  D_1  S_1  
     e( 12 - 12) =      7.08646  eV     1   --> B_2  D_4  S_4  
     e( 13 - 13) =      7.62724  eV     1   --> A_1  D_1  S_1  
     e( 14 - 14) =      9.91502  eV     1   --> B_2  D_4  S_4  
     e( 15 - 15) =     10.21250  eV     1   --> A_1  D_1  S_1  
     e( 16 - 16) =     11.95040  eV     1   --> B_1  D_3  S_3  

 **************************************************************************

 **************************************************************************

                    xk=(   0.00000,   0.25660,   0.00000  )

     Band symmetry, C_2v (mm2)  point group:

     e(  1 -  1) =    -20.77336  eV     1   --> A_1  D_1  S_1  
     e(  2 -  2) =     -8.70156  eV     1   --> A_1  D_1  S_1  
     e(  3 -  3) =     -8.25469  eV     1   --> B_2  D_4  S_4  
     e(  4 -  4) =     -7.01839  eV     1   --> B_1  D_3  S_3  
     e(  5 -  5) =      1.78760  eV     1   --> A_1  D_1  S_1  
     e(  6 -  6) =      2.66383  eV     1   --> B_2  D_4  S_4  
     e(  7 -  7) =      3.37509  eV     1   --> A_1  D_1  S_1  
     e(  8 -  8) =      4.07774  eV     1   --> B_2  D_4  S_4  
     e(  9 -  9) =      4.67358  eV     1   --> A_1  D_1  S_1  
     e( 10 - 10) =      5.55477  eV     1   --> B_2  D_4  S_4  
     e( 11 - 11) =      6.57221  eV     1   --> A_1  D_1  S_1  
     e( 12 - 12) =      6.90157  eV     1   --> B_2  D_4  S_4  
     e( 13 - 13) =      7.39260  eV     1   --> A_1  D_1  S_1  
     e( 14 - 14) =      9.58219  eV     1   --> B_2  D_4  S_4  
     e( 15 - 15) =      9.78275  eV     1   --> A_1  D_1  S_1  
     e( 16 - 16) =     11.14987  eV     1   --> B_1  D_3  S_3  

 **************************************************************************

 **************************************************************************

                    xk=(   0.00000,   0.22453,   0.00000  )

     Band symmetry, C_2v (mm2)  point group:

     e(  1 -  1) =    -20.98214  eV     1   --> A_1  D_1  S_1  
     e(  2 -  2) =     -8.54175  eV     1   --> B_2  D_4  S_4  
     e(  3 -  3) =     -8.11277  eV     1   --> A_1  D_1  S_1  
     e(  4 -  4) =     -6.77177  eV     1   --> B_1  D_3  S_3  
     e(  5 -  5) =      1.42957  eV     1   --> A_1  D_1  S_1  
     e(  6 -  6) =      2.34992  eV     1   --> B_2  D_4  S_4  
     e(  7 -  7) =      3.00372  eV     1   --> A_1  D_1  S_1  
     e(  8 -  8) =      3.75447  eV     1   --> B_2  D_4  S_4  
     e(  9 -  9) =      4.31338  eV     1   --> A_1  D_1  S_1  
     e( 10 - 10) =      5.54417  eV     1   --> B_2  D_4  S_4  
     e( 11 - 11) =      6.35265  eV     1   --> A_1  D_1  S_1  
     e( 12 - 12) =      6.93889  eV     1   --> B_2  D_4  S_4  
     e( 13 - 13) =      7.30197  eV     1   --> A_1  D_1  S_1  
     e( 14 - 14) =      9.32127  eV     1   --> B_2  D_4  S_4  
     e( 15 - 15) =      9.39059  eV     1   --> A_1  D_1  S_1  
     e( 16 - 16) =     10.39286  eV     1   --> B_1  D_3  S_3  

 **************************************************************************

 **************************************************************************

                    xk=(   0.00000,   0.19245,   0.00000  )

     Band symmetry, C_2v (mm2)  point group:

     e(  1 -  1) =    -21.16651  eV     1   --> A_1  D_1  S_1  
     e(  2 -  2) =     -8.79426  eV     1   --> B_2  D_4  S_4  
     e(  3 -  3) =     -7.55015  eV     1   --> A_1  D_1  S_1  
     e(  4 -  4) =     -6.52660  eV     1   --> B_1  D_3  S_3  
     e(  5 -  5) =      1.11607  eV     1   --> A_1  D_1  S_1  
     e(  6 -  6) =      2.06298  eV     1   --> B_2  D_4  S_4  
     e(  7 -  7) =      2.68156  eV     1   --> A_1  D_1  S_1  
     e(  8 -  8) =      3.45800  eV     1   --> B_2  D_4  S_4  
     e(  9 -  9) =      3.99781  eV     1   --> A_1  D_1  S_1  
     e( 10 - 10) =      5.39669  eV     1   --> B_2  D_4  S_4  
     e( 11 - 11) =      6.09965  eV     1   --> A_1  D_1  S_1  
     e( 12 - 12) =      7.10295  eV     1   --> B_2  D_4  S_4  
     e( 13 - 13) =      7.29752  eV     1   --> A_1  D_1  S_1  
     e( 14 - 14) =      9.03824  eV     1   --> A_1  D_1  S_1  
     e( 15 - 15) =      9.14860  eV     1   --> B_2  D_4  S_4  
     e( 16 - 16) =      9.69435  eV     1   --> B_1  D_3  S_3  

 **************************************************************************

 **************************************************************************

                    xk=(   0.00000,   0.16038,   0.00000  )

     Band symmetry, C_2v (mm2)  point group:

     e(  1 -  1) =    -21.32487  eV     1   --> A_1  D_1  S_1  
     e(  2 -  2) =     -9.01068  eV     1   --> B_2  D_4  S_4  
     e(  3 -  3) =     -7.02918  eV     1   --> A_1  D_1  S_1  
     e(  4 -  4) =     -6.29228  eV     1   --> B_1  D_3  S_3  
     e(  5 -  5) =      0.84786  eV     1   --> A_1  D_1  S_1  
     e(  6 -  6) =      1.81351  eV     1   --> B_2  D_4  S_4  
     e(  7 -  7) =      2.40871  eV     1   --> A_1  D_1  S_1  
     e(  8 -  8) =      3.20096  eV     1   --> B_2  D_4  S_4  
     e(  9 -  9) =      3.72854  eV     1   --> A_1  D_1  S_1  
     e( 10 - 10) =      5.20927  eV     1   --> B_2  D_4  S_4  
     e( 11 - 11) =      5.85812  eV     1   --> A_1  D_1  S_1  
     e( 12 - 12) =      7.25032  eV     1   --> B_2  D_4  S_4  
     e( 13 - 13) =      7.32997  eV     1   --> A_1  D_1  S_1  
     e( 14 - 14) =      8.72816  eV     1   --> A_1  D_1  S_1  
     e( 15 - 15) =      9.06856  eV     1   --> B_1  D_3  S_3  
     e( 16 - 16) =      9.07590  eV     1   --> B_2  D_4  S_4  

 **************************************************************************

 **************************************************************************

                    xk=(   0.00000,   0.12830,   0.00000  )

     Band symmetry, C_2v (mm2)  point group:

     e(  1 -  1) =    -21.45581  eV     1   --> A_1  D_1  S_1  
     e(  2 -  2) =     -9.18914  eV     1   --> B_2  D_4  S_4  
     e(  3 -  3) =     -6.56527  eV     1   --> A_1  D_1  S_1  
     e(  4 -  4) =     -6.07811  eV     1   --> B_1  D_3  S_3  
     e(  5 -  5) =      0.62573  eV     1   --> A_1  D_1  S_1  
     e(  6 -  6) =      1.60634  eV     1   --> B_2  D_4  S_4  
     e(  7 -  7) =      2.18526  eV     1   --> A_1  D_1  S_1  
     e(  8 -  8) =      2.98806  eV     1   --> B_2  D_4  S_4  
     e(  9 -  9) =      3.50661  eV     1   --> A_1  D_1  S_1  
     e( 10 - 10) =      5.03294  eV     1   --> B_2  D_4  S_4  
     e( 11 - 11) =      5.64809  eV     1   --> A_1  D_1  S_1  
     e( 12 - 12) =      7.32487  eV     1   --> B_2  D_4  S_4  
     e( 13 - 13) =      7.37635  eV     1   --> A_1  D_1  S_1  
     e( 14 - 14) =      8.46362  eV     1   --> A_1  D_1  S_1  
     e( 15 - 15) =      8.53026  eV     1   --> B_1  D_3  S_3  
     e( 16 - 16) =      9.09272  eV     1   --> B_2  D_4  S_4  

 **************************************************************************

 **************************************************************************

                    xk=(   0.00000,   0.09623,   0.00000  )

     Band symmetry, C_2v (mm2)  point group:

     e(  1 -  1) =    -21.55854  eV     1   --> A_1  D_1  S_1  
     e(  2 -  2) =     -9.32926  eV     1   --> B_2  D_4  S_4  
     e(  3 -  3) =     -6.17808  eV     1   --> A_1  D_1  S_1  
     e(  4 -  4) =     -5.89587  eV     1   --> B_1  D_3  S_3  
     e(  5 -  5) =      0.45066  eV     1   --> A_1  D_1  S_1  
     e(  6 -  6) =      1.44365  eV     1   --> B_2  D_4  S_4  
     e(  7 -  7) =      2.01131  eV     1   --> A_1  D_1  S_1  
     e(  8 -  8) =      2.82128  eV     1   --> B_2  D_4  S_4  
     e(  9 -  9) =      3.33282  eV     1   --> A_1  D_1  S_1  
     e( 10 - 10) =      4.88695  eV     1   --> B_2  D_4  S_4  
     e( 11 - 11) =      5.47841  eV     1   --> A_1  D_1  S_1  
     e( 12 - 12) =      7.33710  eV     1   --> B_2  D_4  S_4  
     e( 13 - 13) =      7.42337  eV     1   --> A_1  D_1  S_1  
     e( 14 - 14) =      8.09223  eV     1   --> B_1  D_3  S_3  
     e( 15 - 15) =      8.24893  eV     1   --> A_1  D_1  S_1  
     e( 16 - 16) =      9.15993  eV     1   --> B_2  D_4  S_4  

 **************************************************************************

 **************************************************************************

                    xk=(   0.00000,   0.06415,   0.00000  )

     Band symmetry, C_2v (mm2)  point group:

     e(  1 -  1) =    -21.63229  eV     1   --> A_1  D_1  S_1  
     e(  2 -  2) =     -9.42958  eV     1   --> B_2  D_4  S_4  
     e(  3 -  3) =     -5.88374  eV     1   --> A_1  D_1  S_1  
     e(  4 -  4) =     -5.75623  eV     1   --> B_1  D_3  S_3  
     e(  5 -  5) =      0.32397  eV     1   --> A_1  D_1  S_1  
     e(  6 -  6) =      1.32685  eV     1   --> B_2  D_4  S_4  
     e(  7 -  7) =      1.88695  eV     1   --> A_1  D_1  S_1  
     e(  8 -  8) =      2.70169  eV     1   --> B_2  D_4  S_4  
     e(  9 -  9) =      3.20795  eV     1   --> A_1  D_1  S_1  
     e( 10 - 10) =      4.77947  eV     1   --> B_2  D_4  S_4  
     e( 11 - 11) =      5.35401  eV     1   --> A_1  D_1  S_1  
     e( 12 - 12) =      7.32074  eV     1   --> B_2  D_4  S_4  
     e( 13 - 13) =      7.46418  eV     1   --> A_1  D_1  S_1  
     e( 14 - 14) =      7.76866  eV     1   --> B_1  D_3  S_3  
     e( 15 - 15) =      8.08937  eV     1   --> A_1  D_1  S_1  
     e( 16 - 16) =      9.23442  eV     1   --> B_2  D_4  S_4  

 **************************************************************************

 **************************************************************************

                    xk=(   0.00000,   0.03208,   0.00000  )

     Band symmetry, C_2v (mm2)  point group:

     e(  1 -  1) =    -21.67676  eV     1   --> A_1  D_1  S_1  
     e(  2 -  2) =     -9.49005  eV     1   --> B_2  D_4  S_4  
     e(  3 -  3) =     -5.70016  eV     1   --> A_1  D_1  S_1  
     e(  4 -  4) =     -5.66840  eV     1   --> B_1  D_3  S_3  
     e(  5 -  5) =      0.24709  eV     1   --> A_1  D_1  S_1  
     e(  6 -  6) =      1.25651  eV     1   --> B_2  D_4  S_4  
     e(  7 -  7) =      1.81227  eV     1   --> A_1  D_1  S_1  
     e(  8 -  8) =      2.62975  eV     1   --> B_2  D_4  S_4  
     e(  9 -  9) =      3.13266  eV     1   --> A_1  D_1  S_1  
     e( 10 - 10) =      4.71388  eV     1   --> B_2  D_4  S_4  
     e( 11 - 11) =      5.27803  eV     1   --> A_1  D_1  S_1  
     e( 12 - 12) =      7.30130  eV     1   --> B_2  D_4  S_4  
     e( 13 - 13) =      7.49232  eV     1   --> A_1  D_1  S_1  
     e( 14 - 14) =      7.56920  eV     1   --> B_1  D_3  S_3  
     e( 15 - 15) =      7.99024  eV     1   --> A_1  D_1  S_1  
     e( 16 - 16) =      9.28685  eV     1   --> B_2  D_4  S_4  

 **************************************************************************

 **************************************************************************

                    xk=(   0.00000,   0.00000,   0.00000  )

     point group D_3h (-62m)
     there are  6 classes
     the character table:

       E     2C3   3C2   s_h   2S3   3s_v 
A'_1   1.00  1.00  1.00  1.00  1.00  1.00
A'_2   1.00  1.00 -1.00  1.00  1.00 -1.00
E'     2.00 -1.00  0.00  2.00 -1.00  0.00
A''1   1.00  1.00  1.00 -1.00 -1.00 -1.00
A''2   1.00  1.00 -1.00 -1.00 -1.00  1.00
E''    2.00 -1.00  0.00 -2.00  1.00  0.00

     the symmetry operations in each class and the name of the first element:

     E        1
                                                                 
     2C3      3    4
                                                                 
     3C2      2    6    5
                                                                 
     s_h      7
                                                                 
     2S3      9   10
                                                                 
     3s_v     8   11   12
                                                                 

     Band symmetry, D_3h (-62m) point group:

     e(  1 -  1) =    -21.69167  eV     1   --> A'_1           
     e(  2 -  2) =     -9.51036  eV     1   --> A''2           
     e(  3 -  4) =     -5.63841  eV     2   --> E'             
     e(  5 -  5) =      0.22129  eV     1   --> A'_1           
     e(  6 -  6) =      1.23300  eV     1   --> A''2           
     e(  7 -  7) =      1.78737  eV     1   --> A'_1           
     e(  8 -  8) =      2.60573  eV     1   --> A''2           
     e(  9 -  9) =      3.10750  eV     1   --> A'_1           
     e( 10 - 10) =      4.69183  eV     1   --> A''2           
     e( 11 - 11) =      5.25245  eV     1   --> A'_1           
     e( 12 - 12) =      7.29329  eV     1   --> A''2           
     e( 13 - 14) =      7.50171  eV     2   --> E'             
     e( 15 - 15) =      7.95643  eV     1   --> A'_1           
     e( 16 - 16) =      9.30523  eV     1   --> A''2           

 **************************************************************************

     BANDS        :     11.16s CPU     11.49s WALL


   This run was terminated on:  14:13:39  16Apr2024            

=------------------------------------------------------------------------------=
   JOB DONE.
=------------------------------------------------------------------------------=
