
     Program BANDS v.7.2 starts on  6Apr2024 at 10: 7: 4 

     This program is part of the open-source Quantum ESPRESSO suite
     for quantum simulation of materials; please cite
         "P. Giannozzi et al., J. Phys.:Condens. Matter 21 395502 (2009);
         "P. Giannozzi et al., J. Phys.:Condens. Matter 29 465901 (2017);
         "P. Giannozzi et al., J. Chem. Phys. 152 154105 (2020);
          URL http://www.quantum-espresso.org", 
     in publications or presentations arising from this work. More details at
     http://www.quantum-espresso.org/quote

     Parallel version (MPI & OpenMP), running on       1 processor cores
     Number of MPI processes:                 1
     Threads/MPI process:                     1

     MPI processes distributed on     1 nodes
     0 MiB available memory on the printing compute node when the environment starts


     Reading xml data from directory:

     ./tmp/hBN_1l_LDA.save/

     IMPORTANT: XC functional enforced from input :
     Exchange-correlation= VDW-DF2-B86R
                           (   1   4  26   0   2   0   0)
     Any further DFT definition will be discarded
     Please, verify this is what you really want


     G-vector sticks info
     --------------------
     sticks:   dense  smooth     PW     G-vecs:    dense   smooth      PW
     Sum         367     367    121                45625    45625    7963

     Using Slab Decomposition



     %%%%%%%%%%%%%%%%%%%%%%%%%%%%%%%%%%%%%%%%%%%%%%%%%%%%%%%%%%%%%%%%%%%%%%%%
     %                                                                      %
     % You are using vdW-DF, which was implemented by the Thonhauser group. %
     % Please cite the following two papers that made this development      %
     % possible and the two reviews that describe the various versions:     %
     %                                                                      %
     %   T. Thonhauser et al., PRL 115, 136402 (2015).                      %
     %   T. Thonhauser et al., PRB 76, 125112 (2007).                       %
     %   K. Berland et al., Rep. Prog. Phys. 78, 066501 (2015).             %
     %   D.C. Langreth et al., J. Phys.: Condens. Matter 21, 084203 (2009). %
     %                                                                      %
     % If you are calculating stress with vdW-DF, please also cite:         %
     %                                                                      %
     %   R. Sabatini et al., J. Phys.: Condens. Matter 24, 424209 (2012).   %
     %                                                                      %
     %%%%%%%%%%%%%%%%%%%%%%%%%%%%%%%%%%%%%%%%%%%%%%%%%%%%%%%%%%%%%%%%%%%%%%%%

     %%%%%%%%%%%%%%%%%%%%%%%%%%%%%%%%%%%%%%%%%%%%%%%%%%%%%%%%%%%%%%%%%%%%%%%%
     %                                                                      %
     %  vdW-DF NEWS:                                                        %
     %                                                                      %
     %  * vdW-DF3 is now available. DOI: 10.1021/acs.jctc.0c00471           %
     %    use with input_dft = 'vdW-DF3-opt1' or 'vdW-DF3-opt2'             %
     %                                                                      %
     %  * Unscreened and range-separated hybrid vdW-DF-cx functionals       %
     %    DOI: 10.1063/1.4986522 and 10.1088/1361-648X/ac2ad2               %
     %    use with input_dft = 'vdW-DF-cx0'    and 'vdW-DF-ahcx'            %
     %  * Unscreened and range-separated hybrid vdW-DF2-b86r functionals    %
     %    DOI: 10.1063/1.4986522 and DOI: 10.1103/PhysRevX.12.041003        %
     %    use with input_dft = 'vdW-DF2-br0' and 'vdW-DF2-ahbr'             %
     %                                                                      %
     %%%%%%%%%%%%%%%%%%%%%%%%%%%%%%%%%%%%%%%%%%%%%%%%%%%%%%%%%%%%%%%%%%%%%%%%


     Reading collected, re-writing distributed wavefunctions
     high-symmetry point:  0.0000 0.0000 0.0000   x coordinate   0.0000
     high-symmetry point: -0.3333 0.5774 0.0000   x coordinate   0.6667
     high-symmetry point:  0.0000 0.5774 0.0000   x coordinate   1.0000
     high-symmetry point:  0.0000 0.0000 0.0000   x coordinate   1.5773

     Plottable bands (eV) written to file Bande_hBN_1l_LDA.dat.gnu
     Bands written to file Bande_hBN_1l_LDA.dat

 **************************************************************************

                    xk=(   0.00000,   0.00000,   0.00000  )

     point group D_3h (-62m)
     there are  6 classes
     the character table:

       E     2C3   3C2   s_h   2S3   3s_v 
A'_1   1.00  1.00  1.00  1.00  1.00  1.00
A'_2   1.00  1.00 -1.00  1.00  1.00 -1.00
E'     2.00 -1.00  0.00  2.00 -1.00  0.00
A''1   1.00  1.00  1.00 -1.00 -1.00 -1.00
A''2   1.00  1.00 -1.00 -1.00 -1.00  1.00
E''    2.00 -1.00  0.00 -2.00  1.00  0.00

     the symmetry operations in each class and the name of the first element:

     E        1
                                                                 
     2C3      3    4
                                                                 
     3C2      2    6    5
                                                                 
     s_h      7
                                                                 
     2S3      9   10
                                                                 
     3s_v     8   11   12
                                                                 

     Band symmetry, D_3h (-62m) point group:

     e(  1 -  1) =    -21.69205  eV     1   --> A'_1           
     e(  2 -  2) =     -9.51063  eV     1   --> A''2           
     e(  3 -  4) =     -5.63889  eV     2   --> E'             
     e(  5 -  5) =      0.22126  eV     1   --> A'_1           
     e(  6 -  6) =      1.23298  eV     1   --> A''2           
     e(  7 -  7) =      1.78738  eV     1   --> A'_1           
     e(  8 -  8) =      2.60572  eV     1   --> A''2           
     e(  9 -  9) =      3.10749  eV     1   --> A'_1           
     e( 10 - 10) =      4.69179  eV     1   --> A''2           
     e( 11 - 11) =      5.25243  eV     1   --> A'_1           
     e( 12 - 12) =      7.29315  eV     1   --> A''2           
     e( 13 - 14) =      7.50166  eV     2   --> E'             
     e( 15 - 15) =      7.95635  eV     1   --> A'_1           
     e( 16 - 16) =      9.30510  eV     1   --> A''2           

 **************************************************************************

 **************************************************************************

                    xk=(  -0.01587,   0.02749,   0.00000  )

     point group C_s (m)    
     there are  2 classes
     the character table:

       E     s    
A'     1.00  1.00
A''    1.00 -1.00

     the symmetry operations in each class and the name of the first element:

     E        1
                                                                 
     s        2
                                                                 

     Band symmetry, C_s (m)     point group:

     e(  1 -  1) =    -21.67745  eV     1   --> A'             
     e(  2 -  2) =     -9.49074  eV     1   --> A''            
     e(  3 -  3) =     -5.69951  eV     1   --> A'             
     e(  4 -  4) =     -5.66848  eV     1   --> A'             
     e(  5 -  5) =      0.24654  eV     1   --> A'             
     e(  6 -  6) =      1.25601  eV     1   --> A''            
     e(  7 -  7) =      1.81177  eV     1   --> A'             
     e(  8 -  8) =      2.62924  eV     1   --> A''            
     e(  9 -  9) =      3.13215  eV     1   --> A'             
     e( 10 - 10) =      4.71338  eV     1   --> A''            
     e( 11 - 11) =      5.27748  eV     1   --> A'             
     e( 12 - 12) =      7.30099  eV     1   --> A''            
     e( 13 - 13) =      7.49309  eV     1   --> A'             
     e( 14 - 14) =      7.56699  eV     1   --> A'             
     e( 15 - 15) =      7.98955  eV     1   --> A'             
     e( 16 - 16) =      9.28708  eV     1   --> A''            

 **************************************************************************

 **************************************************************************

                    xk=(  -0.03174,   0.05499,   0.00000  )

     Band symmetry, C_s (m)     point group:

     e(  1 -  1) =    -21.63389  eV     1   --> A'             
     e(  2 -  2) =     -9.43156  eV     1   --> A''            
     e(  3 -  3) =     -5.87748  eV     1   --> A'             
     e(  4 -  4) =     -5.75614  eV     1   --> A'             
     e(  5 -  5) =      0.32186  eV     1   --> A'             
     e(  6 -  6) =      1.32490  eV     1   --> A''            
     e(  7 -  7) =      1.88492  eV     1   --> A'             
     e(  8 -  8) =      2.69971  eV     1   --> A''            
     e(  9 -  9) =      3.20590  eV     1   --> A'             
     e( 10 - 10) =      4.77764  eV     1   --> A''            
     e( 11 - 11) =      5.35200  eV     1   --> A'             
     e( 12 - 12) =      7.32013  eV     1   --> A''            
     e( 13 - 13) =      7.47342  eV     1   --> A'             
     e( 14 - 14) =      7.74914  eV     1   --> A'             
     e( 15 - 15) =      8.09124  eV     1   --> A'             
     e( 16 - 16) =      9.23570  eV     1   --> A''            

 **************************************************************************

 **************************************************************************

                    xk=(  -0.04761,   0.08248,   0.00000  )

     Band symmetry, C_s (m)     point group:

     e(  1 -  1) =    -21.56163  eV     1   --> A'             
     e(  2 -  2) =     -9.33317  eV     1   --> A''            
     e(  3 -  3) =     -6.15951  eV     1   --> A'             
     e(  4 -  4) =     -5.90064  eV     1   --> A'             
     e(  5 -  5) =      0.44610  eV     1   --> A'             
     e(  6 -  6) =      1.43935  eV     1   --> A''            
     e(  7 -  7) =      2.00676  eV     1   --> A'             
     e(  8 -  8) =      2.81688  eV     1   --> A''            
     e(  9 -  9) =      3.32832  eV     1   --> A'             
     e( 10 - 10) =      4.88301  eV     1   --> A''            
     e( 11 - 11) =      5.47459  eV     1   --> A'             
     e( 12 - 12) =      7.33681  eV     1   --> A''            
     e( 13 - 13) =      7.46025  eV     1   --> A'             
     e( 14 - 14) =      7.99386  eV     1   --> A'             
     e( 15 - 15) =      8.29136  eV     1   --> A'             
     e( 16 - 16) =      9.16240  eV     1   --> A''            

 **************************************************************************

 **************************************************************************

                    xk=(  -0.06349,   0.10998,   0.00000  )

     Band symmetry, C_s (m)     point group:

     e(  1 -  1) =    -21.46101  eV     1   --> A'             
     e(  2 -  2) =     -9.19615  eV     1   --> A''            
     e(  3 -  3) =     -6.52556  eV     1   --> A'             
     e(  4 -  4) =     -6.09683  eV     1   --> A'             
     e(  5 -  5) =      0.61803  eV     1   --> A'             
     e(  6 -  6) =      1.59872  eV     1   --> A''            
     e(  7 -  7) =      2.17720  eV     1   --> A'             
     e(  8 -  8) =      2.98028  eV     1   --> A''            
     e(  9 -  9) =      3.49892  eV     1   --> A'             
     e( 10 - 10) =      5.02624  eV     1   --> A''            
     e( 11 - 11) =      5.64385  eV     1   --> A'             
     e( 12 - 12) =      7.32671  eV     1   --> A''            
     e( 13 - 13) =      7.46600  eV     1   --> A'             
     e( 14 - 14) =      8.21896  eV     1   --> A'             
     e( 15 - 15) =      8.64039  eV     1   --> A'             
     e( 16 - 16) =      9.09542  eV     1   --> A''            

 **************************************************************************

 **************************************************************************

                    xk=(  -0.07936,   0.13747,   0.00000  )

     Band symmetry, C_s (m)     point group:

     e(  1 -  1) =    -21.33266  eV     1   --> A'             
     e(  2 -  2) =     -9.02122  eV     1   --> A''            
     e(  3 -  3) =     -6.95479  eV     1   --> A'             
     e(  4 -  4) =     -6.33945  eV     1   --> A'             
     e(  5 -  5) =      0.83666  eV     1   --> A'             
     e(  6 -  6) =      1.80183  eV     1   --> A''            
     e(  7 -  7) =      2.39619  eV     1   --> A'             
     e(  8 -  8) =      3.18896  eV     1   --> A''            
     e(  9 -  9) =      3.71727  eV     1   --> A'             
     e( 10 - 10) =      5.19996  eV     1   --> A''            
     e( 11 - 11) =      5.85872  eV     1   --> A'             
     e( 12 - 12) =      7.25826  eV     1   --> A''            
     e( 13 - 13) =      7.50213  eV     1   --> A'             
     e( 14 - 14) =      8.43345  eV     1   --> A'             
     e( 15 - 15) =      9.07636  eV     1   --> A''            
     e( 16 - 16) =      9.09370  eV     1   --> A'             

 **************************************************************************

 **************************************************************************

                    xk=(  -0.09523,   0.16496,   0.00000  )

     Band symmetry, C_s (m)     point group:

     e(  1 -  1) =    -21.17735  eV     1   --> A'             
     e(  2 -  2) =     -8.80894  eV     1   --> A''            
     e(  3 -  3) =     -7.42871  eV     1   --> A'             
     e(  4 -  4) =     -6.62177  eV     1   --> A'             
     e(  5 -  5) =      1.10142  eV     1   --> A'             
     e(  6 -  6) =      2.04670  eV     1   --> A''            
     e(  7 -  7) =      2.66367  eV     1   --> A'             
     e(  8 -  8) =      3.44118  eV     1   --> A''            
     e(  9 -  9) =      3.98311  eV     1   --> A'             
     e( 10 - 10) =      5.38715  eV     1   --> A''            
     e( 11 - 11) =      6.11854  eV     1   --> A'             
     e( 12 - 12) =      7.12109  eV     1   --> A''            
     e( 13 - 13) =      7.57476  eV     1   --> A'             
     e( 14 - 14) =      8.66509  eV     1   --> A'             
     e( 15 - 15) =      9.14365  eV     1   --> A''            
     e( 16 - 16) =      9.58436  eV     1   --> A'             

 **************************************************************************

 **************************************************************************

                    xk=(  -0.11110,   0.19246,   0.00000  )

     Band symmetry, C_s (m)     point group:

     e(  1 -  1) =    -20.99628  eV     1   --> A'             
     e(  2 -  2) =     -8.56081  eV     1   --> A''            
     e(  3 -  3) =     -7.93068  eV     1   --> A'             
     e(  4 -  4) =     -6.93677  eV     1   --> A'             
     e(  5 -  5) =      1.41193  eV     1   --> A'             
     e(  6 -  6) =      2.32926  eV     1   --> A''            
     e(  7 -  7) =      2.97962  eV     1   --> A'             
     e(  8 -  8) =      3.73298  eV     1   --> A''            
     e(  9 -  9) =      4.29625  eV     1   --> A'             
     e( 10 - 10) =      5.54443  eV     1   --> A''            
     e( 11 - 11) =      6.42271  eV     1   --> A'             
     e( 12 - 12) =      6.96390  eV     1   --> A''            
     e( 13 - 13) =      7.68841  eV     1   --> A'             
     e( 14 - 14) =      8.92062  eV     1   --> A'             
     e( 15 - 15) =      9.30814  eV     1   --> A''            
     e( 16 - 16) =     10.07072  eV     1   --> A'             

 **************************************************************************

 **************************************************************************

                    xk=(  -0.12697,   0.21995,   0.00000  )

     Band symmetry, C_s (m)     point group:

     e(  1 -  1) =    -20.79084  eV     1   --> A'             
     e(  2 -  2) =     -8.44622  eV     1   --> A'             
     e(  3 -  3) =     -8.27869  eV     1   --> A''            
     e(  4 -  4) =     -7.27774  eV     1   --> A'             
     e(  5 -  5) =      1.76806  eV     1   --> A'             
     e(  6 -  6) =      2.64093  eV     1   --> A''            
     e(  7 -  7) =      3.34403  eV     1   --> A'             
     e(  8 -  8) =      4.05432  eV     1   --> A''            
     e(  9 -  9) =      4.65655  eV     1   --> A'             
     e( 10 - 10) =      5.58623  eV     1   --> A''            
     e( 11 - 11) =      6.77065  eV     1   --> A'             
     e( 12 - 12) =      6.91355  eV     1   --> A''            
     e( 13 - 13) =      7.84500  eV     1   --> A'             
     e( 14 - 14) =      9.19904  eV     1   --> A'             
     e( 15 - 15) =      9.55829  eV     1   --> A''            
     e( 16 - 16) =     10.53410  eV     1   --> A'             

 **************************************************************************

 **************************************************************************

                    xk=(  -0.14284,   0.24744,   0.00000  )

     Band symmetry, C_s (m)     point group:

     e(  1 -  1) =    -20.56289  eV     1   --> A'             
     e(  2 -  2) =     -8.96394  eV     1   --> A'             
     e(  3 -  3) =     -7.96499  eV     1   --> A''            
     e(  4 -  4) =     -7.63719  eV     1   --> A'             
     e(  5 -  5) =      2.16964  eV     1   --> A'             
     e(  6 -  6) =      2.96042  eV     1   --> A''            
     e(  7 -  7) =      3.75688  eV     1   --> A'             
     e(  8 -  8) =      4.37359  eV     1   --> A''            
     e(  9 -  9) =      5.06386  eV     1   --> A'             
     e( 10 - 10) =      5.49003  eV     1   --> A''            
     e( 11 - 11) =      7.07168  eV     1   --> A''            
     e( 12 - 12) =      7.16145  eV     1   --> A'             
     e( 13 - 13) =      8.04355  eV     1   --> A'             
     e( 14 - 14) =      9.49649  eV     1   --> A'             
     e( 15 - 15) =      9.87680  eV     1   --> A''            
     e( 16 - 16) =     10.97761  eV     1   --> A'             

 **************************************************************************

 **************************************************************************

                    xk=(  -0.15871,   0.27494,   0.00000  )

     Band symmetry, C_s (m)     point group:

     e(  1 -  1) =    -20.31496  eV     1   --> A'             
     e(  2 -  2) =     -9.47427  eV     1   --> A'             
     e(  3 -  3) =     -8.00871  eV     1   --> A'             
     e(  4 -  4) =     -7.62192  eV     1   --> A''            
     e(  5 -  5) =      2.61634  eV     1   --> A'             
     e(  6 -  6) =      3.22838  eV     1   --> A''            
     e(  7 -  7) =      4.21815  eV     1   --> A'             
     e(  8 -  8) =      4.59953  eV     1   --> A''            
     e(  9 -  9) =      5.47142  eV     1   --> A''            
     e( 10 - 10) =      5.51785  eV     1   --> A'             
     e( 11 - 11) =      7.39623  eV     1   --> A''            
     e( 12 - 12) =      7.59346  eV     1   --> A'             
     e( 13 - 13) =      8.28066  eV     1   --> A'             
     e( 14 - 14) =      9.80753  eV     1   --> A'             
     e( 15 - 15) =     10.24725  eV     1   --> A''            
     e( 16 - 16) =     11.41686  eV     1   --> A'             

 **************************************************************************

 **************************************************************************

                    xk=(  -0.17459,   0.30243,   0.00000  )

     Band symmetry, C_s (m)     point group:

     e(  1 -  1) =    -20.05021  eV     1   --> A'             
     e(  2 -  2) =     -9.96724  eV     1   --> A'             
     e(  3 -  3) =     -8.38607  eV     1   --> A'             
     e(  4 -  4) =     -7.25366  eV     1   --> A''            
     e(  5 -  5) =      3.10784  eV     1   --> A'             
     e(  6 -  6) =      3.30341  eV     1   --> A''            
     e(  7 -  7) =      4.72780  eV     1   --> A'             
     e(  8 -  8) =      4.74007  eV     1   --> A''            
     e(  9 -  9) =      5.74686  eV     1   --> A''            
     e( 10 - 10) =      6.01816  eV     1   --> A'             
     e( 11 - 11) =      7.81928  eV     1   --> A''            
     e( 12 - 12) =      8.06438  eV     1   --> A'             
     e( 13 - 13) =      8.55179  eV     1   --> A'             
     e( 14 - 14) =     10.12784  eV     1   --> A'             
     e( 15 - 15) =     10.65024  eV     1   --> A''            
     e( 16 - 16) =     11.86940  eV     1   --> A'             

 **************************************************************************

 **************************************************************************

                    xk=(  -0.19046,   0.32993,   0.00000  )

     Band symmetry, C_s (m)     point group:

     e(  1 -  1) =    -19.77260  eV     1   --> A'             
     e(  2 -  2) =    -10.43469  eV     1   --> A'             
     e(  3 -  3) =     -8.76354  eV     1   --> A'             
     e(  4 -  4) =     -6.86456  eV     1   --> A''            
     e(  5 -  5) =      3.09279  eV     1   --> A''            
     e(  6 -  6) =      3.64357  eV     1   --> A'             
     e(  7 -  7) =      5.03840  eV     1   --> A''            
     e(  8 -  8) =      5.28577  eV     1   --> A'             
     e(  9 -  9) =      6.21064  eV     1   --> A''            
     e( 10 - 10) =      6.56409  eV     1   --> A'             
     e( 11 - 11) =      8.30534  eV     1   --> A''            
     e( 12 - 12) =      8.56971  eV     1   --> A'             
     e( 13 - 13) =      8.84852  eV     1   --> A'             
     e( 14 - 14) =     10.45623  eV     1   --> A'             
     e( 15 - 15) =     11.05047  eV     1   --> A''            
     e( 16 - 16) =     12.34904  eV     1   --> A'             

 **************************************************************************

 **************************************************************************

                    xk=(  -0.20633,   0.35742,   0.00000  )

     Band symmetry, C_s (m)     point group:

     e(  1 -  1) =    -19.48753  eV     1   --> A'             
     e(  2 -  2) =    -10.86839  eV     1   --> A'             
     e(  3 -  3) =     -9.13655  eV     1   --> A'             
     e(  4 -  4) =     -6.46042  eV     1   --> A''            
     e(  5 -  5) =      2.71362  eV     1   --> A''            
     e(  6 -  6) =      4.22261  eV     1   --> A'             
     e(  7 -  7) =      5.49938  eV     1   --> A''            
     e(  8 -  8) =      5.89198  eV     1   --> A'             
     e(  9 -  9) =      6.76281  eV     1   --> A''            
     e( 10 - 10) =      7.15444  eV     1   --> A'             
     e( 11 - 11) =      8.83203  eV     1   --> A''            
     e( 12 - 12) =      9.08930  eV     1   --> A'             
     e( 13 - 13) =      9.17219  eV     1   --> A'             
     e( 14 - 14) =     10.79780  eV     1   --> A'             
     e( 15 - 15) =     11.36254  eV     1   --> A''            
     e( 16 - 16) =     12.86417  eV     1   --> A'             

 **************************************************************************

 **************************************************************************

                    xk=(  -0.22220,   0.38491,   0.00000  )

     Band symmetry, C_s (m)     point group:

     e(  1 -  1) =    -19.20200  eV     1   --> A'             
     e(  2 -  2) =    -11.25922  eV     1   --> A'             
     e(  3 -  3) =     -9.50058  eV     1   --> A'             
     e(  4 -  4) =     -6.05024  eV     1   --> A''            
     e(  5 -  5) =      2.28077  eV     1   --> A''            
     e(  6 -  6) =      4.84343  eV     1   --> A'             
     e(  7 -  7) =      6.04928  eV     1   --> A''            
     e(  8 -  8) =      6.54624  eV     1   --> A'             
     e(  9 -  9) =      7.37104  eV     1   --> A''            
     e( 10 - 10) =      7.78671  eV     1   --> A'             
     e( 11 - 11) =      9.36893  eV     1   --> A''            
     e( 12 - 12) =      9.44136  eV     1   --> A'             
     e( 13 - 13) =      9.67692  eV     1   --> A'             
     e( 14 - 14) =     11.16594  eV     1   --> A'             
     e( 15 - 15) =     11.44995  eV     1   --> A''            
     e( 16 - 16) =     13.22336  eV     1   --> A''            

 **************************************************************************

 **************************************************************************

                    xk=(  -0.23807,   0.41241,   0.00000  )

     Band symmetry, C_s (m)     point group:

     e(  1 -  1) =    -18.92441  eV     1   --> A'             
     e(  2 -  2) =    -11.59744  eV     1   --> A'             
     e(  3 -  3) =     -9.85156  eV     1   --> A'             
     e(  4 -  4) =     -5.64476  eV     1   --> A''            
     e(  5 -  5) =      1.84929  eV     1   --> A''            
     e(  6 -  6) =      5.50378  eV     1   --> A'             
     e(  7 -  7) =      6.64551  eV     1   --> A''            
     e(  8 -  8) =      7.24825  eV     1   --> A'             
     e(  9 -  9) =      8.01782  eV     1   --> A''            
     e( 10 - 10) =      8.45517  eV     1   --> A'             
     e( 11 - 11) =      9.71603  eV     1   --> A'             
     e( 12 - 12) =      9.84235  eV     1   --> A''            
     e( 13 - 13) =     10.23794  eV     1   --> A'             
     e( 14 - 14) =     11.40122  eV     1   --> A''            
     e( 15 - 15) =     11.57959  eV     1   --> A'             
     e( 16 - 16) =     13.57416  eV     1   --> A''            

 **************************************************************************

 **************************************************************************

                    xk=(  -0.25394,   0.43990,   0.00000  )

     Band symmetry, C_s (m)     point group:

     e(  1 -  1) =    -18.66569  eV     1   --> A'             
     e(  2 -  2) =    -11.87255  eV     1   --> A'             
     e(  3 -  3) =    -10.18621  eV     1   --> A'             
     e(  4 -  4) =     -5.25817  eV     1   --> A''            
     e(  5 -  5) =      1.44930  eV     1   --> A''            
     e(  6 -  6) =      6.19940  eV     1   --> A'             
     e(  7 -  7) =      7.24825  eV     1   --> A''            
     e(  8 -  8) =      7.99725  eV     1   --> A'             
     e(  9 -  9) =      8.67675  eV     1   --> A''            
     e( 10 - 10) =      9.14001  eV     1   --> A'             
     e( 11 - 11) =      9.95487  eV     1   --> A'             
     e( 12 - 12) =     10.11992  eV     1   --> A''            
     e( 13 - 13) =     10.78171  eV     1   --> A'             
     e( 14 - 14) =     11.57167  eV     1   --> A''            
     e( 15 - 15) =     12.05090  eV     1   --> A'             
     e( 16 - 16) =     14.04413  eV     1   --> A''            

 **************************************************************************

 **************************************************************************

                    xk=(  -0.26981,   0.46739,   0.00000  )

     Band symmetry, C_s (m)     point group:

     e(  1 -  1) =    -18.43739  eV     1   --> A'             
     e(  2 -  2) =    -12.07409  eV     1   --> A'             
     e(  3 -  3) =    -10.49987  eV     1   --> A'             
     e(  4 -  4) =     -4.90828  eV     1   --> A''            
     e(  5 -  5) =      1.10254  eV     1   --> A''            
     e(  6 -  6) =      6.92293  eV     1   --> A'             
     e(  7 -  7) =      7.78262  eV     1   --> A''            
     e(  8 -  8) =      8.79084  eV     1   --> A'             
     e(  9 -  9) =      9.28442  eV     1   --> A''            
     e( 10 - 10) =      9.73214  eV     1   --> A'             
     e( 11 - 11) =     10.25046  eV     1   --> A'             
     e( 12 - 12) =     10.31758  eV     1   --> A''            
     e( 13 - 13) =     11.25862  eV     1   --> A'             
     e( 14 - 14) =     12.07016  eV     1   --> A''            
     e( 15 - 15) =     12.55756  eV     1   --> A'             
     e( 16 - 16) =     13.65595  eV     1   --> A'             

 **************************************************************************

 **************************************************************************

                    xk=(  -0.28569,   0.49489,   0.00000  )

     Band symmetry, C_s (m)     point group:

     e(  1 -  1) =    -18.25162  eV     1   --> A'             
     e(  2 -  2) =    -12.19471  eV     1   --> A'             
     e(  3 -  3) =    -10.78708  eV     1   --> A'             
     e(  4 -  4) =     -4.61432  eV     1   --> A''            
     e(  5 -  5) =      0.82719  eV     1   --> A''            
     e(  6 -  6) =      7.65774  eV     1   --> A'             
     e(  7 -  7) =      8.11569  eV     1   --> A''            
     e(  8 -  8) =      9.60920  eV     1   --> A'             
     e(  9 -  9) =      9.80990  eV     1   --> A''            
     e( 10 - 10) =      9.99609  eV     1   --> A'             
     e( 11 - 11) =     10.78796  eV     1   --> A''            
     e( 12 - 12) =     10.82208  eV     1   --> A'             
     e( 13 - 13) =     11.57046  eV     1   --> A'             
     e( 14 - 14) =     12.69724  eV     1   --> A''            
     e( 15 - 15) =     12.95390  eV     1   --> A'             
     e( 16 - 16) =     13.53642  eV     1   --> A'             

 **************************************************************************

 **************************************************************************

                    xk=(  -0.30156,   0.52238,   0.00000  )

     Band symmetry, C_s (m)     point group:

     e(  1 -  1) =    -18.11781  eV     1   --> A'             
     e(  2 -  2) =    -12.23531  eV     1   --> A'             
     e(  3 -  3) =    -11.03743  eV     1   --> A'             
     e(  4 -  4) =     -4.39669  eV     1   --> A''            
     e(  5 -  5) =      0.63563  eV     1   --> A''            
     e(  6 -  6) =      8.20181  eV     1   --> A''            
     e(  7 -  7) =      8.36104  eV     1   --> A'             
     e(  8 -  8) =      9.99359  eV     1   --> A'             
     e(  9 -  9) =     10.41717  eV     1   --> A''            
     e( 10 - 10) =     10.56025  eV     1   --> A'             
     e( 11 - 11) =     11.21096  eV     1   --> A'             
     e( 12 - 12) =     11.50113  eV     1   --> A''            
     e( 13 - 13) =     11.87001  eV     1   --> A'             
     e( 14 - 14) =     12.84930  eV     1   --> A''            
     e( 15 - 15) =     13.18472  eV     1   --> A'             
     e( 16 - 16) =     13.37197  eV     1   --> A''            

 **************************************************************************

 **************************************************************************

                    xk=(  -0.31743,   0.54988,   0.00000  )

     Band symmetry, C_s (m)     point group:

     e(  1 -  1) =    -18.04001  eV     1   --> A'             
     e(  2 -  2) =    -12.21473  eV     1   --> A'             
     e(  3 -  3) =    -11.22836  eV     1   --> A'             
     e(  4 -  4) =     -4.26742  eV     1   --> A''            
     e(  5 -  5) =      0.53035  eV     1   --> A''            
     e(  6 -  6) =      8.17467  eV     1   --> A''            
     e(  7 -  7) =      8.90716  eV     1   --> A'             
     e(  8 -  8) =     10.10283  eV     1   --> A'             
     e(  9 -  9) =     10.96413  eV     1   --> A'             
     e( 10 - 10) =     11.11881  eV     1   --> A''            
     e( 11 - 11) =     11.50302  eV     1   --> A'             
     e( 12 - 12) =     12.17659  eV     1   --> A''            
     e( 13 - 13) =     12.49058  eV     1   --> A''            
     e( 14 - 14) =     12.51445  eV     1   --> A'             
     e( 15 - 15) =     12.91979  eV     1   --> A'             
     e( 16 - 16) =     13.02284  eV     1   --> A'             

 **************************************************************************

 **************************************************************************

                    xk=(  -0.33330,   0.57737,   0.00000  )

     Band symmetry, C_s (m)     point group:

     e(  1 -  1) =    -18.01567  eV     1   --> A'             
     e(  2 -  2) =    -12.18922  eV     1   --> A'             
     e(  3 -  3) =    -11.30805  eV     1   --> A'             
     e(  4 -  4) =     -4.22619  eV     1   --> A''            
     e(  5 -  5) =      0.50027  eV     1   --> A''            
     e(  6 -  6) =      8.15163  eV     1   --> A''            
     e(  7 -  7) =      9.09136  eV     1   --> A'             
     e(  8 -  8) =     10.27639  eV     1   --> A'             
     e(  9 -  9) =     10.74073  eV     1   --> A'             
     e( 10 - 10) =     11.58629  eV     1   --> A''            
     e( 11 - 11) =     12.03872  eV     1   --> A''            
     e( 12 - 12) =     12.37098  eV     1   --> A'             
     e( 13 - 13) =     12.45781  eV     1   --> A'             
     e( 14 - 14) =     12.51012  eV     1   --> A'             
     e( 15 - 15) =     12.66261  eV     1   --> A''            
     e( 16 - 16) =     13.00463  eV     1   --> A'             

 **************************************************************************

 **************************************************************************

                    xk=(  -0.30300,   0.57737,   0.00000  )

     Band symmetry, C_s (m)     point group:

     e(  1 -  1) =    -18.03470  eV     1   --> A'             
     e(  2 -  2) =    -12.22792  eV     1   --> A'             
     e(  3 -  3) =    -11.22391  eV     1   --> A'             
     e(  4 -  4) =     -4.25804  eV     1   --> A''            
     e(  5 -  5) =      0.51950  eV     1   --> A''            
     e(  6 -  6) =      8.18093  eV     1   --> A''            
     e(  7 -  7) =      8.98975  eV     1   --> A'             
     e(  8 -  8) =     10.04538  eV     1   --> A'             
     e(  9 -  9) =     10.90682  eV     1   --> A'             
     e( 10 - 10) =     11.31539  eV     1   --> A''            
     e( 11 - 11) =     11.94822  eV     1   --> A''            
     e( 12 - 12) =     11.98369  eV     1   --> A'             
     e( 13 - 13) =     12.04050  eV     1   --> A'             
     e( 14 - 14) =     12.72194  eV     1   --> A''            
     e( 15 - 15) =     12.79412  eV     1   --> A'             
     e( 16 - 16) =     12.94488  eV     1   --> A''            

 **************************************************************************

 **************************************************************************

                    xk=(  -0.27270,   0.57737,   0.00000  )

     Band symmetry, C_s (m)     point group:

     e(  1 -  1) =    -18.08463  eV     1   --> A'             
     e(  2 -  2) =    -12.33075  eV     1   --> A'             
     e(  3 -  3) =    -10.99543  eV     1   --> A'             
     e(  4 -  4) =     -4.33998  eV     1   --> A''            
     e(  5 -  5) =      0.56092  eV     1   --> A''            
     e(  6 -  6) =      8.27163  eV     1   --> A''            
     e(  7 -  7) =      8.76579  eV     1   --> A'             
     e(  8 -  8) =      9.68827  eV     1   --> A'             
     e(  9 -  9) =     10.88417  eV     1   --> A'             
     e( 10 - 10) =     10.94890  eV     1   --> A''            
     e( 11 - 11) =     11.58484  eV     1   --> A'             
     e( 12 - 12) =     11.64556  eV     1   --> A'             
     e( 13 - 13) =     11.66005  eV     1   --> A''            
     e( 14 - 14) =     12.39220  eV     1   --> A''            
     e( 15 - 15) =     12.53310  eV     1   --> A'             
     e( 16 - 16) =     12.77330  eV     1   --> A''            

 **************************************************************************

 **************************************************************************

                    xk=(  -0.24240,   0.57736,   0.00000  )

     Band symmetry, C_s (m)     point group:

     e(  1 -  1) =    -18.15479  eV     1   --> A'             
     e(  2 -  2) =    -12.45929  eV     1   --> A'             
     e(  3 -  3) =    -10.67681  eV     1   --> A'             
     e(  4 -  4) =     -4.45253  eV     1   --> A''            
     e(  5 -  5) =      0.60395  eV     1   --> A''            
     e(  6 -  6) =      8.41209  eV     1   --> A''            
     e(  7 -  7) =      8.47180  eV     1   --> A'             
     e(  8 -  8) =      9.34307  eV     1   --> A'             
     e(  9 -  9) =     10.56270  eV     1   --> A'             
     e( 10 - 10) =     10.61073  eV     1   --> A''            
     e( 11 - 11) =     11.21660  eV     1   --> A'             
     e( 12 - 12) =     11.28125  eV     1   --> A'             
     e( 13 - 13) =     11.37622  eV     1   --> A''            
     e( 14 - 14) =     12.03722  eV     1   --> A''            
     e( 15 - 15) =     12.23454  eV     1   --> A'             
     e( 16 - 16) =     12.53331  eV     1   --> A''            

 **************************************************************************

 **************************************************************************

                    xk=(  -0.21210,   0.57736,   0.00000  )

     Band symmetry, C_s (m)     point group:

     e(  1 -  1) =    -18.23550  eV     1   --> A'             
     e(  2 -  2) =    -12.58920  eV     1   --> A'             
     e(  3 -  3) =    -10.31035  eV     1   --> A'             
     e(  4 -  4) =     -4.57970  eV     1   --> A''            
     e(  5 -  5) =      0.63599  eV     1   --> A''            
     e(  6 -  6) =      8.11802  eV     1   --> A'             
     e(  7 -  7) =      8.57222  eV     1   --> A''            
     e(  8 -  8) =      9.03318  eV     1   --> A'             
     e(  9 -  9) =     10.12579  eV     1   --> A'             
     e( 10 - 10) =     10.31386  eV     1   --> A''            
     e( 11 - 11) =     10.88947  eV     1   --> A'             
     e( 12 - 12) =     10.94707  eV     1   --> A'             
     e( 13 - 13) =     11.13787  eV     1   --> A''            
     e( 14 - 14) =     11.72060  eV     1   --> A''            
     e( 15 - 15) =     11.95829  eV     1   --> A'             
     e( 16 - 16) =     12.28793  eV     1   --> A'             

 **************************************************************************

 **************************************************************************

                    xk=(  -0.18180,   0.57736,   0.00000  )

     Band symmetry, C_s (m)     point group:

     e(  1 -  1) =    -18.31884  eV     1   --> A'             
     e(  2 -  2) =    -12.70913  eV     1   --> A'             
     e(  3 -  3) =     -9.92542  eV     1   --> A'             
     e(  4 -  4) =     -4.70800  eV     1   --> A''            
     e(  5 -  5) =      0.65263  eV     1   --> A''            
     e(  6 -  6) =      7.70843  eV     1   --> A'             
     e(  7 -  7) =      8.71168  eV     1   --> A''            
     e(  8 -  8) =      8.76734  eV     1   --> A'             
     e(  9 -  9) =      9.69512  eV     1   --> A'             
     e( 10 - 10) =     10.06164  eV     1   --> A''            
     e( 11 - 11) =     10.60571  eV     1   --> A'             
     e( 12 - 12) =     10.65503  eV     1   --> A'             
     e( 13 - 13) =     10.95060  eV     1   --> A''            
     e( 14 - 14) =     11.44758  eV     1   --> A''            
     e( 15 - 15) =     11.71468  eV     1   --> A'             
     e( 16 - 16) =     12.00747  eV     1   --> A'             

 **************************************************************************

 **************************************************************************

                    xk=(  -0.15150,   0.57736,   0.00000  )

     Band symmetry, C_s (m)     point group:

     e(  1 -  1) =    -18.39817  eV     1   --> A'             
     e(  2 -  2) =    -12.81437  eV     1   --> A'             
     e(  3 -  3) =     -9.54514  eV     1   --> A'             
     e(  4 -  4) =     -4.82849  eV     1   --> A''            
     e(  5 -  5) =      0.65495  eV     1   --> A''            
     e(  6 -  6) =      7.26295  eV     1   --> A'             
     e(  7 -  7) =      8.54696  eV     1   --> A'             
     e(  8 -  8) =      8.79811  eV     1   --> A''            
     e(  9 -  9) =      9.32794  eV     1   --> A'             
     e( 10 - 10) =      9.85404  eV     1   --> A''            
     e( 11 - 11) =     10.36553  eV     1   --> A'             
     e( 12 - 12) =     10.40834  eV     1   --> A'             
     e( 13 - 13) =     10.80483  eV     1   --> A''            
     e( 14 - 14) =     11.21932  eV     1   --> A''            
     e( 15 - 15) =     11.50551  eV     1   --> A'             
     e( 16 - 16) =     11.76729  eV     1   --> A'             

 **************************************************************************

 **************************************************************************

                    xk=(  -0.12120,   0.57736,   0.00000  )

     Band symmetry, C_s (m)     point group:

     e(  1 -  1) =    -18.46889  eV     1   --> A'             
     e(  2 -  2) =    -12.90239  eV     1   --> A'             
     e(  3 -  3) =     -9.19182  eV     1   --> A'             
     e(  4 -  4) =     -4.93469  eV     1   --> A''            
     e(  5 -  5) =      0.64708  eV     1   --> A''            
     e(  6 -  6) =      6.81830  eV     1   --> A'             
     e(  7 -  7) =      8.36989  eV     1   --> A'             
     e(  8 -  8) =      8.82582  eV     1   --> A''            
     e(  9 -  9) =      9.03958  eV     1   --> A'             
     e( 10 - 10) =      9.68874  eV     1   --> A''            
     e( 11 - 11) =     10.16892  eV     1   --> A'             
     e( 12 - 12) =     10.20703  eV     1   --> A'             
     e( 13 - 13) =     10.68608  eV     1   --> A''            
     e( 14 - 14) =     11.03547  eV     1   --> A''            
     e( 15 - 15) =     11.33224  eV     1   --> A'             
     e( 16 - 16) =     11.56991  eV     1   --> A'             

 **************************************************************************

 **************************************************************************

                    xk=(  -0.09090,   0.57736,   0.00000  )

     Band symmetry, C_s (m)     point group:

     e(  1 -  1) =    -18.52713  eV     1   --> A'             
     e(  2 -  2) =    -12.97162  eV     1   --> A'             
     e(  3 -  3) =     -8.88652  eV     1   --> A'             
     e(  4 -  4) =     -5.02114  eV     1   --> A''            
     e(  5 -  5) =      0.63445  eV     1   --> A''            
     e(  6 -  6) =      6.41838  eV     1   --> A'             
     e(  7 -  7) =      8.23394  eV     1   --> A'             
     e(  8 -  8) =      8.81383  eV     1   --> A''            
     e(  9 -  9) =      8.82632  eV     1   --> A'             
     e( 10 - 10) =      9.56264  eV     1   --> A''            
     e( 11 - 11) =     10.01594  eV     1   --> A'             
     e( 12 - 12) =     10.05076  eV     1   --> A'             
     e( 13 - 13) =     10.58778  eV     1   --> A''            
     e( 14 - 14) =     10.89468  eV     1   --> A''            
     e( 15 - 15) =     11.19623  eV     1   --> A'             
     e( 16 - 16) =     11.41613  eV     1   --> A'             

 **************************************************************************

 **************************************************************************

                    xk=(  -0.06060,   0.57735,   0.00000  )

     Band symmetry, C_s (m)     point group:

     e(  1 -  1) =    -18.57033  eV     1   --> A'             
     e(  2 -  2) =    -13.02155  eV     1   --> A'             
     e(  3 -  3) =     -8.64985  eV     1   --> A'             
     e(  4 -  4) =     -5.08456  eV     1   --> A''            
     e(  5 -  5) =      0.62180  eV     1   --> A''            
     e(  6 -  6) =      6.10214  eV     1   --> A'             
     e(  7 -  7) =      8.13751  eV     1   --> A'             
     e(  8 -  8) =      8.68012  eV     1   --> A'             
     e(  9 -  9) =      8.78711  eV     1   --> A''            
     e( 10 - 10) =      9.47340  eV     1   --> A''            
     e( 11 - 11) =      9.90663  eV     1   --> A'             
     e( 12 - 12) =      9.93927  eV     1   --> A'             
     e( 13 - 13) =     10.51230  eV     1   --> A''            
     e( 14 - 14) =     10.79528  eV     1   --> A''            
     e( 15 - 15) =     11.09840  eV     1   --> A'             
     e( 16 - 16) =     11.30621  eV     1   --> A'             

 **************************************************************************

 **************************************************************************

                    xk=(  -0.03030,   0.57735,   0.00000  )

     Band symmetry, C_s (m)     point group:

     e(  1 -  1) =    -18.59699  eV     1   --> A'             
     e(  2 -  2) =    -13.05171  eV     1   --> A'             
     e(  3 -  3) =     -8.49980  eV     1   --> A'             
     e(  4 -  4) =     -5.12349  eV     1   --> A''            
     e(  5 -  5) =      0.61280  eV     1   --> A''            
     e(  6 -  6) =      5.89979  eV     1   --> A'             
     e(  7 -  7) =      8.07983  eV     1   --> A'             
     e(  8 -  8) =      8.59475  eV     1   --> A'             
     e(  9 -  9) =      8.76431  eV     1   --> A''            
     e( 10 - 10) =      9.41997  eV     1   --> A''            
     e( 11 - 11) =      9.84102  eV     1   --> A'             
     e( 12 - 12) =      9.87243  eV     1   --> A'             
     e( 13 - 13) =     10.46464  eV     1   --> A''            
     e( 14 - 14) =     10.73604  eV     1   --> A''            
     e( 15 - 15) =     11.03941  eV     1   --> A'             
     e( 16 - 16) =     11.24024  eV     1   --> A'             

 **************************************************************************

 **************************************************************************

                    xk=(   0.00000,   0.57735,   0.00000  )

     point group C_2v (mm2) 
     there are  4 classes
     the character table:

       E     C2    s_v   s_v' 
A_1    1.00  1.00  1.00  1.00
A_2    1.00  1.00 -1.00 -1.00
B_1    1.00 -1.00  1.00 -1.00
B_2    1.00 -1.00 -1.00  1.00

     the symmetry operations in each class and the name of the first element:

     E        1
                                                                 
     C2       2
                                                                 
     s_v      3
                                                                 
     s_v'     4
                                                                 

     Band symmetry, C_2v (mm2)  point group:

     e(  1 -  1) =    -18.60587  eV     1   --> A_1  D_1  S_1  
     e(  2 -  2) =    -13.06166  eV     1   --> A_1  D_1  S_1  
     e(  3 -  3) =     -8.44765  eV     1   --> B_1  D_3  S_3  
     e(  4 -  4) =     -5.13659  eV     1   --> B_2  D_4  S_4  
     e(  5 -  5) =      0.60961  eV     1   --> B_2  D_4  S_4  
     e(  6 -  6) =      5.83021  eV     1   --> A_1  D_1  S_1  
     e(  7 -  7) =      8.06068  eV     1   --> A_1  D_1  S_1  
     e(  8 -  8) =      8.56668  eV     1   --> A_1  D_1  S_1  
     e(  9 -  9) =      8.75567  eV     1   --> B_2  D_4  S_4  
     e( 10 - 10) =      9.40216  eV     1   --> B_2  D_4  S_4  
     e( 11 - 11) =      9.81915  eV     1   --> A_1  D_1  S_1  
     e( 12 - 12) =      9.85016  eV     1   --> A_1  D_1  S_1  
     e( 13 - 13) =     10.44835  eV     1   --> B_2  D_4  S_4  
     e( 14 - 14) =     10.71635  eV     1   --> B_2  D_4  S_4  
     e( 15 - 15) =     11.01974  eV     1   --> A_1  D_1  S_1  
     e( 16 - 16) =     11.21825  eV     1   --> A_1  D_1  S_1  

 **************************************************************************

 **************************************************************************

                    xk=(   0.00000,   0.54528,   0.00000  )

     Band symmetry, C_2v (mm2)  point group:

     e(  1 -  1) =    -18.65124  eV     1   --> A_1  D_1  S_1  
     e(  2 -  2) =    -12.99172  eV     1   --> A_1  D_1  S_1  
     e(  3 -  3) =     -8.43174  eV     1   --> B_1  D_3  S_3  
     e(  4 -  4) =     -5.20800  eV     1   --> B_2  D_4  S_4  
     e(  5 -  5) =      0.70117  eV     1   --> B_2  D_4  S_4  
     e(  6 -  6) =      5.77759  eV     1   --> A_1  D_1  S_1  
     e(  7 -  7) =      7.58642  eV     1   --> A_1  D_1  S_1  
     e(  8 -  8) =      8.24420  eV     1   --> B_2  D_4  S_4  
     e(  9 -  9) =      8.94701  eV     1   --> A_1  D_1  S_1  
     e( 10 - 10) =      9.14169  eV     1   --> A_1  D_1  S_1  
     e( 11 - 11) =      9.60129  eV     1   --> B_2  D_4  S_4  
     e( 12 - 12) =     10.08642  eV     1   --> B_2  D_4  S_4  
     e( 13 - 13) =     10.29262  eV     1   --> A_1  D_1  S_1  
     e( 14 - 14) =     10.74855  eV     1   --> A_1  D_1  S_1  
     e( 15 - 15) =     11.36447  eV     1   --> B_2  D_4  S_4  
     e( 16 - 16) =     11.85026  eV     1   --> B_2  D_4  S_4  

 **************************************************************************

 **************************************************************************

                    xk=(   0.00000,   0.51320,   0.00000  )

     Band symmetry, C_2v (mm2)  point group:

     e(  1 -  1) =    -18.78025  eV     1   --> A_1  D_1  S_1  
     e(  2 -  2) =    -12.78950  eV     1   --> A_1  D_1  S_1  
     e(  3 -  3) =     -8.38425  eV     1   --> B_1  D_3  S_3  
     e(  4 -  4) =     -5.40798  eV     1   --> B_2  D_4  S_4  
     e(  5 -  5) =      0.96016  eV     1   --> B_2  D_4  S_4  
     e(  6 -  6) =      5.58995  eV     1   --> A_1  D_1  S_1  
     e(  7 -  7) =      7.06490  eV     1   --> A_1  D_1  S_1  
     e(  8 -  8) =      7.52713  eV     1   --> B_2  D_4  S_4  
     e(  9 -  9) =      8.15789  eV     1   --> A_1  D_1  S_1  
     e( 10 - 10) =      8.91124  eV     1   --> B_2  D_4  S_4  
     e( 11 - 11) =      9.44093  eV     1   --> A_1  D_1  S_1  
     e( 12 - 12) =      9.97632  eV     1   --> A_1  D_1  S_1  
     e( 13 - 13) =     10.57704  eV     1   --> B_2  D_4  S_4  
     e( 14 - 14) =     11.22927  eV     1   --> B_2  D_4  S_4  
     e( 15 - 15) =     11.60712  eV     1   --> A_1  D_1  S_1  
     e( 16 - 16) =     11.74662  eV     1   --> A_1  D_1  S_1  

 **************************************************************************

 **************************************************************************

                    xk=(   0.00000,   0.48113,   0.00000  )

     Band symmetry, C_2v (mm2)  point group:

     e(  1 -  1) =    -18.97490  eV     1   --> A_1  D_1  S_1  
     e(  2 -  2) =    -12.47351  eV     1   --> A_1  D_1  S_1  
     e(  3 -  3) =     -8.30462  eV     1   --> B_1  D_3  S_3  
     e(  4 -  4) =     -5.70320  eV     1   --> B_2  D_4  S_4  
     e(  5 -  5) =      1.34861  eV     1   --> B_2  D_4  S_4  
     e(  6 -  6) =      5.22374  eV     1   --> A_1  D_1  S_1  
     e(  7 -  7) =      6.72418  eV     1   --> A_1  D_1  S_1  
     e(  8 -  8) =      6.82921  eV     1   --> B_2  D_4  S_4  
     e(  9 -  9) =      7.40758  eV     1   --> A_1  D_1  S_1  
     e( 10 - 10) =      8.18256  eV     1   --> B_2  D_4  S_4  
     e( 11 - 11) =      8.74477  eV     1   --> A_1  D_1  S_1  
     e( 12 - 12) =     10.19151  eV     1   --> B_2  D_4  S_4  
     e( 13 - 13) =     10.58173  eV     1   --> A_1  D_1  S_1  
     e( 14 - 14) =     11.12037  eV     1   --> A_1  D_1  S_1  
     e( 15 - 15) =     11.68784  eV     1   --> B_2  D_4  S_4  
     e( 16 - 16) =     12.70932  eV     1   --> A_1  D_1  S_1  

 **************************************************************************

 **************************************************************************

                    xk=(   0.00000,   0.44905,   0.00000  )

     Band symmetry, C_2v (mm2)  point group:

     e(  1 -  1) =    -19.21425  eV     1   --> A_1  D_1  S_1  
     e(  2 -  2) =    -12.06610  eV     1   --> A_1  D_1  S_1  
     e(  3 -  3) =     -8.19518  eV     1   --> B_1  D_3  S_3  
     e(  4 -  4) =     -6.05738  eV     1   --> B_2  D_4  S_4  
     e(  5 -  5) =      1.82095  eV     1   --> B_2  D_4  S_4  
     e(  6 -  6) =      4.72404  eV     1   --> A_1  D_1  S_1  
     e(  7 -  7) =      6.17555  eV     1   --> B_2  D_4  S_4  
     e(  8 -  8) =      6.46589  eV     1   --> A_1  D_1  S_1  
     e(  9 -  9) =      6.77964  eV     1   --> A_1  D_1  S_1  
     e( 10 - 10) =      7.49476  eV     1   --> B_2  D_4  S_4  
     e( 11 - 11) =      8.07531  eV     1   --> A_1  D_1  S_1  
     e( 12 - 12) =      9.56752  eV     1   --> B_2  D_4  S_4  
     e( 13 - 13) =     10.16970  eV     1   --> A_1  D_1  S_1  
     e( 14 - 14) =     11.61134  eV     1   --> A_1  D_1  S_1  
     e( 15 - 15) =     12.01413  eV     1   --> B_2  D_4  S_4  
     e( 16 - 16) =     13.02947  eV     1   --> B_2  D_4  S_4  

 **************************************************************************

 **************************************************************************

                    xk=(   0.00000,   0.41698,   0.00000  )

     Band symmetry, C_2v (mm2)  point group:

     e(  1 -  1) =    -19.47896  eV     1   --> A_1  D_1  S_1  
     e(  2 -  2) =    -11.58867  eV     1   --> A_1  D_1  S_1  
     e(  3 -  3) =     -8.05646  eV     1   --> B_1  D_3  S_3  
     e(  4 -  4) =     -6.44122  eV     1   --> B_2  D_4  S_4  
     e(  5 -  5) =      2.32944  eV     1   --> B_2  D_4  S_4  
     e(  6 -  6) =      4.17756  eV     1   --> A_1  D_1  S_1  
     e(  7 -  7) =      5.58176  eV     1   --> B_2  D_4  S_4  
     e(  8 -  8) =      5.94263  eV     1   --> A_1  D_1  S_1  
     e(  9 -  9) =      6.51754  eV     1   --> A_1  D_1  S_1  
     e( 10 - 10) =      6.85736  eV     1   --> B_2  D_4  S_4  
     e( 11 - 11) =      7.48667  eV     1   --> A_1  D_1  S_1  
     e( 12 - 12) =      8.95976  eV     1   --> B_2  D_4  S_4  
     e( 13 - 13) =      9.56105  eV     1   --> A_1  D_1  S_1  
     e( 14 - 14) =     11.69078  eV     1   --> B_2  D_4  S_4  
     e( 15 - 15) =     11.95754  eV     1   --> A_1  D_1  S_1  
     e( 16 - 16) =     12.96781  eV     1   --> A_1  D_1  S_1  

 **************************************************************************

 **************************************************************************

                    xk=(   0.00000,   0.38490,   0.00000  )

     Band symmetry, C_2v (mm2)  point group:

     e(  1 -  1) =    -19.75386  eV     1   --> A_1  D_1  S_1  
     e(  2 -  2) =    -11.05946  eV     1   --> A_1  D_1  S_1  
     e(  3 -  3) =     -7.89059  eV     1   --> B_1  D_3  S_3  
     e(  4 -  4) =     -6.83370  eV     1   --> B_2  D_4  S_4  
     e(  5 -  5) =      2.81238  eV     1   --> B_2  D_4  S_4  
     e(  6 -  6) =      3.63445  eV     1   --> A_1  D_1  S_1  
     e(  7 -  7) =      5.07453  eV     1   --> B_2  D_4  S_4  
     e(  8 -  8) =      5.34460  eV     1   --> A_1  D_1  S_1  
     e(  9 -  9) =      6.27943  eV     1   --> B_2  D_4  S_4  
     e( 10 - 10) =      6.30975  eV     1   --> A_1  D_1  S_1  
     e( 11 - 11) =      7.05431  eV     1   --> A_1  D_1  S_1  
     e( 12 - 12) =      8.39362  eV     1   --> B_2  D_4  S_4  
     e( 13 - 13) =      8.98471  eV     1   --> A_1  D_1  S_1  
     e( 14 - 14) =     11.21748  eV     1   --> B_2  D_4  S_4  
     e( 15 - 15) =     11.64944  eV     1   --> A_1  D_1  S_1  
     e( 16 - 16) =     13.18030  eV     1   --> A_1  D_1  S_1  

 **************************************************************************

 **************************************************************************

                    xk=(   0.00000,   0.35283,   0.00000  )

     Band symmetry, C_2v (mm2)  point group:

     e(  1 -  1) =    -20.02787  eV     1   --> A_1  D_1  S_1  
     e(  2 -  2) =    -10.49396  eV     1   --> A_1  D_1  S_1  
     e(  3 -  3) =     -7.70030  eV     1   --> B_1  D_3  S_3  
     e(  4 -  4) =     -7.21993  eV     1   --> B_2  D_4  S_4  
     e(  5 -  5) =      3.11629  eV     1   --> A_1  D_1  S_1  
     e(  6 -  6) =      3.15793  eV     1   --> B_2  D_4  S_4  
     e(  7 -  7) =      4.71769  eV     1   --> B_2  D_4  S_4  
     e(  8 -  8) =      4.78175  eV     1   --> A_1  D_1  S_1  
     e(  9 -  9) =      5.78364  eV     1   --> B_2  D_4  S_4  
     e( 10 - 10) =      5.94852  eV     1   --> A_1  D_1  S_1  
     e( 11 - 11) =      6.85175  eV     1   --> A_1  D_1  S_1  
     e( 12 - 12) =      7.88061  eV     1   --> B_2  D_4  S_4  
     e( 13 - 13) =      8.45882  eV     1   --> A_1  D_1  S_1  
     e( 14 - 14) =     10.74546  eV     1   --> B_2  D_4  S_4  
     e( 15 - 15) =     11.16469  eV     1   --> A_1  D_1  S_1  
     e( 16 - 16) =     13.21017  eV     1   --> A_1  D_1  S_1  

 **************************************************************************

 **************************************************************************

                    xk=(   0.00000,   0.32075,   0.00000  )

     Band symmetry, C_2v (mm2)  point group:

     e(  1 -  1) =    -20.29277  eV     1   --> A_1  D_1  S_1  
     e(  2 -  2) =     -9.90425  eV     1   --> A_1  D_1  S_1  
     e(  3 -  3) =     -7.58978  eV     1   --> B_2  D_4  S_4  
     e(  4 -  4) =     -7.48869  eV     1   --> B_1  D_3  S_3  
     e(  5 -  5) =      2.63298  eV     1   --> A_1  D_1  S_1  
     e(  6 -  6) =      3.20096  eV     1   --> B_2  D_4  S_4  
     e(  7 -  7) =      4.26464  eV     1   --> A_1  D_1  S_1  
     e(  8 -  8) =      4.56527  eV     1   --> B_2  D_4  S_4  
     e(  9 -  9) =      5.45085  eV     1   --> B_2  D_4  S_4  
     e( 10 - 10) =      5.50897  eV     1   --> A_1  D_1  S_1  
     e( 11 - 11) =      6.77458  eV     1   --> A_1  D_1  S_1  
     e( 12 - 12) =      7.43494  eV     1   --> B_2  D_4  S_4  
     e( 13 - 13) =      7.99752  eV     1   --> A_1  D_1  S_1  
     e( 14 - 14) =     10.30659  eV     1   --> B_2  D_4  S_4  
     e( 15 - 15) =     10.67589  eV     1   --> A_1  D_1  S_1  
     e( 16 - 16) =     12.77985  eV     1   --> B_1  D_3  S_3  

 **************************************************************************

 **************************************************************************

                    xk=(   0.00000,   0.28868,   0.00000  )

     Band symmetry, C_2v (mm2)  point group:

     e(  1 -  1) =    -20.54277  eV     1   --> A_1  D_1  S_1  
     e(  2 -  2) =     -9.30287  eV     1   --> A_1  D_1  S_1  
     e(  3 -  3) =     -7.93644  eV     1   --> B_2  D_4  S_4  
     e(  4 -  4) =     -7.25998  eV     1   --> B_1  D_3  S_3  
     e(  5 -  5) =      2.18923  eV     1   --> A_1  D_1  S_1  
     e(  6 -  6) =      2.97602  eV     1   --> B_2  D_4  S_4  
     e(  7 -  7) =      3.79551  eV     1   --> A_1  D_1  S_1  
     e(  8 -  8) =      4.38464  eV     1   --> B_2  D_4  S_4  
     e(  9 -  9) =      5.07500  eV     1   --> A_1  D_1  S_1  
     e( 10 - 10) =      5.43069  eV     1   --> B_2  D_4  S_4  
     e( 11 - 11) =      6.70629  eV     1   --> A_1  D_1  S_1  
     e( 12 - 12) =      7.08648  eV     1   --> B_2  D_4  S_4  
     e( 13 - 13) =      7.62721  eV     1   --> A_1  D_1  S_1  
     e( 14 - 14) =      9.91505  eV     1   --> B_2  D_4  S_4  
     e( 15 - 15) =     10.21243  eV     1   --> A_1  D_1  S_1  
     e( 16 - 16) =     11.95026  eV     1   --> B_1  D_3  S_3  

 **************************************************************************

 **************************************************************************

                    xk=(   0.00000,   0.25660,   0.00000  )

     Band symmetry, C_2v (mm2)  point group:

     e(  1 -  1) =    -20.77376  eV     1   --> A_1  D_1  S_1  
     e(  2 -  2) =     -8.70196  eV     1   --> A_1  D_1  S_1  
     e(  3 -  3) =     -8.25499  eV     1   --> B_2  D_4  S_4  
     e(  4 -  4) =     -7.01881  eV     1   --> B_1  D_3  S_3  
     e(  5 -  5) =      1.78757  eV     1   --> A_1  D_1  S_1  
     e(  6 -  6) =      2.66376  eV     1   --> B_2  D_4  S_4  
     e(  7 -  7) =      3.37509  eV     1   --> A_1  D_1  S_1  
     e(  8 -  8) =      4.07771  eV     1   --> B_2  D_4  S_4  
     e(  9 -  9) =      4.67358  eV     1   --> A_1  D_1  S_1  
     e( 10 - 10) =      5.55463  eV     1   --> B_2  D_4  S_4  
     e( 11 - 11) =      6.57216  eV     1   --> A_1  D_1  S_1  
     e( 12 - 12) =      6.90156  eV     1   --> B_2  D_4  S_4  
     e( 13 - 13) =      7.39255  eV     1   --> A_1  D_1  S_1  
     e( 14 - 14) =      9.58221  eV     1   --> B_2  D_4  S_4  
     e( 15 - 15) =      9.78269  eV     1   --> A_1  D_1  S_1  
     e( 16 - 16) =     11.14974  eV     1   --> B_1  D_3  S_3  

 **************************************************************************

 **************************************************************************

                    xk=(   0.00000,   0.22453,   0.00000  )

     Band symmetry, C_2v (mm2)  point group:

     e(  1 -  1) =    -20.98253  eV     1   --> A_1  D_1  S_1  
     e(  2 -  2) =     -8.54204  eV     1   --> B_2  D_4  S_4  
     e(  3 -  3) =     -8.11318  eV     1   --> A_1  D_1  S_1  
     e(  4 -  4) =     -6.77220  eV     1   --> B_1  D_3  S_3  
     e(  5 -  5) =      1.42954  eV     1   --> A_1  D_1  S_1  
     e(  6 -  6) =      2.34987  eV     1   --> B_2  D_4  S_4  
     e(  7 -  7) =      3.00372  eV     1   --> A_1  D_1  S_1  
     e(  8 -  8) =      3.75444  eV     1   --> B_2  D_4  S_4  
     e(  9 -  9) =      4.31338  eV     1   --> A_1  D_1  S_1  
     e( 10 - 10) =      5.54404  eV     1   --> B_2  D_4  S_4  
     e( 11 - 11) =      6.35261  eV     1   --> A_1  D_1  S_1  
     e( 12 - 12) =      6.93880  eV     1   --> B_2  D_4  S_4  
     e( 13 - 13) =      7.30191  eV     1   --> A_1  D_1  S_1  
     e( 14 - 14) =      9.32130  eV     1   --> B_2  D_4  S_4  
     e( 15 - 15) =      9.39053  eV     1   --> A_1  D_1  S_1  
     e( 16 - 16) =     10.39274  eV     1   --> B_1  D_3  S_3  

 **************************************************************************

 **************************************************************************

                    xk=(   0.00000,   0.19245,   0.00000  )

     Band symmetry, C_2v (mm2)  point group:

     e(  1 -  1) =    -21.16690  eV     1   --> A_1  D_1  S_1  
     e(  2 -  2) =     -8.79455  eV     1   --> B_2  D_4  S_4  
     e(  3 -  3) =     -7.55058  eV     1   --> A_1  D_1  S_1  
     e(  4 -  4) =     -6.52704  eV     1   --> B_1  D_3  S_3  
     e(  5 -  5) =      1.11604  eV     1   --> A_1  D_1  S_1  
     e(  6 -  6) =      2.06294  eV     1   --> B_2  D_4  S_4  
     e(  7 -  7) =      2.68156  eV     1   --> A_1  D_1  S_1  
     e(  8 -  8) =      3.45798  eV     1   --> B_2  D_4  S_4  
     e(  9 -  9) =      3.99781  eV     1   --> A_1  D_1  S_1  
     e( 10 - 10) =      5.39660  eV     1   --> B_2  D_4  S_4  
     e( 11 - 11) =      6.09962  eV     1   --> A_1  D_1  S_1  
     e( 12 - 12) =      7.10280  eV     1   --> B_2  D_4  S_4  
     e( 13 - 13) =      7.29745  eV     1   --> A_1  D_1  S_1  
     e( 14 - 14) =      9.03818  eV     1   --> A_1  D_1  S_1  
     e( 15 - 15) =      9.14863  eV     1   --> B_2  D_4  S_4  
     e( 16 - 16) =      9.69425  eV     1   --> B_1  D_3  S_3  

 **************************************************************************

 **************************************************************************

                    xk=(   0.00000,   0.16038,   0.00000  )

     Band symmetry, C_2v (mm2)  point group:

     e(  1 -  1) =    -21.32525  eV     1   --> A_1  D_1  S_1  
     e(  2 -  2) =     -9.01096  eV     1   --> B_2  D_4  S_4  
     e(  3 -  3) =     -7.02962  eV     1   --> A_1  D_1  S_1  
     e(  4 -  4) =     -6.29274  eV     1   --> B_1  D_3  S_3  
     e(  5 -  5) =      0.84784  eV     1   --> A_1  D_1  S_1  
     e(  6 -  6) =      1.81348  eV     1   --> B_2  D_4  S_4  
     e(  7 -  7) =      2.40872  eV     1   --> A_1  D_1  S_1  
     e(  8 -  8) =      3.20094  eV     1   --> B_2  D_4  S_4  
     e(  9 -  9) =      3.72854  eV     1   --> A_1  D_1  S_1  
     e( 10 - 10) =      5.20921  eV     1   --> B_2  D_4  S_4  
     e( 11 - 11) =      5.85810  eV     1   --> A_1  D_1  S_1  
     e( 12 - 12) =      7.25014  eV     1   --> B_2  D_4  S_4  
     e( 13 - 13) =      7.32990  eV     1   --> A_1  D_1  S_1  
     e( 14 - 14) =      8.72809  eV     1   --> A_1  D_1  S_1  
     e( 15 - 15) =      9.06847  eV     1   --> B_1  D_3  S_3  
     e( 16 - 16) =      9.07590  eV     1   --> B_2  D_4  S_4  

 **************************************************************************

 **************************************************************************

                    xk=(   0.00000,   0.12830,   0.00000  )

     Band symmetry, C_2v (mm2)  point group:

     e(  1 -  1) =    -21.45619  eV     1   --> A_1  D_1  S_1  
     e(  2 -  2) =     -9.18941  eV     1   --> B_2  D_4  S_4  
     e(  3 -  3) =     -6.56572  eV     1   --> A_1  D_1  S_1  
     e(  4 -  4) =     -6.07858  eV     1   --> B_1  D_3  S_3  
     e(  5 -  5) =      0.62570  eV     1   --> A_1  D_1  S_1  
     e(  6 -  6) =      1.60631  eV     1   --> B_2  D_4  S_4  
     e(  7 -  7) =      2.18527  eV     1   --> A_1  D_1  S_1  
     e(  8 -  8) =      2.98804  eV     1   --> B_2  D_4  S_4  
     e(  9 -  9) =      3.50660  eV     1   --> A_1  D_1  S_1  
     e( 10 - 10) =      5.03288  eV     1   --> B_2  D_4  S_4  
     e( 11 - 11) =      5.64807  eV     1   --> A_1  D_1  S_1  
     e( 12 - 12) =      7.32469  eV     1   --> B_2  D_4  S_4  
     e( 13 - 13) =      7.37629  eV     1   --> A_1  D_1  S_1  
     e( 14 - 14) =      8.46355  eV     1   --> A_1  D_1  S_1  
     e( 15 - 15) =      8.53018  eV     1   --> B_1  D_3  S_3  
     e( 16 - 16) =      9.09268  eV     1   --> B_2  D_4  S_4  

 **************************************************************************

 **************************************************************************

                    xk=(   0.00000,   0.09623,   0.00000  )

     Band symmetry, C_2v (mm2)  point group:

     e(  1 -  1) =    -21.55892  eV     1   --> A_1  D_1  S_1  
     e(  2 -  2) =     -9.32954  eV     1   --> B_2  D_4  S_4  
     e(  3 -  3) =     -6.17854  eV     1   --> A_1  D_1  S_1  
     e(  4 -  4) =     -5.89634  eV     1   --> B_1  D_3  S_3  
     e(  5 -  5) =      0.45063  eV     1   --> A_1  D_1  S_1  
     e(  6 -  6) =      1.44363  eV     1   --> B_2  D_4  S_4  
     e(  7 -  7) =      2.01132  eV     1   --> A_1  D_1  S_1  
     e(  8 -  8) =      2.82126  eV     1   --> B_2  D_4  S_4  
     e(  9 -  9) =      3.33282  eV     1   --> A_1  D_1  S_1  
     e( 10 - 10) =      4.88690  eV     1   --> B_2  D_4  S_4  
     e( 11 - 11) =      5.47839  eV     1   --> A_1  D_1  S_1  
     e( 12 - 12) =      7.33694  eV     1   --> B_2  D_4  S_4  
     e( 13 - 13) =      7.42330  eV     1   --> A_1  D_1  S_1  
     e( 14 - 14) =      8.09216  eV     1   --> B_1  D_3  S_3  
     e( 15 - 15) =      8.24886  eV     1   --> A_1  D_1  S_1  
     e( 16 - 16) =      9.15986  eV     1   --> B_2  D_4  S_4  

 **************************************************************************

 **************************************************************************

                    xk=(   0.00000,   0.06415,   0.00000  )

     Band symmetry, C_2v (mm2)  point group:

     e(  1 -  1) =    -21.63266  eV     1   --> A_1  D_1  S_1  
     e(  2 -  2) =     -9.42985  eV     1   --> B_2  D_4  S_4  
     e(  3 -  3) =     -5.88422  eV     1   --> A_1  D_1  S_1  
     e(  4 -  4) =     -5.75670  eV     1   --> B_1  D_3  S_3  
     e(  5 -  5) =      0.32394  eV     1   --> A_1  D_1  S_1  
     e(  6 -  6) =      1.32683  eV     1   --> B_2  D_4  S_4  
     e(  7 -  7) =      1.88695  eV     1   --> A_1  D_1  S_1  
     e(  8 -  8) =      2.70168  eV     1   --> B_2  D_4  S_4  
     e(  9 -  9) =      3.20794  eV     1   --> A_1  D_1  S_1  
     e( 10 - 10) =      4.77942  eV     1   --> B_2  D_4  S_4  
     e( 11 - 11) =      5.35399  eV     1   --> A_1  D_1  S_1  
     e( 12 - 12) =      7.32058  eV     1   --> B_2  D_4  S_4  
     e( 13 - 13) =      7.46412  eV     1   --> A_1  D_1  S_1  
     e( 14 - 14) =      7.76860  eV     1   --> B_1  D_3  S_3  
     e( 15 - 15) =      8.08929  eV     1   --> A_1  D_1  S_1  
     e( 16 - 16) =      9.23431  eV     1   --> B_2  D_4  S_4  

 **************************************************************************

 **************************************************************************

                    xk=(   0.00000,   0.03208,   0.00000  )

     Band symmetry, C_2v (mm2)  point group:

     e(  1 -  1) =    -21.67713  eV     1   --> A_1  D_1  S_1  
     e(  2 -  2) =     -9.49032  eV     1   --> B_2  D_4  S_4  
     e(  3 -  3) =     -5.70064  eV     1   --> A_1  D_1  S_1  
     e(  4 -  4) =     -5.66889  eV     1   --> B_1  D_3  S_3  
     e(  5 -  5) =      0.24706  eV     1   --> A_1  D_1  S_1  
     e(  6 -  6) =      1.25649  eV     1   --> B_2  D_4  S_4  
     e(  7 -  7) =      1.81228  eV     1   --> A_1  D_1  S_1  
     e(  8 -  8) =      2.62973  eV     1   --> B_2  D_4  S_4  
     e(  9 -  9) =      3.13266  eV     1   --> A_1  D_1  S_1  
     e( 10 - 10) =      4.71384  eV     1   --> B_2  D_4  S_4  
     e( 11 - 11) =      5.27800  eV     1   --> A_1  D_1  S_1  
     e( 12 - 12) =      7.30115  eV     1   --> B_2  D_4  S_4  
     e( 13 - 13) =      7.49227  eV     1   --> A_1  D_1  S_1  
     e( 14 - 14) =      7.56914  eV     1   --> B_1  D_3  S_3  
     e( 15 - 15) =      7.99016  eV     1   --> A_1  D_1  S_1  
     e( 16 - 16) =      9.28672  eV     1   --> B_2  D_4  S_4  

 **************************************************************************

 **************************************************************************

                    xk=(   0.00000,   0.00000,   0.00000  )

     point group D_3h (-62m)
     there are  6 classes
     the character table:

       E     2C3   3C2   s_h   2S3   3s_v 
A'_1   1.00  1.00  1.00  1.00  1.00  1.00
A'_2   1.00  1.00 -1.00  1.00  1.00 -1.00
E'     2.00 -1.00  0.00  2.00 -1.00  0.00
A''1   1.00  1.00  1.00 -1.00 -1.00 -1.00
A''2   1.00  1.00 -1.00 -1.00 -1.00  1.00
E''    2.00 -1.00  0.00 -2.00  1.00  0.00

     the symmetry operations in each class and the name of the first element:

     E        1
                                                                 
     2C3      3    4
                                                                 
     3C2      2    6    5
                                                                 
     s_h      7
                                                                 
     2S3      9   10
                                                                 
     3s_v     8   11   12
                                                                 

     Band symmetry, D_3h (-62m) point group:

     e(  1 -  1) =    -21.69205  eV     1   --> A'_1           
     e(  2 -  2) =     -9.51063  eV     1   --> A''2           
     e(  3 -  4) =     -5.63889  eV     2   --> E'             
     e(  5 -  5) =      0.22126  eV     1   --> A'_1           
     e(  6 -  6) =      1.23298  eV     1   --> A''2           
     e(  7 -  7) =      1.78738  eV     1   --> A'_1           
     e(  8 -  8) =      2.60572  eV     1   --> A''2           
     e(  9 -  9) =      3.10749  eV     1   --> A'_1           
     e( 10 - 10) =      4.69179  eV     1   --> A''2           
     e( 11 - 11) =      5.25243  eV     1   --> A'_1           
     e( 12 - 12) =      7.29315  eV     1   --> A''2           
     e( 13 - 14) =      7.50166  eV     2   --> E'             
     e( 15 - 15) =      7.95635  eV     1   --> A'_1           
     e( 16 - 16) =      9.30510  eV     1   --> A''2           

 **************************************************************************

     BANDS        :     59.10s CPU     59.48s WALL


   This run was terminated on:  10: 8: 3   6Apr2024            

=------------------------------------------------------------------------------=
   JOB DONE.
=------------------------------------------------------------------------------=
