
     Program PWSCF v.7.2 starts on 16Apr2024 at 14: 7:53 

     This program is part of the open-source Quantum ESPRESSO suite
     for quantum simulation of materials; please cite
         "P. Giannozzi et al., J. Phys.:Condens. Matter 21 395502 (2009);
         "P. Giannozzi et al., J. Phys.:Condens. Matter 29 465901 (2017);
         "P. Giannozzi et al., J. Chem. Phys. 152 154105 (2020);
          URL http://www.quantum-espresso.org", 
     in publications or presentations arising from this work. More details at
     http://www.quantum-espresso.org/quote

     Parallel version (MPI & OpenMP), running on       8 processor cores
     Number of MPI processes:                 8
     Threads/MPI process:                     1

     MPI processes distributed on     1 nodes
     0 MiB available memory on the printing compute node when the environment starts

     Waiting for input...
     Reading input from standard input
Warning: card $IONS ignored
Warning: card / ignored
Warning: card $CELL ignored
Warning: card / ignored

     Current dimensions of program PWSCF are:
     Max number of different atomic species (ntypx) = 10
     Max number of k-points (npk) =  40000
     Max angular momentum in pseudopotentials (lmaxx) =  4

     Atomic positions and unit cell read from directory:
     ./tmp/hBN_1L_LDA.save/
     Atomic positions from file used, from input discarded


     IMPORTANT: XC functional enforced from input :
     Exchange-correlation= VDW-DF2-B86R
                           (   1   4  26   0   2   0   0)
     Any further DFT definition will be discarded
     Please, verify this is what you really want


     R & G space division:  proc/nbgrp/npool/nimage =       8
     Subspace diagonalization in iterative solution of the eigenvalue problem:
     a serial algorithm will be used


     Parallelization info
     --------------------
     sticks:   dense  smooth     PW     G-vecs:    dense   smooth      PW
     Min          45      45     14                 5687     5687     988
     Max          46      46     16                 5712     5712    1001
     Sum         367     367    121                45625    45625    7963

     Using Slab Decomposition



     bravais-lattice index     =            4
     lattice parameter (alat)  =       4.7160  a.u.
     unit-cell volume          =     726.6780 (a.u.)^3
     number of atoms/cell      =            2
     number of atomic types    =            2
     number of electrons       =         8.00
     number of Kohn-Sham states=           16
     kinetic-energy cutoff     =      60.0000  Ry
     charge density cutoff     =     240.0000  Ry
     Exchange-correlation= VDW-DF2-B86R
                           (   1   4  26   0   2   0   0)

     celldm(1)=   4.716000  celldm(2)=   0.000000  celldm(3)=   8.000000
     celldm(4)=   0.000000  celldm(5)=   0.000000  celldm(6)=   0.000000

     crystal axes: (cart. coord. in units of alat)
               a(1) = (   1.000000   0.000000   0.000000 )  
               a(2) = (  -0.500000   0.866025   0.000000 )  
               a(3) = (   0.000000   0.000000   8.000000 )  

     reciprocal axes: (cart. coord. in units 2 pi/alat)
               b(1) = (  1.000000  0.577350 -0.000000 )  
               b(2) = (  0.000000  1.154701  0.000000 )  
               b(3) = (  0.000000 -0.000000  0.125000 )  


     PseudoPot. # 1 for N  read from file:
     ../../../Pseudo/LDA/N.upf
     MD5 check sum: eaa4f6f5012208d670216a7009287cf2
     Pseudo is Norm-conserving + core correction, Zval =  5.0
     Generated using ONCVPSP code by D. R. Hamann
     Using radial grid of 1054 points,  4 beta functions with: 
                l(1) =   0
                l(2) =   0
                l(3) =   1
                l(4) =   1

     PseudoPot. # 2 for B  read from file:
     ../../../Pseudo/LDA/B.upf
     MD5 check sum: 3e2a19024e57b4f161828f4b68a773bc
     Pseudo is Norm-conserving + core correction, Zval =  3.0
     Generated using ONCVPSP code by D. R. Hamann
     Using radial grid of 1508 points,  4 beta functions with: 
                l(1) =   0
                l(2) =   0
                l(3) =   1
                l(4) =   1

     atomic species   valence    mass     pseudopotential
        N              5.00    14.00670     N ( 1.00)
        B              3.00    10.80100     B ( 1.00)

     12 Sym. Ops. (no inversion) found


                                    s                        frac. trans.

      isym =  1     identity                                     

 cryst.   s( 1) = (     1          0          0      )
                  (     0          1          0      )
                  (     0          0          1      )

 cart.    s( 1) = (  1.0000000  0.0000000  0.0000000 )
                  (  0.0000000  1.0000000  0.0000000 )
                  (  0.0000000  0.0000000  1.0000000 )


      isym =  2     180 deg rotation - cart. axis [0,1,0]        

 cryst.   s( 2) = (    -1          0          0      )
                  (     1          1          0      )
                  (     0          0         -1      )

 cart.    s( 2) = ( -1.0000000  0.0000000  0.0000000 )
                  (  0.0000000  1.0000000  0.0000000 )
                  (  0.0000000  0.0000000 -1.0000000 )


      isym =  3     120 deg rotation - cryst. axis [0,0,1]       

 cryst.   s( 3) = (     0          1          0      )
                  (    -1         -1          0      )
                  (     0          0          1      )

 cart.    s( 3) = ( -0.5000000 -0.8660254  0.0000000 )
                  (  0.8660254 -0.5000000  0.0000000 )
                  (  0.0000000  0.0000000  1.0000000 )


      isym =  4     120 deg rotation - cryst. axis [0,0,-1]      

 cryst.   s( 4) = (    -1         -1          0      )
                  (     1          0          0      )
                  (     0          0          1      )

 cart.    s( 4) = ( -0.5000000  0.8660254  0.0000000 )
                  ( -0.8660254 -0.5000000  0.0000000 )
                  (  0.0000000  0.0000000  1.0000000 )


      isym =  5     180 deg rotation - cryst. axis [1,-1,0]      

 cryst.   s( 5) = (     0         -1          0      )
                  (    -1          0          0      )
                  (     0          0         -1      )

 cart.    s( 5) = (  0.5000000 -0.8660254  0.0000000 )
                  ( -0.8660254 -0.5000000  0.0000000 )
                  (  0.0000000  0.0000000 -1.0000000 )


      isym =  6     180 deg rotation - cryst. axis [2,1,0]       

 cryst.   s( 6) = (     1          1          0      )
                  (     0         -1          0      )
                  (     0          0         -1      )

 cart.    s( 6) = (  0.5000000  0.8660254  0.0000000 )
                  (  0.8660254 -0.5000000  0.0000000 )
                  (  0.0000000  0.0000000 -1.0000000 )


      isym =  7     inv. 180 deg rotation - cart. axis [0,0,1]   

 cryst.   s( 7) = (     1          0          0      )
                  (     0          1          0      )
                  (     0          0         -1      )

 cart.    s( 7) = (  1.0000000  0.0000000  0.0000000 )
                  (  0.0000000  1.0000000  0.0000000 )
                  (  0.0000000  0.0000000 -1.0000000 )


      isym =  8     inv. 180 deg rotation - cart. axis [1,0,0]   

 cryst.   s( 8) = (    -1          0          0      )
                  (     1          1          0      )
                  (     0          0          1      )

 cart.    s( 8) = ( -1.0000000  0.0000000  0.0000000 )
                  (  0.0000000  1.0000000  0.0000000 )
                  (  0.0000000  0.0000000  1.0000000 )


      isym =  9     inv.  60 deg rotation - cryst. axis [0,0,1]  

 cryst.   s( 9) = (    -1         -1          0      )
                  (     1          0          0      )
                  (     0          0         -1      )

 cart.    s( 9) = ( -0.5000000  0.8660254  0.0000000 )
                  ( -0.8660254 -0.5000000  0.0000000 )
                  (  0.0000000  0.0000000 -1.0000000 )


      isym = 10     inv.  60 deg rotation - cryst. axis [0,0,-1] 

 cryst.   s(10) = (     0          1          0      )
                  (    -1         -1          0      )
                  (     0          0         -1      )

 cart.    s(10) = ( -0.5000000 -0.8660254  0.0000000 )
                  (  0.8660254 -0.5000000  0.0000000 )
                  (  0.0000000  0.0000000 -1.0000000 )


      isym = 11     inv. 180 deg rotation - cryst. axis [0,1,0]  

 cryst.   s(11) = (     1          1          0      )
                  (     0         -1          0      )
                  (     0          0          1      )

 cart.    s(11) = (  0.5000000  0.8660254  0.0000000 )
                  (  0.8660254 -0.5000000  0.0000000 )
                  (  0.0000000  0.0000000  1.0000000 )


      isym = 12     inv. 180 deg rotation - cryst. axis [1,1,0]  

 cryst.   s(12) = (     0         -1          0      )
                  (    -1          0          0      )
                  (     0          0          1      )

 cart.    s(12) = (  0.5000000 -0.8660254  0.0000000 )
                  ( -0.8660254 -0.5000000  0.0000000 )
                  (  0.0000000  0.0000000  1.0000000 )


     point group D_3h (-62m)
     there are  6 classes
     the character table:

       E     2C3   3C2   s_h   2S3   3s_v 
A'_1   1.00  1.00  1.00  1.00  1.00  1.00
A'_2   1.00  1.00 -1.00  1.00  1.00 -1.00
E'     2.00 -1.00  0.00  2.00 -1.00  0.00
A''1   1.00  1.00  1.00 -1.00 -1.00 -1.00
A''2   1.00  1.00 -1.00 -1.00 -1.00  1.00
E''    2.00 -1.00  0.00 -2.00  1.00  0.00

     the symmetry operations in each class and the name of the first element:

     E        1
          identity                                               
     2C3      3    4
          120 deg rotation - cryst. axis [0,0,1]                 
     3C2      2    6    5
          180 deg rotation - cart. axis [0,1,0]                  
     s_h      7
          inv. 180 deg rotation - cart. axis [0,0,1]             
     2S3      9   10
          inv.  60 deg rotation - cryst. axis [0,0,1]            
     3s_v     8   11   12
          inv. 180 deg rotation - cart. axis [1,0,0]             

   Cartesian axes

     site n.     atom                  positions (alat units)
         1           B   tau(   1) = (   0.0000000   0.0000000   0.0000000  )
         2           N   tau(   2) = (  -0.0000000   0.5773503   0.0000000  )

   Crystallographic axes

     site n.     atom                  positions (cryst. coord.)
         1           B   tau(   1) = (  0.0000000  0.0000000  0.0000000  )
         2           N   tau(   2) = (  0.3333333  0.6666667  0.0000000  )

     number of k points=    51  Marzari-Vanderbilt smearing, width (Ry)=  0.0050
                       cart. coord. in units 2pi/alat
        k(    1) = (   0.0000000   0.0000000   0.0000000), wk =   0.0392157
        k(    2) = (  -0.0158714   0.0274938   0.0000000), wk =   0.0392157
        k(    3) = (  -0.0317429   0.0549876   0.0000000), wk =   0.0392157
        k(    4) = (  -0.0476143   0.0824814   0.0000000), wk =   0.0392157
        k(    5) = (  -0.0634857   0.1099752   0.0000000), wk =   0.0392157
        k(    6) = (  -0.0793571   0.1374690   0.0000000), wk =   0.0392157
        k(    7) = (  -0.0952286   0.1649628   0.0000000), wk =   0.0392157
        k(    8) = (  -0.1111000   0.1924566   0.0000000), wk =   0.0392157
        k(    9) = (  -0.1269714   0.2199504   0.0000000), wk =   0.0392157
        k(   10) = (  -0.1428429   0.2474442   0.0000000), wk =   0.0392157
        k(   11) = (  -0.1587143   0.2749380   0.0000000), wk =   0.0392157
        k(   12) = (  -0.1745857   0.3024319   0.0000000), wk =   0.0392157
        k(   13) = (  -0.1904571   0.3299257   0.0000000), wk =   0.0392157
        k(   14) = (  -0.2063286   0.3574195   0.0000000), wk =   0.0392157
        k(   15) = (  -0.2222000   0.3849133   0.0000000), wk =   0.0392157
        k(   16) = (  -0.2380714   0.4124071   0.0000000), wk =   0.0392157
        k(   17) = (  -0.2539429   0.4399009   0.0000000), wk =   0.0392157
        k(   18) = (  -0.2698143   0.4673947   0.0000000), wk =   0.0392157
        k(   19) = (  -0.2856857   0.4948885   0.0000000), wk =   0.0392157
        k(   20) = (  -0.3015571   0.5223823   0.0000000), wk =   0.0392157
        k(   21) = (  -0.3174286   0.5498761   0.0000000), wk =   0.0392157
        k(   22) = (  -0.3333000   0.5773699   0.0000000), wk =   0.0392157
        k(   23) = (  -0.3030000   0.5773681   0.0000000), wk =   0.0392157
        k(   24) = (  -0.2727000   0.5773663   0.0000000), wk =   0.0392157
        k(   25) = (  -0.2424000   0.5773645   0.0000000), wk =   0.0392157
        k(   26) = (  -0.2121000   0.5773628   0.0000000), wk =   0.0392157
        k(   27) = (  -0.1818000   0.5773610   0.0000000), wk =   0.0392157
        k(   28) = (  -0.1515000   0.5773592   0.0000000), wk =   0.0392157
        k(   29) = (  -0.1212000   0.5773574   0.0000000), wk =   0.0392157
        k(   30) = (  -0.0909000   0.5773556   0.0000000), wk =   0.0392157
        k(   31) = (  -0.0606000   0.5773538   0.0000000), wk =   0.0392157
        k(   32) = (  -0.0303000   0.5773521   0.0000000), wk =   0.0392157
        k(   33) = (   0.0000000   0.5773503   0.0000000), wk =   0.0392157
        k(   34) = (   0.0000000   0.5452753   0.0000000), wk =   0.0392157
        k(   35) = (   0.0000000   0.5132002   0.0000000), wk =   0.0392157
        k(   36) = (   0.0000000   0.4811252   0.0000000), wk =   0.0392157
        k(   37) = (   0.0000000   0.4490502   0.0000000), wk =   0.0392157
        k(   38) = (   0.0000000   0.4169752   0.0000000), wk =   0.0392157
        k(   39) = (   0.0000000   0.3849002   0.0000000), wk =   0.0392157
        k(   40) = (   0.0000000   0.3528252   0.0000000), wk =   0.0392157
        k(   41) = (   0.0000000   0.3207501   0.0000000), wk =   0.0392157
        k(   42) = (   0.0000000   0.2886751   0.0000000), wk =   0.0392157
        k(   43) = (   0.0000000   0.2566001   0.0000000), wk =   0.0392157
        k(   44) = (   0.0000000   0.2245251   0.0000000), wk =   0.0392157
        k(   45) = (   0.0000000   0.1924501   0.0000000), wk =   0.0392157
        k(   46) = (   0.0000000   0.1603751   0.0000000), wk =   0.0392157
        k(   47) = (   0.0000000   0.1283001   0.0000000), wk =   0.0392157
        k(   48) = (   0.0000000   0.0962250   0.0000000), wk =   0.0392157
        k(   49) = (   0.0000000   0.0641500   0.0000000), wk =   0.0392157
        k(   50) = (   0.0000000   0.0320750   0.0000000), wk =   0.0392157
        k(   51) = (   0.0000000   0.0000000   0.0000000), wk =   0.0392157

                       cryst. coord.
        k(    1) = (   0.0000000   0.0000000   0.0000000), wk =   0.0392157
        k(    2) = (  -0.0158714   0.0317460   0.0000000), wk =   0.0392157
        k(    3) = (  -0.0317429   0.0634921   0.0000000), wk =   0.0392157
        k(    4) = (  -0.0476143   0.0952381   0.0000000), wk =   0.0392157
        k(    5) = (  -0.0634857   0.1269842   0.0000000), wk =   0.0392157
        k(    6) = (  -0.0793571   0.1587302   0.0000000), wk =   0.0392157
        k(    7) = (  -0.0952286   0.1904763   0.0000000), wk =   0.0392157
        k(    8) = (  -0.1111000   0.2222223   0.0000000), wk =   0.0392157
        k(    9) = (  -0.1269714   0.2539684   0.0000000), wk =   0.0392157
        k(   10) = (  -0.1428429   0.2857144   0.0000000), wk =   0.0392157
        k(   11) = (  -0.1587143   0.3174605   0.0000000), wk =   0.0392157
        k(   12) = (  -0.1745857   0.3492065   0.0000000), wk =   0.0392157
        k(   13) = (  -0.1904571   0.3809526   0.0000000), wk =   0.0392157
        k(   14) = (  -0.2063286   0.4126986   0.0000000), wk =   0.0392157
        k(   15) = (  -0.2222000   0.4444447   0.0000000), wk =   0.0392157
        k(   16) = (  -0.2380714   0.4761907   0.0000000), wk =   0.0392157
        k(   17) = (  -0.2539429   0.5079368   0.0000000), wk =   0.0392157
        k(   18) = (  -0.2698143   0.5396828   0.0000000), wk =   0.0392157
        k(   19) = (  -0.2856857   0.5714289   0.0000000), wk =   0.0392157
        k(   20) = (  -0.3015571   0.6031749   0.0000000), wk =   0.0392157
        k(   21) = (  -0.3174286   0.6349210   0.0000000), wk =   0.0392157
        k(   22) = (  -0.3333000   0.6666670   0.0000000), wk =   0.0392157
        k(   23) = (  -0.3030000   0.6515155   0.0000000), wk =   0.0392157
        k(   24) = (  -0.2727000   0.6363639   0.0000000), wk =   0.0392157
        k(   25) = (  -0.2424000   0.6212124   0.0000000), wk =   0.0392157
        k(   26) = (  -0.2121000   0.6060608   0.0000000), wk =   0.0392157
        k(   27) = (  -0.1818000   0.5909093   0.0000000), wk =   0.0392157
        k(   28) = (  -0.1515000   0.5757577   0.0000000), wk =   0.0392157
        k(   29) = (  -0.1212000   0.5606062   0.0000000), wk =   0.0392157
        k(   30) = (  -0.0909000   0.5454546   0.0000000), wk =   0.0392157
        k(   31) = (  -0.0606000   0.5303031   0.0000000), wk =   0.0392157
        k(   32) = (  -0.0303000   0.5151515   0.0000000), wk =   0.0392157
        k(   33) = (   0.0000000   0.5000000   0.0000000), wk =   0.0392157
        k(   34) = (   0.0000000   0.4722222   0.0000000), wk =   0.0392157
        k(   35) = (   0.0000000   0.4444444   0.0000000), wk =   0.0392157
        k(   36) = (   0.0000000   0.4166667   0.0000000), wk =   0.0392157
        k(   37) = (   0.0000000   0.3888889   0.0000000), wk =   0.0392157
        k(   38) = (   0.0000000   0.3611111   0.0000000), wk =   0.0392157
        k(   39) = (   0.0000000   0.3333333   0.0000000), wk =   0.0392157
        k(   40) = (   0.0000000   0.3055556   0.0000000), wk =   0.0392157
        k(   41) = (   0.0000000   0.2777778   0.0000000), wk =   0.0392157
        k(   42) = (   0.0000000   0.2500000   0.0000000), wk =   0.0392157
        k(   43) = (   0.0000000   0.2222222   0.0000000), wk =   0.0392157
        k(   44) = (   0.0000000   0.1944444   0.0000000), wk =   0.0392157
        k(   45) = (   0.0000000   0.1666667   0.0000000), wk =   0.0392157
        k(   46) = (   0.0000000   0.1388889   0.0000000), wk =   0.0392157
        k(   47) = (   0.0000000   0.1111111   0.0000000), wk =   0.0392157
        k(   48) = (   0.0000000   0.0833333   0.0000000), wk =   0.0392157
        k(   49) = (   0.0000000   0.0555556   0.0000000), wk =   0.0392157
        k(   50) = (   0.0000000   0.0277778   0.0000000), wk =   0.0392157
        k(   51) = (   0.0000000   0.0000000   0.0000000), wk =   0.0392157

     Dense  grid:    45625 G-vectors     FFT dimensions: (  24,  24, 192)

     Dynamical RAM for                 wfc:       0.17 MB

     Dynamical RAM for     wfc (w. buffer):       0.17 MB

     Dynamical RAM for           str. fact:       0.17 MB

     Dynamical RAM for           local pot:       0.00 MB

     Dynamical RAM for          nlocal pot:       0.17 MB

     Dynamical RAM for                qrad:       0.71 MB

     Dynamical RAM for          rho,v,vnew:       0.58 MB

     Dynamical RAM for           G-vectors:       0.37 MB

     Dynamical RAM for          h,s,v(r/c):       0.05 MB

     Dynamical RAM for          <psi|beta>:       0.00 MB

     Dynamical RAM for                 psi:       0.35 MB

     Dynamical RAM for                hpsi:       0.35 MB

     Dynamical RAM for      wfcinit/wfcrot:       0.35 MB

     Estimated static dynamical RAM per process >       2.97 MB

     Estimated max dynamical RAM per process >       3.71 MB

     Estimated total dynamical RAM >      29.70 MB

     The potential is recalculated from file :
     ./tmp/hBN_1L_LDA.save/charge-density



     %%%%%%%%%%%%%%%%%%%%%%%%%%%%%%%%%%%%%%%%%%%%%%%%%%%%%%%%%%%%%%%%%%%%%%%%
     %                                                                      %
     % You are using vdW-DF, which was implemented by the Thonhauser group. %
     % Please cite the following two papers that made this development      %
     % possible and the two reviews that describe the various versions:     %
     %                                                                      %
     %   T. Thonhauser et al., PRL 115, 136402 (2015).                      %
     %   T. Thonhauser et al., PRB 76, 125112 (2007).                       %
     %   K. Berland et al., Rep. Prog. Phys. 78, 066501 (2015).             %
     %   D.C. Langreth et al., J. Phys.: Condens. Matter 21, 084203 (2009). %
     %                                                                      %
     % If you are calculating stress with vdW-DF, please also cite:         %
     %                                                                      %
     %   R. Sabatini et al., J. Phys.: Condens. Matter 24, 424209 (2012).   %
     %                                                                      %
     %%%%%%%%%%%%%%%%%%%%%%%%%%%%%%%%%%%%%%%%%%%%%%%%%%%%%%%%%%%%%%%%%%%%%%%%

     %%%%%%%%%%%%%%%%%%%%%%%%%%%%%%%%%%%%%%%%%%%%%%%%%%%%%%%%%%%%%%%%%%%%%%%%
     %                                                                      %
     %  vdW-DF NEWS:                                                        %
     %                                                                      %
     %  * vdW-DF3 is now available. DOI: 10.1021/acs.jctc.0c00471           %
     %    use with input_dft = 'vdW-DF3-opt1' or 'vdW-DF3-opt2'             %
     %                                                                      %
     %  * Unscreened and range-separated hybrid vdW-DF-cx functionals       %
     %    DOI: 10.1063/1.4986522 and 10.1088/1361-648X/ac2ad2               %
     %    use with input_dft = 'vdW-DF-cx0'    and 'vdW-DF-ahcx'            %
     %  * Unscreened and range-separated hybrid vdW-DF2-b86r functionals    %
     %    DOI: 10.1063/1.4986522 and DOI: 10.1103/PhysRevX.12.041003        %
     %    use with input_dft = 'vdW-DF2-br0' and 'vdW-DF2-ahbr'             %
     %                                                                      %
     %%%%%%%%%%%%%%%%%%%%%%%%%%%%%%%%%%%%%%%%%%%%%%%%%%%%%%%%%%%%%%%%%%%%%%%%


     Carrying out vdW-DF run using the following parameters:
     Nqs    =  20  Npoints =  1024  r_max =  100.000
     q_mesh =  0.00001000  0.04494208  0.09755937  0.15916263
               0.23128650  0.31572767  0.41458969  0.53033537
               0.66584808  0.82450364  1.01025438  1.22772762
               1.48234092  1.78043706  2.12944203  2.53805004
               3.01644009  3.57652955  4.23227104  5.00000000


     -----------------------------------------------
     Non-local corr. energy    =       0.10728068 Ry
     -----------------------------------------------

     Starting wfcs are    8 randomized atomic wfcs +    8 random wfcs

     Band Structure Calculation
     Davidson diagonalization with overlap

     Computing kpt #:     1  of    51
     total cpu time spent up to now is       10.7 secs

     Computing kpt #:     2  of    51
     total cpu time spent up to now is       10.8 secs

     Computing kpt #:     3  of    51
     total cpu time spent up to now is       11.1 secs

     Computing kpt #:     4  of    51
     total cpu time spent up to now is       11.3 secs

     Computing kpt #:     5  of    51
     total cpu time spent up to now is       11.5 secs

     Computing kpt #:     6  of    51
     total cpu time spent up to now is       11.7 secs

     Computing kpt #:     7  of    51
     total cpu time spent up to now is       11.9 secs

     Computing kpt #:     8  of    51
     total cpu time spent up to now is       12.1 secs

     Computing kpt #:     9  of    51
     total cpu time spent up to now is       12.3 secs

     Computing kpt #:    10  of    51
     total cpu time spent up to now is       12.5 secs

     Computing kpt #:    11  of    51
     total cpu time spent up to now is       12.8 secs

     Computing kpt #:    12  of    51
     total cpu time spent up to now is       13.0 secs

     Computing kpt #:    13  of    51
     total cpu time spent up to now is       13.2 secs

     Computing kpt #:    14  of    51
     total cpu time spent up to now is       13.4 secs

     Computing kpt #:    15  of    51
     total cpu time spent up to now is       13.6 secs

     Computing kpt #:    16  of    51
     total cpu time spent up to now is       13.9 secs

     Computing kpt #:    17  of    51
     total cpu time spent up to now is       14.3 secs

     Computing kpt #:    18  of    51
     total cpu time spent up to now is       14.6 secs

     Computing kpt #:    19  of    51
     total cpu time spent up to now is       15.1 secs

     Computing kpt #:    20  of    51
     total cpu time spent up to now is       15.6 secs

     Computing kpt #:    21  of    51
     total cpu time spent up to now is       16.0 secs

     Computing kpt #:    22  of    51
     total cpu time spent up to now is       16.4 secs

     Computing kpt #:    23  of    51
     total cpu time spent up to now is       16.8 secs

     Computing kpt #:    24  of    51
     total cpu time spent up to now is       17.1 secs

     Computing kpt #:    25  of    51
     total cpu time spent up to now is       17.5 secs

     Computing kpt #:    26  of    51
     total cpu time spent up to now is       17.9 secs

     Computing kpt #:    27  of    51
     total cpu time spent up to now is       18.2 secs

     Computing kpt #:    28  of    51
     total cpu time spent up to now is       18.6 secs

     Computing kpt #:    29  of    51
     total cpu time spent up to now is       18.9 secs

     Computing kpt #:    30  of    51
     total cpu time spent up to now is       19.2 secs

     Computing kpt #:    31  of    51
     total cpu time spent up to now is       19.5 secs

     Computing kpt #:    32  of    51
     total cpu time spent up to now is       19.8 secs

     Computing kpt #:    33  of    51
     total cpu time spent up to now is       20.2 secs

     Computing kpt #:    34  of    51
     total cpu time spent up to now is       20.5 secs

     Computing kpt #:    35  of    51
     total cpu time spent up to now is       20.8 secs

     Computing kpt #:    36  of    51
     total cpu time spent up to now is       21.0 secs

     Computing kpt #:    37  of    51
     total cpu time spent up to now is       21.3 secs

     Computing kpt #:    38  of    51
     total cpu time spent up to now is       21.5 secs

     Computing kpt #:    39  of    51
     total cpu time spent up to now is       21.8 secs

     Computing kpt #:    40  of    51
     total cpu time spent up to now is       21.9 secs

     Computing kpt #:    41  of    51
     total cpu time spent up to now is       22.1 secs

     Computing kpt #:    42  of    51
     total cpu time spent up to now is       22.3 secs

     Computing kpt #:    43  of    51
     total cpu time spent up to now is       22.5 secs

     Computing kpt #:    44  of    51
     total cpu time spent up to now is       22.6 secs

     Computing kpt #:    45  of    51
     total cpu time spent up to now is       22.8 secs

     Computing kpt #:    46  of    51
     total cpu time spent up to now is       23.0 secs

     Computing kpt #:    47  of    51
     total cpu time spent up to now is       23.2 secs

     Computing kpt #:    48  of    51
     total cpu time spent up to now is       23.4 secs

     Computing kpt #:    49  of    51
     total cpu time spent up to now is       23.6 secs

     Computing kpt #:    50  of    51
     total cpu time spent up to now is       23.8 secs

     Computing kpt #:    51  of    51
     total cpu time spent up to now is       23.9 secs

     ethr =  1.25E-08,  avg # of iterations = 36.5

     total cpu time spent up to now is       23.9 secs

     End of band structure calculation

          k = 0.0000 0.0000 0.0000 (  5691 PWs)   bands (ev):

   -21.6917  -9.5104  -5.6384  -5.6384   0.2213   1.2330   1.7874   2.6057
     3.1075   4.6918   5.2525   7.2933   7.5017   7.5017   7.9564   9.3052

          k =-0.0159 0.0275 0.0000 (  5675 PWs)   bands (ev):

   -21.6771  -9.4905  -5.6990  -5.6680   0.2466   1.2560   1.8118   2.6293
     3.1321   4.7134   5.2775   7.3011   7.4931   7.5670   7.9896   9.2872

          k =-0.0317 0.0550 0.0000 (  5667 PWs)   bands (ev):

   -21.6335  -9.4313  -5.8770  -5.7557   0.3219   1.3249   1.8849   2.6997
     3.2059   4.7777   5.3520   7.3203   7.4735   7.7492   8.0913   9.2358

          k =-0.0476 0.0825 0.0000 (  5671 PWs)   bands (ev):

   -21.5612  -9.3329  -6.1590  -5.9002   0.4461   1.4394   2.0068   2.8169
     3.3283   4.8831   5.4746   7.3370   7.4603   7.9939   8.2914   9.1625

          k =-0.0635 0.1100 0.0000 (  5679 PWs)   bands (ev):

   -21.4606  -9.1959  -6.5251  -6.0964   0.6181   1.5987   2.1772   2.9803
     3.4989   5.0263   5.6439   7.3269   7.4661   8.2190   8.6405   9.0955

          k =-0.0794 0.1375 0.0000 (  5683 PWs)   bands (ev):

   -21.3323  -9.0209  -6.9544  -6.3390   0.8367   1.8019   2.3962   3.1890
     3.7173   5.2000   5.8587   7.2584   7.5022   8.4335   9.0764   9.0938

          k =-0.0952 0.1650 0.0000 (  5680 PWs)   bands (ev):

   -21.1770  -8.8087  -7.4283  -6.6213   1.1014   2.0467   2.6637   3.4412
     3.9831   5.3872   6.1186   7.1212   7.5748   8.6652   9.1436   9.5844

          k =-0.1111 0.1925 0.0000 (  5680 PWs)   bands (ev):

   -20.9959  -8.5605  -7.9303  -6.9363   1.4120   2.3293   2.9796   3.7330
     4.2963   5.5446   6.4227   6.9640   7.6885   8.9207   9.3081  10.0708

          k =-0.1270 0.2200 0.0000 (  5676 PWs)   bands (ev):

   -20.7904  -8.4458  -8.2784  -7.2773   1.7681   2.6410   3.3440   4.0544
     4.6566   5.5864   6.7707   6.9136   7.8451   9.1991   9.5583  10.5342

          k =-0.1428 0.2474 0.0000 (  5678 PWs)   bands (ev):

   -20.5625  -8.9635  -7.9647  -7.6368   2.1697   2.9605   3.7569   4.3737
     5.0639   5.4901   7.0717   7.1615   8.0437   9.4966   9.8768  10.9777

          k =-0.1587 0.2749 0.0000 (  5694 PWs)   bands (ev):

   -20.3145  -9.4739  -8.0083  -7.6216   2.6164   3.2285   4.2181   4.5996
     5.4714   5.5179   7.3962   7.5935   8.2808   9.8076  10.2472  11.4169

          k =-0.1746 0.3024 0.0000 (  5704 PWs)   bands (ev):

   -20.0498  -9.9669  -8.3857  -7.2533   3.1079   3.3036   4.7278   4.7401
     5.7468   6.0182   7.8193   8.0644   8.5519  10.1279  10.6502  11.8694

          k =-0.1905 0.3299 0.0000 (  5710 PWs)   bands (ev):

   -19.7722 -10.4343  -8.7632  -6.8642   3.0930   3.6436   5.0384   5.2858
     6.2106   6.5641   8.3053   8.5698   8.8487  10.4563  11.0505  12.3491

          k =-0.2063 0.3574 0.0000 (  5710 PWs)   bands (ev):

   -19.4871 -10.8680  -9.1362  -6.4600   2.7138   4.2226   5.4994   5.8920
     6.7628   7.1544   8.8320   9.0894   9.1723  10.7979  11.3625  12.8642

          k =-0.2222 0.3849 0.0000 (  5714 PWs)   bands (ev):

   -19.2016 -11.2589  -9.5002  -6.0498   2.2809   4.8435   6.0493   6.5462
     7.3710   7.7867   9.3689   9.4415   9.6770  11.1660  11.4500  13.2234

          k =-0.2381 0.4124 0.0000 (  5710 PWs)   bands (ev):

   -18.9240 -11.5971  -9.8512  -5.6443   1.8494   5.5038   6.6455   7.2482
     8.0178   8.4552   9.7162   9.8424  10.2380  11.4012  11.5796  13.5742

          k =-0.2539 0.4399 0.0000 (  5724 PWs)   bands (ev):

   -18.6652 -11.8722 -10.1859  -5.2577   1.4493   6.1995   7.2482   7.9972
     8.6767   9.1401   9.9551  10.1199  10.7818  11.5717  12.0509  14.0442

          k =-0.2698 0.4674 0.0000 (  5718 PWs)   bands (ev):

   -18.4369 -12.0738 -10.4996  -4.9078   1.1025   6.9230   7.7826   8.7908
     9.2844   9.7323  10.2506  10.3176  11.2587  12.0702  12.5576  13.6560

          k =-0.2857 0.4949 0.0000 (  5708 PWs)   bands (ev):

   -18.2511 -12.1944 -10.7868  -4.6138   0.8272   7.6578   8.1157   9.6092
     9.8099   9.9963  10.7880  10.8221  11.5705  12.6972  12.9539  13.5364

          k =-0.3016 0.5224 0.0000 (  5710 PWs)   bands (ev):

   -18.1173 -12.2350 -11.0372  -4.3961   0.6356   8.2018   8.3611   9.9937
    10.4172  10.5602  11.2110  11.5011  11.8700  12.8493  13.1848  13.3720

          k =-0.3174 0.5499 0.0000 (  5710 PWs)   bands (ev):

   -18.0395 -12.2144 -11.2281  -4.2668   0.5302   8.1747   8.9073  10.1029
    10.9642  11.1188  11.5030  12.1766  12.4906  12.5145  12.9198  13.0228

          k =-0.3333 0.5774 0.0000 (  5694 PWs)   bands (ev):

   -18.0152 -12.1889 -11.3078  -4.2256   0.5002   8.1517   9.0916  10.2765
    10.7407  11.5863  12.0387  12.3710  12.4578  12.5101  12.6626  13.0047

          k =-0.3030 0.5774 0.0000 (  5692 PWs)   bands (ev):

   -18.0342 -12.2276 -11.2236  -4.2574   0.5194   8.1810   8.9899  10.0455
    10.9069  11.3154  11.9482  11.9837  12.0405  12.7219  12.7942  12.9449

          k =-0.2727 0.5774 0.0000 (  5700 PWs)   bands (ev):

   -18.0841 -12.3305 -10.9951  -4.3394   0.5608   8.2717   8.7660   9.6883
    10.8843  10.9489  11.5848  11.6456  11.6600  12.3922  12.5331  12.7733

          k =-0.2424 0.5774 0.0000 (  5690 PWs)   bands (ev):

   -18.1543 -12.4590 -10.6765  -4.4520   0.6039   8.4121   8.4720   9.3431
    10.5628  10.6107  11.2166  11.2812  11.3762  12.0372  12.2346  12.5333

          k =-0.2121 0.5774 0.0000 (  5684 PWs)   bands (ev):

   -18.2350 -12.5889 -10.3100  -4.5791   0.6359   8.1182   8.5723   9.0332
    10.1258  10.3138  10.8895  10.9471  11.1379  11.7206  11.9583  12.2879

          k =-0.1818 0.5774 0.0000 (  5682 PWs)   bands (ev):

   -18.3183 -12.7089  -9.9251  -4.7075   0.6526   7.7086   8.7117   8.7674
     9.6952  10.0616  10.6057  10.6550  10.9506  11.4476  11.7147  12.0075

          k =-0.1515 0.5774 0.0000 (  5688 PWs)   bands (ev):

   -18.3977 -12.8141  -9.5448  -4.8280   0.6549   7.2631   8.5470   8.7982
     9.3280   9.8540  10.3655  10.4083  10.8048  11.2193  11.5055  11.7673

          k =-0.1212 0.5774 0.0000 (  5708 PWs)   bands (ev):

   -18.4684 -12.9021  -9.1915  -4.9342   0.6471   6.8184   8.3699   8.8259
     9.0396   9.6887  10.1689  10.2070  10.6861  11.0355  11.3323  11.5699

          k =-0.0909 0.5774 0.0000 (  5714 PWs)   bands (ev):

   -18.5266 -12.9714  -8.8862  -5.0206   0.6344   6.4185   8.2340   8.8139
     8.8263   9.5626  10.0159  10.0507  10.5878  10.8947  11.1962  11.4161

          k =-0.0606 0.5774 0.0000 (  5714 PWs)   bands (ev):

   -18.5698 -13.0213  -8.6495  -5.0841   0.6218   6.1023   8.1376   8.6801
     8.7872   9.4734   9.9066   9.9393  10.5123  10.7953  11.0984  11.3062

          k =-0.0303 0.5774 0.0000 (  5722 PWs)   bands (ev):

   -18.5965 -13.0514  -8.4994  -5.1230   0.6128   5.8999   8.0799   8.5948
     8.7644   9.4199   9.8410   9.8724  10.4646  10.7360  11.0394  11.2402

          k = 0.0000 0.5774 0.0000 (  5708 PWs)   bands (ev):

   -18.6054 -13.0614  -8.4473  -5.1361   0.6096   5.8303   8.0607   8.5667
     8.7557   9.4021   9.8191   9.8502  10.4484  10.7163  11.0198  11.2182

          k = 0.0000 0.5453 0.0000 (  5714 PWs)   bands (ev):

   -18.6508 -12.9915  -8.4314  -5.2075   0.7012   5.7777   7.5865   8.2442
     8.9470   9.1417   9.6013  10.0864  10.2926  10.7485  11.3645  11.8503

          k = 0.0000 0.5132 0.0000 (  5732 PWs)   bands (ev):

   -18.7798 -12.7892  -8.3839  -5.4075   0.9602   5.5900   7.0649   7.5271
     8.1579   8.9112   9.4410   9.9763  10.5771  11.2292  11.6071  11.7466

          k = 0.0000 0.4811 0.0000 (  5734 PWs)   bands (ev):

   -18.9744 -12.4732  -8.3042  -5.7028   1.3487   5.2238   6.7242   6.8292
     7.4076   8.1826   8.7448  10.1915  10.5818  11.1204  11.6879  12.7093

          k = 0.0000 0.4491 0.0000 (  5740 PWs)   bands (ev):

   -19.2138 -12.0658  -8.1948  -6.0570   1.8211   4.7241   6.1755   6.4659
     6.7797   7.4948   8.0753   9.5675  10.1697  11.6114  12.0142  13.0295

          k = 0.0000 0.4170 0.0000 (  5734 PWs)   bands (ev):

   -19.4785 -11.5884  -8.0561  -6.4408   2.3296   4.1776   5.5817   5.9426
     6.5176   6.8573   7.4867   8.9598   9.5611  11.6908  11.9577  12.9678

          k = 0.0000 0.3849 0.0000 (  5720 PWs)   bands (ev):

   -19.7534 -11.0591  -7.8902  -6.8333   2.8126   3.6345   5.0745   5.3446
     6.2794   6.3098   7.0543   8.3936   8.9847  11.2175  11.6495  13.1804

          k = 0.0000 0.3528 0.0000 (  5722 PWs)   bands (ev):

   -20.0275 -10.4936  -7.6999  -7.2196   3.1163   3.1581   4.7177   4.7817
     5.7836   5.9485   6.8518   7.8806   8.4588  10.7455  11.1648  13.2103

          k = 0.0000 0.3208 0.0000 (  5702 PWs)   bands (ev):

   -20.2924  -9.9039  -7.5895  -7.4883   2.6330   3.2011   4.2646   4.5653
     5.4508   5.5090   6.7746   7.4349   7.9975  10.3066  10.6760  12.7800

          k = 0.0000 0.2887 0.0000 (  5688 PWs)   bands (ev):

   -20.5424  -9.3025  -7.9361  -7.2596   2.1893   2.9761   3.7955   4.3847
     5.0750   5.4308   6.7064   7.0865   7.6272   9.9150  10.2125  11.9504

          k = 0.0000 0.2566 0.0000 (  5678 PWs)   bands (ev):

   -20.7734  -8.7016  -8.2547  -7.0184   1.7876   2.6638   3.3751   4.0777
     4.6736   5.5548   6.5722   6.9016   7.3926   9.5822   9.7828  11.1499

          k = 0.0000 0.2245 0.0000 (  5672 PWs)   bands (ev):

   -20.9821  -8.5418  -8.1128  -6.7718   1.4296   2.3499   3.0037   3.7545
     4.3134   5.5442   6.3526   6.9389   7.3020   9.3213   9.3906  10.3929

          k = 0.0000 0.1925 0.0000 (  5662 PWs)   bands (ev):

   -21.1665  -8.7943  -7.5502  -6.5266   1.1161   2.0630   2.6816   3.4580
     3.9978   5.3967   6.0997   7.1030   7.2975   9.0382   9.1486   9.6944

          k = 0.0000 0.1604 0.0000 (  5672 PWs)   bands (ev):

   -21.3249  -9.0107  -7.0292  -6.2923   0.8479   1.8135   2.4087   3.2010
     3.7285   5.2093   5.8581   7.2503   7.3300   8.7282   9.0686   9.0759

          k = 0.0000 0.1283 0.0000 (  5658 PWs)   bands (ev):

   -21.4558  -9.1891  -6.5653  -6.0781   0.6257   1.6063   2.1853   2.9881
     3.5066   5.0329   5.6481   7.3249   7.3764   8.4636   8.5303   9.0927

          k = 0.0000 0.0962 0.0000 (  5672 PWs)   bands (ev):

   -21.5585  -9.3293  -6.1781  -5.8959   0.4507   1.4437   2.0113   2.8213
     3.3328   4.8869   5.4784   7.3371   7.4234   8.0922   8.2489   9.1599

          k = 0.0000 0.0642 0.0000 (  5662 PWs)   bands (ev):

   -21.6323  -9.4296  -5.8837  -5.7562   0.3240   1.3269   1.8869   2.7017
     3.2079   4.7795   5.3540   7.3207   7.4642   7.7687   8.0894   9.2344

          k = 0.0000 0.0321 0.0000 (  5671 PWs)   bands (ev):

   -21.6768  -9.4900  -5.7002  -5.6684   0.2471   1.2565   1.8123   2.6297
     3.1327   4.7139   5.2780   7.3013   7.4923   7.5692   7.9902   9.2868

          k = 0.0000 0.0000 0.0000 (  5691 PWs)   bands (ev):

   -21.6917  -9.5104  -5.6384  -5.6384   0.2213   1.2330   1.7874   2.6057
     3.1075   4.6918   5.2525   7.2933   7.5017   7.5017   7.9564   9.3052

     Writing all to output data dir ./tmp/hBN_1L_LDA.save/

     init_run     :     10.13s CPU     10.34s WALL (       1 calls)
     electrons    :     13.40s CPU     13.50s WALL (       1 calls)

     Called by init_run:
     wfcinit      :      0.00s CPU      0.00s WALL (       1 calls)
     wfcinit:atom :      0.01s CPU      0.01s WALL (      51 calls)
     wfcinit:wfcr :      0.42s CPU      0.44s WALL (      51 calls)
     potinit      :      9.75s CPU      9.95s WALL (       1 calls)
     hinit0       :      0.35s CPU      0.36s WALL (       1 calls)

     Called by electrons:
     c_bands      :     13.40s CPU     13.50s WALL (       1 calls)
     v_of_rho     :      9.75s CPU      9.94s WALL (       1 calls)
     v_h          :      0.00s CPU      0.00s WALL (       1 calls)
     v_xc         :      9.74s CPU      9.94s WALL (       1 calls)
     vdW_kernel   :      9.69s CPU      9.88s WALL (       1 calls)

     Called by c_bands:
     init_us_2    :      0.01s CPU      0.01s WALL (      51 calls)
     init_us_2:cp :      0.01s CPU      0.01s WALL (      51 calls)
     cegterg      :     12.92s CPU     13.00s WALL (     121 calls)

     Called by sum_band:

     Called by *egterg:
     cdiaghg      :      0.71s CPU      0.73s WALL (    1914 calls)
     cegterg:over :      1.06s CPU      1.08s WALL (    1863 calls)
     cegterg:upda :      0.75s CPU      0.68s WALL (    1863 calls)
     cegterg:last :      1.33s CPU      1.00s WALL (    1247 calls)
     h_psi        :      9.03s CPU      9.42s WALL (    2035 calls)
     g_psi        :      0.08s CPU      0.11s WALL (    1863 calls)

     Called by h_psi:
     h_psi:calbec :      0.38s CPU      0.40s WALL (    2035 calls)
     vloc_psi     :      8.18s CPU      8.54s WALL (    2035 calls)
     add_vuspsi   :      0.40s CPU      0.41s WALL (    2035 calls)

     General routines
     calbec       :      0.38s CPU      0.39s WALL (    2035 calls)
     fft          :      0.29s CPU      0.29s WALL (      61 calls)
     fftw         :      7.40s CPU      7.69s WALL (   37878 calls)
     davcio       :      0.00s CPU      0.01s WALL (     102 calls)

     Parallel routines

     PWSCF        :     23.73s CPU     24.13s WALL


   This run was terminated on:  14: 8:17  16Apr2024            

=------------------------------------------------------------------------------=
   JOB DONE.
=------------------------------------------------------------------------------=
