
     Program BANDS v.7.2 starts on 14Apr2024 at 16:25: 1 

     This program is part of the open-source Quantum ESPRESSO suite
     for quantum simulation of materials; please cite
         "P. Giannozzi et al., J. Phys.:Condens. Matter 21 395502 (2009);
         "P. Giannozzi et al., J. Phys.:Condens. Matter 29 465901 (2017);
         "P. Giannozzi et al., J. Chem. Phys. 152 154105 (2020);
          URL http://www.quantum-espresso.org", 
     in publications or presentations arising from this work. More details at
     http://www.quantum-espresso.org/quote

     Parallel version (MPI & OpenMP), running on       8 processor cores
     Number of MPI processes:                 8
     Threads/MPI process:                     1

     MPI processes distributed on     1 nodes
     R & G space division:  proc/nbgrp/npool/nimage =       8
     0 MiB available memory on the printing compute node when the environment starts


     Reading xml data from directory:

     ./tmp/C2L_AA_PBE_vdW.save/

     IMPORTANT: XC functional enforced from input :
     Exchange-correlation= VDW-DF2-B86R
                           (   1   4  26   0   2   0   0)
     Any further DFT definition will be discarded
     Please, verify this is what you really want


     Parallelization info
     --------------------
     sticks:   dense  smooth     PW     G-vecs:    dense   smooth      PW
     Min          45      45     13                 5519     5519     941
     Max          46      46     14                 5546     5546     968
     Sum         361     361    109                44285    44285    7663

     Using Slab Decomposition



     %%%%%%%%%%%%%%%%%%%%%%%%%%%%%%%%%%%%%%%%%%%%%%%%%%%%%%%%%%%%%%%%%%%%%%%%
     %                                                                      %
     % You are using vdW-DF, which was implemented by the Thonhauser group. %
     % Please cite the following two papers that made this development      %
     % possible and the two reviews that describe the various versions:     %
     %                                                                      %
     %   T. Thonhauser et al., PRL 115, 136402 (2015).                      %
     %   T. Thonhauser et al., PRB 76, 125112 (2007).                       %
     %   K. Berland et al., Rep. Prog. Phys. 78, 066501 (2015).             %
     %   D.C. Langreth et al., J. Phys.: Condens. Matter 21, 084203 (2009). %
     %                                                                      %
     % If you are calculating stress with vdW-DF, please also cite:         %
     %                                                                      %
     %   R. Sabatini et al., J. Phys.: Condens. Matter 24, 424209 (2012).   %
     %                                                                      %
     %%%%%%%%%%%%%%%%%%%%%%%%%%%%%%%%%%%%%%%%%%%%%%%%%%%%%%%%%%%%%%%%%%%%%%%%

     %%%%%%%%%%%%%%%%%%%%%%%%%%%%%%%%%%%%%%%%%%%%%%%%%%%%%%%%%%%%%%%%%%%%%%%%
     %                                                                      %
     %  vdW-DF NEWS:                                                        %
     %                                                                      %
     %  * vdW-DF3 is now available. DOI: 10.1021/acs.jctc.0c00471           %
     %    use with input_dft = 'vdW-DF3-opt1' or 'vdW-DF3-opt2'             %
     %                                                                      %
     %  * Unscreened and range-separated hybrid vdW-DF-cx functionals       %
     %    DOI: 10.1063/1.4986522 and 10.1088/1361-648X/ac2ad2               %
     %    use with input_dft = 'vdW-DF-cx0'    and 'vdW-DF-ahcx'            %
     %  * Unscreened and range-separated hybrid vdW-DF2-b86r functionals    %
     %    DOI: 10.1063/1.4986522 and DOI: 10.1103/PhysRevX.12.041003        %
     %    use with input_dft = 'vdW-DF2-br0' and 'vdW-DF2-ahbr'             %
     %                                                                      %
     %%%%%%%%%%%%%%%%%%%%%%%%%%%%%%%%%%%%%%%%%%%%%%%%%%%%%%%%%%%%%%%%%%%%%%%%


     Reading collected, re-writing distributed wavefunctions
     high-symmetry point:  0.0000 0.0000 0.0000   x coordinate   0.0000
     high-symmetry point: -0.3333 0.5774 0.0000   x coordinate   0.6667
     high-symmetry point:  0.0000 0.5774 0.0000   x coordinate   1.0000
     high-symmetry point:  0.0000 0.0000 0.0000   x coordinate   1.5773

     Plottable bands (eV) written to file Bande_C2L_AA_PBE_vdW.dat.gnu
     Bands written to file Bande_C2L_AA_PBE_vdW.dat

 **************************************************************************

                    xk=(   0.00000,   0.00000,   0.00000  )

     point group C_6v (6mm) 
     there are  6 classes
     the character table:

       E     2C6   2C3   C2    3s_v  3s_d 
A_1    1.00  1.00  1.00  1.00  1.00  1.00
A_2    1.00  1.00  1.00  1.00 -1.00 -1.00
B_1    1.00 -1.00  1.00 -1.00  1.00 -1.00
B_2    1.00 -1.00  1.00 -1.00 -1.00  1.00
E_1    2.00  1.00 -1.00 -2.00  0.00  0.00
E_2    2.00 -1.00 -1.00  2.00  0.00  0.00

     the symmetry operations in each class and the name of the first element:

     E        1
                                                                 
     2C6      3    4
                                                                 
     2C3      5    6
                                                                 
     C2       2
                                                                 
     3s_v     8   12   11
                                                                 
     3s_d     7    9   10
                                                                 

     Band symmetry, C_6v (6mm)  point group:

     e(  1 -  1) =    -20.11691  eV     1   --> A_1            
     e(  2 -  2) =    -20.00117  eV     1   --> A_1            
     e(  3 -  3) =     -8.60634  eV     1   --> A_1            
     e(  4 -  4) =     -7.76719  eV     1   --> A_1            
     e(  5 -  6) =     -3.63407  eV     2   --> E_2            
     e(  7 -  8) =     -3.62385  eV     2   --> E_2            
     e(  9 -  9) =      2.51677  eV     1   --> A_1            
     e( 10 - 10) =      2.96927  eV     1   --> A_1            
     e( 11 - 11) =      4.03967  eV     1   --> A_1            
     e( 12 - 12) =      5.22557  eV     1   --> A_1            
     e( 13 - 13) =      5.38536  eV     1   --> A_1            
     e( 14 - 14) =      7.28185  eV     1   --> A_1            
     e( 15 - 16) =      7.82092  eV     2   --> E_1            

 **************************************************************************

 **************************************************************************

                    xk=(  -0.00667,   0.01155,   0.00000  )

     point group C_s (m)    
     there are  2 classes
     the character table:

       E     s    
A'     1.00  1.00
A''    1.00 -1.00

     the symmetry operations in each class and the name of the first element:

     E        1
                                                                 
     s        2
                                                                 

     Band symmetry, C_s (m)     point group:

     e(  1 -  1) =    -20.11368  eV     1   --> A'             
     e(  2 -  2) =    -19.99801  eV     1   --> A'             
     e(  3 -  3) =     -8.60246  eV     1   --> A'             
     e(  4 -  4) =     -7.76344  eV     1   --> A'             
     e(  5 -  5) =     -3.64754  eV     1   --> A''            
     e(  6 -  6) =     -3.64131  eV     1   --> A'             
     e(  7 -  7) =     -3.63695  eV     1   --> A''            
     e(  8 -  8) =     -3.63078  eV     1   --> A'             
     e(  9 -  9) =      2.52099  eV     1   --> A'             
     e( 10 - 10) =      2.97353  eV     1   --> A'             
     e( 11 - 11) =      4.04399  eV     1   --> A'             
     e( 12 - 12) =      5.22984  eV     1   --> A'             
     e( 13 - 13) =      5.38929  eV     1   --> A'             
     e( 14 - 14) =      7.28592  eV     1   --> A'             
     e( 15 - 15) =      7.83574  eV     1   -->   ?
     e( 16 - 16) =      7.86008  eV     1   -->   ?

 **************************************************************************

 **************************************************************************

                    xk=(  -0.01333,   0.02309,   0.00000  )

     Band symmetry, C_s (m)     point group:

     e(  1 -  1) =    -20.10419  eV     1   --> A'             
     e(  2 -  2) =    -19.98860  eV     1   --> A'             
     e(  3 -  3) =     -8.59095  eV     1   --> A'             
     e(  4 -  4) =     -7.75206  eV     1   --> A'             
     e(  5 -  5) =     -3.68647  eV     1   --> A''            
     e(  6 -  6) =     -3.67582  eV     1   --> A''            
     e(  7 -  7) =     -3.66222  eV     1   --> A'             
     e(  8 -  8) =     -3.65152  eV     1   --> A'             
     e(  9 -  9) =      2.53364  eV     1   --> A'             
     e( 10 - 10) =      2.98634  eV     1   --> A'             
     e( 11 - 11) =      4.05699  eV     1   --> A'             
     e( 12 - 12) =      5.24278  eV     1   --> A'             
     e( 13 - 13) =      5.40133  eV     1   --> A'             
     e( 14 - 14) =      7.29801  eV     1   --> A'             
     e( 15 - 15) =      7.83108  eV     1   -->   ?
     e( 16 - 16) =      7.86987  eV     1   --> A'             

 **************************************************************************

 **************************************************************************

                    xk=(  -0.02000,   0.03464,   0.00000  )

     Band symmetry, C_s (m)     point group:

     e(  1 -  1) =    -20.08844  eV     1   --> A'             
     e(  2 -  2) =    -19.97297  eV     1   --> A'             
     e(  3 -  3) =     -8.57191  eV     1   --> A'             
     e(  4 -  4) =     -7.73345  eV     1   --> A'             
     e(  5 -  5) =     -3.75147  eV     1   --> A''            
     e(  6 -  6) =     -3.74084  eV     1   --> A''            
     e(  7 -  7) =     -3.69662  eV     1   --> A'             
     e(  8 -  8) =     -3.68612  eV     1   --> A'             
     e(  9 -  9) =      2.55472  eV     1   --> A'             
     e( 10 - 10) =      3.00766  eV     1   --> A'             
     e( 11 - 11) =      4.07865  eV     1   --> A'             
     e( 12 - 12) =      5.26433  eV     1   --> A'             
     e( 13 - 13) =      5.42135  eV     1   --> A'             
     e( 14 - 14) =      7.31818  eV     1   --> A'             
     e( 15 - 15) =      7.84132  eV     1   --> A'             
     e( 16 - 16) =      7.87894  eV     1   --> A'             

 **************************************************************************

 **************************************************************************

                    xk=(  -0.02667,   0.04619,   0.00000  )

     Band symmetry, C_s (m)     point group:

     e(  1 -  1) =    -20.06638  eV     1   --> A'             
     e(  2 -  2) =    -19.95112  eV     1   --> A'             
     e(  3 -  3) =     -8.54524  eV     1   --> A'             
     e(  4 -  4) =     -7.70727  eV     1   --> A'             
     e(  5 -  5) =     -3.84065  eV     1   --> A''            
     e(  6 -  6) =     -3.82970  eV     1   --> A''            
     e(  7 -  7) =     -3.74430  eV     1   --> A'             
     e(  8 -  8) =     -3.73434  eV     1   --> A'             
     e(  9 -  9) =      2.58424  eV     1   --> A'             
     e( 10 - 10) =      3.03751  eV     1   --> A'             
     e( 11 - 11) =      4.10899  eV     1   --> A'             
     e( 12 - 12) =      5.29451  eV     1   --> A'             
     e( 13 - 13) =      5.44937  eV     1   --> A'             
     e( 14 - 14) =      7.34640  eV     1   --> A'             
     e( 15 - 15) =      7.85671  eV     1   -->   ?
     e( 16 - 16) =      7.89194  eV     1   --> A'             

 **************************************************************************

 **************************************************************************

                    xk=(  -0.03333,   0.05774,   0.00000  )

     Band symmetry, C_s (m)     point group:

     e(  1 -  1) =    -20.03804  eV     1   --> A'             
     e(  2 -  2) =    -19.92302  eV     1   --> A'             
     e(  3 -  3) =     -8.51101  eV     1   --> A'             
     e(  4 -  4) =     -7.67382  eV     1   --> A'             
     e(  5 -  5) =     -3.95293  eV     1   --> A''            
     e(  6 -  6) =     -3.94043  eV     1   --> A''            
     e(  7 -  7) =     -3.80605  eV     1   --> A'             
     e(  8 -  8) =     -3.79554  eV     1   --> A'             
     e(  9 -  9) =      2.62219  eV     1   --> A'             
     e( 10 - 10) =      3.07588  eV     1   --> A'             
     e( 11 - 11) =      4.14798  eV     1   --> A'             
     e( 12 - 12) =      5.33331  eV     1   --> A'             
     e( 13 - 13) =      5.48541  eV     1   --> A'             
     e( 14 - 14) =      7.38268  eV     1   --> A'             
     e( 15 - 15) =      7.87605  eV     1   --> A'             
     e( 16 - 16) =      7.90923  eV     1   --> A'             

 **************************************************************************

 **************************************************************************

                    xk=(  -0.04000,   0.06928,   0.00000  )

     Band symmetry, C_s (m)     point group:

     e(  1 -  1) =    -20.00339  eV     1   --> A'             
     e(  2 -  2) =    -19.88868  eV     1   --> A'             
     e(  3 -  3) =     -8.46918  eV     1   --> A'             
     e(  4 -  4) =     -7.63293  eV     1   --> A'             
     e(  5 -  5) =     -4.08531  eV     1   --> A''            
     e(  6 -  6) =     -4.07189  eV     1   --> A''            
     e(  7 -  7) =     -3.88044  eV     1   --> A'             
     e(  8 -  8) =     -3.86961  eV     1   --> A'             
     e(  9 -  9) =      2.66859  eV     1   --> A'             
     e( 10 - 10) =      3.12277  eV     1   --> A'             
     e( 11 - 11) =      4.19566  eV     1   --> A'             
     e( 12 - 12) =      5.38073  eV     1   --> A'             
     e( 13 - 13) =      5.52946  eV     1   --> A'             
     e( 14 - 14) =      7.42700  eV     1   --> A'             
     e( 15 - 15) =      7.90095  eV     1   -->   ?
     e( 16 - 16) =      7.93158  eV     1   --> A'             

 **************************************************************************

 **************************************************************************

                    xk=(  -0.04667,   0.08083,   0.00000  )

     Band symmetry, C_s (m)     point group:

     e(  1 -  1) =    -19.96249  eV     1   --> A'             
     e(  2 -  2) =    -19.84800  eV     1   --> A'             
     e(  3 -  3) =     -8.41927  eV     1   --> A'             
     e(  4 -  4) =     -7.58469  eV     1   --> A'             
     e(  5 -  5) =     -4.23713  eV     1   --> A''            
     e(  6 -  6) =     -4.22136  eV     1   --> A''            
     e(  7 -  7) =     -3.96800  eV     1   --> A'             
     e(  8 -  8) =     -3.95613  eV     1   --> A'             
     e(  9 -  9) =      2.72342  eV     1   --> A'             
     e( 10 - 10) =      3.17817  eV     1   --> A'             
     e( 11 - 11) =      4.25199  eV     1   --> A'             
     e( 12 - 12) =      5.43679  eV     1   --> A'             
     e( 13 - 13) =      5.58164  eV     1   --> A'             
     e( 14 - 14) =      7.47952  eV     1   --> A'             
     e( 15 - 15) =      7.92999  eV     1   -->   ?
     e( 16 - 16) =      7.95977  eV     1   --> A'             

 **************************************************************************

 **************************************************************************

                    xk=(  -0.05333,   0.09238,   0.00000  )

     Band symmetry, C_s (m)     point group:

     e(  1 -  1) =    -19.91529  eV     1   --> A'             
     e(  2 -  2) =    -19.80113  eV     1   --> A'             
     e(  3 -  3) =     -8.36224  eV     1   --> A'             
     e(  4 -  4) =     -7.52908  eV     1   --> A'             
     e(  5 -  5) =     -4.40579  eV     1   --> A''            
     e(  6 -  6) =     -4.38890  eV     1   --> A''            
     e(  7 -  7) =     -4.06711  eV     1   --> A'             
     e(  8 -  8) =     -4.05478  eV     1   --> A'             
     e(  9 -  9) =      2.78670  eV     1   --> A'             
     e( 10 - 10) =      3.24209  eV     1   --> A'             
     e( 11 - 11) =      4.31698  eV     1   --> A'             
     e( 12 - 12) =      5.50147  eV     1   --> A'             
     e( 13 - 13) =      5.64173  eV     1   --> A'             
     e( 14 - 14) =      7.54002  eV     1   -->   ?
     e( 15 - 15) =      7.96522  eV     1   -->   ?
     e( 16 - 16) =      7.99316  eV     1   --> A'             

 **************************************************************************

 **************************************************************************

                    xk=(  -0.06000,   0.10392,   0.00000  )

     Band symmetry, C_s (m)     point group:

     e(  1 -  1) =    -19.86181  eV     1   --> A'             
     e(  2 -  2) =    -19.74812  eV     1   --> A'             
     e(  3 -  3) =     -8.29770  eV     1   --> A'             
     e(  4 -  4) =     -7.46593  eV     1   --> A'             
     e(  5 -  5) =     -4.58926  eV     1   --> A''            
     e(  6 -  6) =     -4.57089  eV     1   --> A''            
     e(  7 -  7) =     -4.17774  eV     1   --> A'             
     e(  8 -  8) =     -4.16465  eV     1   --> A'             
     e(  9 -  9) =      2.85841  eV     1   --> A'             
     e( 10 - 10) =      3.31454  eV     1   --> A'             
     e( 11 - 11) =      4.39065  eV     1   --> A'             
     e( 12 - 12) =      5.57474  eV     1   --> A'             
     e( 13 - 13) =      5.70977  eV     1   --> A'             
     e( 14 - 14) =      7.60820  eV     1   --> A'             
     e( 15 - 15) =      8.00468  eV     1   --> A'             
     e( 16 - 16) =      8.03143  eV     1   --> A'             

 **************************************************************************

 **************************************************************************

                    xk=(  -0.06667,   0.11547,   0.00000  )

     Band symmetry, C_s (m)     point group:

     e(  1 -  1) =    -19.80213  eV     1   --> A'             
     e(  2 -  2) =    -19.68884  eV     1   --> A'             
     e(  3 -  3) =     -8.22558  eV     1   --> A'             
     e(  4 -  4) =     -7.39584  eV     1   --> A'             
     e(  5 -  5) =     -4.78612  eV     1   --> A''            
     e(  6 -  6) =     -4.76683  eV     1   --> A''            
     e(  7 -  7) =     -4.29941  eV     1   --> A'             
     e(  8 -  8) =     -4.28585  eV     1   --> A'             
     e(  9 -  9) =      2.93856  eV     1   --> A'             
     e( 10 - 10) =      3.39545  eV     1   --> A'             
     e( 11 - 11) =      4.47299  eV     1   --> A'             
     e( 12 - 12) =      5.65662  eV     1   --> A'             
     e( 13 - 13) =      5.78583  eV     1   --> A'             
     e( 14 - 14) =      7.68441  eV     1   --> A'             
     e( 15 - 15) =      8.05049  eV     1   -->   ?
     e( 16 - 16) =      8.07648  eV     1   --> A'             

 **************************************************************************

 **************************************************************************

                    xk=(  -0.07333,   0.12702,   0.00000  )

     Band symmetry, C_s (m)     point group:

     e(  1 -  1) =    -19.73618  eV     1   --> A'             
     e(  2 -  2) =    -19.62334  eV     1   --> A'             
     e(  3 -  3) =     -8.14585  eV     1   --> A'             
     e(  4 -  4) =     -7.31837  eV     1   --> A'             
     e(  5 -  5) =     -4.99391  eV     1   --> A''            
     e(  6 -  6) =     -4.97297  eV     1   --> A''            
     e(  7 -  7) =     -4.43190  eV     1   --> A'             
     e(  8 -  8) =     -4.41737  eV     1   --> A'             
     e(  9 -  9) =      3.02716  eV     1   --> A'             
     e( 10 - 10) =      3.48486  eV     1   --> A'             
     e( 11 - 11) =      4.56399  eV     1   --> A'             
     e( 12 - 12) =      5.74712  eV     1   --> A'             
     e( 13 - 13) =      5.86987  eV     1   --> A'             
     e( 14 - 14) =      7.76859  eV     1   --> A'             
     e( 15 - 15) =      8.10174  eV     1   --> A'             
     e( 16 - 16) =      8.12845  eV     1   --> A'             

 **************************************************************************

 **************************************************************************

                    xk=(  -0.08000,   0.13856,   0.00000  )

     Band symmetry, C_s (m)     point group:

     e(  1 -  1) =    -19.66400  eV     1   --> A'             
     e(  2 -  2) =    -19.55177  eV     1   --> A'             
     e(  3 -  3) =     -8.05897  eV     1   --> A'             
     e(  4 -  4) =     -7.23372  eV     1   --> A'             
     e(  5 -  5) =     -5.21140  eV     1   --> A''            
     e(  6 -  6) =     -5.18887  eV     1   --> A''            
     e(  7 -  7) =     -4.57376  eV     1   --> A'             
     e(  8 -  8) =     -4.55863  eV     1   --> A'             
     e(  9 -  9) =      3.12418  eV     1   --> A'             
     e( 10 - 10) =      3.58274  eV     1   --> A'             
     e( 11 - 11) =      4.66365  eV     1   --> A'             
     e( 12 - 12) =      5.84625  eV     1   --> A'             
     e( 13 - 13) =      5.96179  eV     1   --> A'             
     e( 14 - 14) =      7.86045  eV     1   --> A'             
     e( 15 - 15) =      8.15946  eV     1   --> A'             
     e( 16 - 16) =      8.18653  eV     1   --> A'             

 **************************************************************************

 **************************************************************************

                    xk=(  -0.08667,   0.15011,   0.00000  )

     Band symmetry, C_s (m)     point group:

     e(  1 -  1) =    -19.58562  eV     1   --> A'             
     e(  2 -  2) =    -19.47395  eV     1   --> A'             
     e(  3 -  3) =     -7.96470  eV     1   --> A'             
     e(  4 -  4) =     -7.14197  eV     1   --> A'             
     e(  5 -  5) =     -5.43703  eV     1   --> A''            
     e(  6 -  6) =     -5.41315  eV     1   --> A''            
     e(  7 -  7) =     -4.72476  eV     1   --> A'             
     e(  8 -  8) =     -4.70888  eV     1   --> A'             
     e(  9 -  9) =      3.22964  eV     1   --> A'             
     e( 10 - 10) =      3.68909  eV     1   --> A'             
     e( 11 - 11) =      4.77196  eV     1   --> A'             
     e( 12 - 12) =      5.95393  eV     1   --> A'             
     e( 13 - 13) =      6.06159  eV     1   --> A'             
     e( 14 - 14) =      7.95999  eV     1   --> A'             
     e( 15 - 15) =      8.22316  eV     1   --> A'             
     e( 16 - 16) =      8.25096  eV     1   --> A'             

 **************************************************************************

 **************************************************************************

                    xk=(  -0.09333,   0.16166,   0.00000  )

     Band symmetry, C_s (m)     point group:

     e(  1 -  1) =    -19.50111  eV     1   --> A'             
     e(  2 -  2) =    -19.39006  eV     1   --> A'             
     e(  3 -  3) =     -7.86316  eV     1   --> A'             
     e(  4 -  4) =     -7.04316  eV     1   --> A'             
     e(  5 -  5) =     -5.66946  eV     1   --> A''            
     e(  6 -  6) =     -5.64410  eV     1   --> A''            
     e(  7 -  7) =     -4.88446  eV     1   --> A'             
     e(  8 -  8) =     -4.86764  eV     1   --> A'             
     e(  9 -  9) =      3.34351  eV     1   --> A'             
     e( 10 - 10) =      3.80389  eV     1   --> A'             
     e( 11 - 11) =      4.88892  eV     1   --> A'             
     e( 12 - 12) =      6.07019  eV     1   --> A'             
     e( 13 - 13) =      6.16922  eV     1   --> A'             
     e( 14 - 14) =      8.06704  eV     1   --> A'             
     e( 15 - 15) =      8.29320  eV     1   --> A'             
     e( 16 - 16) =      8.32185  eV     1   --> A'             

 **************************************************************************

 **************************************************************************

                    xk=(  -0.10000,   0.17321,   0.00000  )

     Band symmetry, C_s (m)     point group:

     e(  1 -  1) =    -19.41035  eV     1   --> A'             
     e(  2 -  2) =    -19.29994  eV     1   --> A'             
     e(  3 -  3) =     -7.75415  eV     1   --> A'             
     e(  4 -  4) =     -6.93718  eV     1   --> A'             
     e(  5 -  5) =     -5.90672  eV     1   --> A''            
     e(  6 -  6) =     -5.87998  eV     1   --> A''            
     e(  7 -  7) =     -5.05166  eV     1   --> A'             
     e(  8 -  8) =     -5.03386  eV     1   --> A'             
     e(  9 -  9) =      3.46580  eV     1   --> A'             
     e( 10 - 10) =      3.92714  eV     1   --> A'             
     e( 11 - 11) =      5.01454  eV     1   --> A'             
     e( 12 - 12) =      6.19507  eV     1   --> A'             
     e( 13 - 13) =      6.28472  eV     1   --> A'             
     e( 14 - 14) =      8.18155  eV     1   --> A'             
     e( 15 - 15) =      8.37080  eV     1   -->   ?
     e( 16 - 16) =      8.40158  eV     1   --> A'             

 **************************************************************************

 **************************************************************************

                    xk=(  -0.10667,   0.18475,   0.00000  )

     Band symmetry, C_s (m)     point group:

     e(  1 -  1) =    -19.31344  eV     1   --> A'             
     e(  2 -  2) =    -19.20375  eV     1   --> A'             
     e(  3 -  3) =     -7.63803  eV     1   --> A'             
     e(  4 -  4) =     -6.82424  eV     1   --> A'             
     e(  5 -  5) =     -6.14787  eV     1   --> A''            
     e(  6 -  6) =     -6.11956  eV     1   --> A''            
     e(  7 -  7) =     -5.22573  eV     1   --> A'             
     e(  8 -  8) =     -5.20687  eV     1   --> A'             
     e(  9 -  9) =      3.59649  eV     1   --> A'             
     e( 10 - 10) =      4.05881  eV     1   --> A'             
     e( 11 - 11) =      5.14881  eV     1   --> A'             
     e( 12 - 12) =      6.32854  eV     1   --> A'             
     e( 13 - 13) =      6.40794  eV     1   --> A'             
     e( 14 - 14) =      8.24409  eV     1   --> A''            
     e( 15 - 15) =      8.30341  eV     1   -->   ?
     e( 16 - 16) =      8.45605  eV     1   -->   ?

 **************************************************************************

 **************************************************************************

                    xk=(  -0.11333,   0.19630,   0.00000  )

     Band symmetry, C_s (m)     point group:

     e(  1 -  1) =    -19.21048  eV     1   --> A'             
     e(  2 -  2) =    -19.10148  eV     1   --> A'             
     e(  3 -  3) =     -7.51485  eV     1   --> A'             
     e(  4 -  4) =     -6.70463  eV     1   --> A'             
     e(  5 -  5) =     -6.39284  eV     1   --> A''            
     e(  6 -  6) =     -6.36297  eV     1   --> A''            
     e(  7 -  7) =     -5.40685  eV     1   --> A'             
     e(  8 -  8) =     -5.38684  eV     1   --> A'             
     e(  9 -  9) =      3.73556  eV     1   --> A'             
     e( 10 - 10) =      4.19885  eV     1   --> A'             
     e( 11 - 11) =      5.29170  eV     1   --> A'             
     e( 12 - 12) =      6.47057  eV     1   --> A'             
     e( 13 - 13) =      6.53881  eV     1   --> A'             
     e( 14 - 14) =      7.96955  eV     1   --> A''            
     e( 15 - 15) =      8.27137  eV     1   -->   ?
     e( 16 - 16) =      8.43261  eV     1   --> A'             

 **************************************************************************

 **************************************************************************

                    xk=(  -0.12000,   0.20785,   0.00000  )

     Band symmetry, C_s (m)     point group:

     e(  1 -  1) =    -19.10139  eV     1   --> A'             
     e(  2 -  2) =    -18.99319  eV     1   --> A'             
     e(  3 -  3) =     -7.38454  eV     1   --> A'             
     e(  4 -  4) =     -6.63959  eV     1   --> A''            
     e(  5 -  5) =     -6.60799  eV     1   --> A''            
     e(  6 -  6) =     -6.57805  eV     1   --> A'             
     e(  7 -  7) =     -5.59321  eV     1   --> A'             
     e(  8 -  8) =     -5.57195  eV     1   --> A'             
     e(  9 -  9) =      3.88301  eV     1   --> A'             
     e( 10 - 10) =      4.34727  eV     1   --> A'             
     e( 11 - 11) =      5.44322  eV     1   --> A'             
     e( 12 - 12) =      6.62114  eV     1   --> A'             
     e( 13 - 13) =      6.67716  eV     1   --> A'             
     e( 14 - 14) =      7.68900  eV     1   --> A''            
     e( 15 - 15) =      8.00240  eV     1   --> A''            
     e( 16 - 16) =      8.56518  eV     1   -->   ?

 **************************************************************************

 **************************************************************************

                    xk=(  -0.12667,   0.21939,   0.00000  )

     Band symmetry, C_s (m)     point group:

     e(  1 -  1) =    -18.98625  eV     1   --> A'             
     e(  2 -  2) =    -18.87882  eV     1   --> A'             
     e(  3 -  3) =     -7.24694  eV     1   --> A'             
     e(  4 -  4) =     -6.88763  eV     1   --> A''            
     e(  5 -  5) =     -6.85480  eV     1   --> A''            
     e(  6 -  6) =     -6.44461  eV     1   --> A'             
     e(  7 -  7) =     -5.78469  eV     1   --> A'             
     e(  8 -  8) =     -5.76221  eV     1   --> A'             
     e(  9 -  9) =      4.03881  eV     1   --> A'             
     e( 10 - 10) =      4.50406  eV     1   --> A'             
     e( 11 - 11) =      5.60334  eV     1   --> A'             
     e( 12 - 12) =      6.78026  eV     1   --> A'             
     e( 13 - 13) =      6.82303  eV     1   --> A'             
     e( 14 - 14) =      7.40210  eV     1   --> A''            
     e( 15 - 15) =      7.72757  eV     1   --> A''            
     e( 16 - 16) =      8.69518  eV     1   --> A'             

 **************************************************************************

 **************************************************************************

                    xk=(  -0.13333,   0.23094,   0.00000  )

     Band symmetry, C_s (m)     point group:

     e(  1 -  1) =    -18.86531  eV     1   --> A'             
     e(  2 -  2) =    -18.75868  eV     1   --> A'             
     e(  3 -  3) =     -7.13617  eV     1   --> A''            
     e(  4 -  4) =     -7.10302  eV     1   --> A'             
     e(  5 -  5) =     -7.10217  eV     1   --> A''            
     e(  6 -  6) =     -6.30531  eV     1   --> A'             
     e(  7 -  7) =     -5.98065  eV     1   --> A'             
     e(  8 -  8) =     -5.95702  eV     1   --> A'             
     e(  9 -  9) =      4.20291  eV     1   --> A'             
     e( 10 - 10) =      4.66905  eV     1   --> A'             
     e( 11 - 11) =      5.77204  eV     1   --> A'             
     e( 12 - 12) =      6.94785  eV     1   --> A'             
     e( 13 - 13) =      6.97603  eV     1   --> A'             
     e( 14 - 14) =      7.11048  eV     1   --> A''            
     e( 15 - 15) =      7.44788  eV     1   --> A''            
     e( 16 - 16) =      8.89753  eV     1   --> A'             

 **************************************************************************

 **************************************************************************

                    xk=(  -0.14000,   0.24249,   0.00000  )

     Band symmetry, C_s (m)     point group:

     e(  1 -  1) =    -18.73818  eV     1   --> A'             
     e(  2 -  2) =    -18.63244  eV     1   --> A'             
     e(  3 -  3) =     -7.38474  eV     1   --> A''            
     e(  4 -  4) =     -7.34935  eV     1   --> A''            
     e(  5 -  5) =     -6.95207  eV     1   --> A'             
     e(  6 -  6) =     -6.17999  eV     1   --> A'             
     e(  7 -  7) =     -6.16614  eV     1   --> A'             
     e(  8 -  8) =     -6.14810  eV     1   --> A'             
     e(  9 -  9) =      4.37535  eV     1   --> A'             
     e( 10 - 10) =      4.84240  eV     1   --> A'             
     e( 11 - 11) =      5.94932  eV     1   --> A'             
     e( 12 - 12) =      6.81573  eV     1   --> A''            
     e( 13 - 13) =      7.12396  eV     1   --> A'             
     e( 14 - 14) =      7.13620  eV     1   --> A'             
     e( 15 - 15) =      7.16458  eV     1   --> A''            
     e( 16 - 16) =      9.01690  eV     1   --> A'             

 **************************************************************************

 **************************************************************************

                    xk=(  -0.14667,   0.25404,   0.00000  )

     Band symmetry, C_s (m)     point group:

     e(  1 -  1) =    -18.60511  eV     1   --> A'             
     e(  2 -  2) =    -18.50027  eV     1   --> A'             
     e(  3 -  3) =     -7.63290  eV     1   --> A''            
     e(  4 -  4) =     -7.59641  eV     1   --> A''            
     e(  5 -  5) =     -6.79459  eV     1   --> A'             
     e(  6 -  6) =     -6.38267  eV     1   --> A'             
     e(  7 -  7) =     -6.35747  eV     1   --> A'             
     e(  8 -  8) =     -6.00561  eV     1   --> A'             
     e(  9 -  9) =      4.55607  eV     1   --> A'             
     e( 10 - 10) =      5.02395  eV     1   --> A'             
     e( 11 - 11) =      6.13513  eV     1   --> A'             
     e( 12 - 12) =      6.51699  eV     1   --> A''            
     e( 13 - 13) =      6.87763  eV     1   --> A''            
     e( 14 - 14) =      7.30304  eV     1   --> A'             
     e( 15 - 15) =      7.30852  eV     1   --> A'             
     e( 16 - 16) =      9.07084  eV     1   --> A'             

 **************************************************************************

 **************************************************************************

                    xk=(  -0.15333,   0.26558,   0.00000  )

     Band symmetry, C_s (m)     point group:

     e(  1 -  1) =    -18.46619  eV     1   --> A'             
     e(  2 -  2) =    -18.36223  eV     1   --> A'             
     e(  3 -  3) =     -7.88007  eV     1   --> A''            
     e(  4 -  4) =     -7.84229  eV     1   --> A''            
     e(  5 -  5) =     -6.63201  eV     1   --> A'             
     e(  6 -  6) =     -6.58631  eV     1   --> A'             
     e(  7 -  7) =     -6.56156  eV     1   --> A'             
     e(  8 -  8) =     -5.84646  eV     1   --> A'             
     e(  9 -  9) =      4.74502  eV     1   --> A'             
     e( 10 - 10) =      5.21370  eV     1   --> A'             
     e( 11 - 11) =      6.21617  eV     1   --> A''            
     e( 12 - 12) =      6.32947  eV     1   --> A'             
     e( 13 - 13) =      6.58758  eV     1   --> A''            
     e( 14 - 14) =      7.47659  eV     1   --> A'             
     e( 15 - 15) =      7.50154  eV     1   --> A'             
     e( 16 - 16) =      9.19715  eV     1   --> A'             

 **************************************************************************

 **************************************************************************

                    xk=(  -0.16000,   0.27713,   0.00000  )

     Band symmetry, C_s (m)     point group:

     e(  1 -  1) =    -18.32135  eV     1   --> A'             
     e(  2 -  2) =    -18.21839  eV     1   --> A'             
     e(  3 -  3) =     -8.12467  eV     1   --> A''            
     e(  4 -  4) =     -8.08639  eV     1   --> A''            
     e(  5 -  5) =     -6.79536  eV     1   --> A'             
     e(  6 -  6) =     -6.76741  eV     1   --> A'             
     e(  7 -  7) =     -6.45949  eV     1   --> A'             
     e(  8 -  8) =     -5.68121  eV     1   --> A'             
     e(  9 -  9) =      4.94221  eV     1   --> A'             
     e( 10 - 10) =      5.41153  eV     1   --> A'             
     e( 11 - 11) =      5.91412  eV     1   --> A''            
     e( 12 - 12) =      6.29815  eV     1   --> A''            
     e( 13 - 13) =      6.53227  eV     1   --> A'             
     e( 14 - 14) =      7.65624  eV     1   --> A'             
     e( 15 - 15) =      7.70293  eV     1   --> A'             
     e( 16 - 16) =      9.33070  eV     1   --> A'             

 **************************************************************************

 **************************************************************************

                    xk=(  -0.16667,   0.28868,   0.00000  )

     Band symmetry, C_s (m)     point group:

     e(  1 -  1) =    -18.17092  eV     1   --> A'             
     e(  2 -  2) =    -18.06873  eV     1   --> A'             
     e(  3 -  3) =     -8.36807  eV     1   --> A''            
     e(  4 -  4) =     -8.32836  eV     1   --> A''            
     e(  5 -  5) =     -7.00393  eV     1   --> A'             
     e(  6 -  6) =     -6.97477  eV     1   --> A'             
     e(  7 -  7) =     -6.28278  eV     1   --> A'             
     e(  8 -  8) =     -5.51032  eV     1   --> A'             
     e(  9 -  9) =      5.14753  eV     1   --> A'             
     e( 10 - 10) =      5.61203  eV     1   --> A''            
     e( 11 - 11) =      5.61737  eV     1   --> A'             
     e( 12 - 12) =      6.00659  eV     1   --> A''            
     e( 13 - 13) =      6.74348  eV     1   --> A'             
     e( 14 - 14) =      7.84161  eV     1   --> A'             
     e( 15 - 15) =      7.91265  eV     1   --> A'             
     e( 16 - 16) =      9.46846  eV     1   --> A'             

 **************************************************************************

 **************************************************************************

                    xk=(  -0.17333,   0.30022,   0.00000  )

     Band symmetry, C_s (m)     point group:

     e(  1 -  1) =    -18.01453  eV     1   --> A'             
     e(  2 -  2) =    -17.91353  eV     1   --> A'             
     e(  3 -  3) =     -8.60919  eV     1   --> A''            
     e(  4 -  4) =     -8.56806  eV     1   --> A''            
     e(  5 -  5) =     -7.21347  eV     1   --> A'             
     e(  6 -  6) =     -7.18281  eV     1   --> A'             
     e(  7 -  7) =     -6.09991  eV     1   --> A'             
     e(  8 -  8) =     -5.33346  eV     1   --> A'             
     e(  9 -  9) =      5.31008  eV     1   --> A''            
     e( 10 - 10) =      5.36103  eV     1   --> A'             
     e( 11 - 11) =      5.71416  eV     1   --> A''            
     e( 12 - 12) =      5.83116  eV     1   --> A'             
     e( 13 - 13) =      6.96306  eV     1   --> A'             
     e( 14 - 14) =      8.03233  eV     1   --> A'             
     e( 15 - 15) =      8.13103  eV     1   --> A'             
     e( 16 - 16) =      9.61449  eV     1   --> A'             

 **************************************************************************

 **************************************************************************

                    xk=(  -0.18000,   0.31177,   0.00000  )

     Band symmetry, C_s (m)     point group:

     e(  1 -  1) =    -17.85242  eV     1   --> A'             
     e(  2 -  2) =    -17.75253  eV     1   --> A'             
     e(  3 -  3) =     -8.84776  eV     1   --> A''            
     e(  4 -  4) =     -8.80537  eV     1   --> A''            
     e(  5 -  5) =     -7.42338  eV     1   --> A'             
     e(  6 -  6) =     -7.39188  eV     1   --> A'             
     e(  7 -  7) =     -5.91090  eV     1   --> A'             
     e(  8 -  8) =     -5.15095  eV     1   --> A'             
     e(  9 -  9) =      5.00829  eV     1   --> A''            
     e( 10 - 10) =      5.42258  eV     1   --> A''            
     e( 11 - 11) =      5.58259  eV     1   --> A'             
     e( 12 - 12) =      6.05281  eV     1   --> A'             
     e( 13 - 13) =      7.19086  eV     1   --> A'             
     e( 14 - 14) =      8.22709  eV     1   --> A'             
     e( 15 - 15) =      8.35700  eV     1   --> A'             
     e( 16 - 16) =      9.75630  eV     1   --> A'             

 **************************************************************************

 **************************************************************************

                    xk=(  -0.18666,   0.32332,   0.00000  )

     Band symmetry, C_s (m)     point group:

     e(  1 -  1) =    -17.68480  eV     1   --> A'             
     e(  2 -  2) =    -17.58610  eV     1   --> A'             
     e(  3 -  3) =     -9.08331  eV     1   --> A''            
     e(  4 -  4) =     -9.03952  eV     1   --> A''            
     e(  5 -  5) =     -7.63315  eV     1   --> A'             
     e(  6 -  6) =     -7.60041  eV     1   --> A'             
     e(  7 -  7) =     -5.71617  eV     1   --> A'             
     e(  8 -  8) =     -4.96303  eV     1   --> A'             
     e(  9 -  9) =      4.70863  eV     1   --> A''            
     e( 10 - 10) =      5.13206  eV     1   --> A''            
     e( 11 - 11) =      5.81215  eV     1   --> A'             
     e( 12 - 12) =      6.28214  eV     1   --> A'             
     e( 13 - 13) =      7.42674  eV     1   --> A'             
     e( 14 - 14) =      8.42522  eV     1   --> A'             
     e( 15 - 15) =      8.59125  eV     1   --> A'             
     e( 16 - 16) =      9.90512  eV     1   --> A'             

 **************************************************************************

 **************************************************************************

                    xk=(  -0.19333,   0.33486,   0.00000  )

     Band symmetry, C_s (m)     point group:

     e(  1 -  1) =    -17.51166  eV     1   --> A'             
     e(  2 -  2) =    -17.41417  eV     1   --> A'             
     e(  3 -  3) =     -9.31579  eV     1   --> A''            
     e(  4 -  4) =     -9.27084  eV     1   --> A''            
     e(  5 -  5) =     -7.84233  eV     1   --> A'             
     e(  6 -  6) =     -7.80858  eV     1   --> A'             
     e(  7 -  7) =     -5.51615  eV     1   --> A'             
     e(  8 -  8) =     -4.77002  eV     1   --> A'             
     e(  9 -  9) =      4.41005  eV     1   --> A''            
     e( 10 - 10) =      4.84275  eV     1   --> A''            
     e( 11 - 11) =      6.04965  eV     1   --> A'             
     e( 12 - 12) =      6.51904  eV     1   --> A'             
     e( 13 - 13) =      7.67049  eV     1   --> A'             
     e( 14 - 14) =      8.62525  eV     1   --> A'             
     e( 15 - 15) =      8.83368  eV     1   --> A'             
     e( 16 - 16) =     10.05637  eV     1   --> A'             

 **************************************************************************

 **************************************************************************

                    xk=(  -0.20000,   0.34641,   0.00000  )

     Band symmetry, C_s (m)     point group:

     e(  1 -  1) =    -17.33306  eV     1   --> A'             
     e(  2 -  2) =    -17.23680  eV     1   --> A'             
     e(  3 -  3) =     -9.54488  eV     1   --> A''            
     e(  4 -  4) =     -9.49867  eV     1   --> A''            
     e(  5 -  5) =     -8.05059  eV     1   --> A'             
     e(  6 -  6) =     -8.01560  eV     1   --> A'             
     e(  7 -  7) =     -5.31086  eV     1   --> A'             
     e(  8 -  8) =     -4.57213  eV     1   --> A'             
     e(  9 -  9) =      4.11385  eV     1   --> A''            
     e( 10 - 10) =      4.55558  eV     1   --> A''            
     e( 11 - 11) =      6.29498  eV     1   --> A'             
     e( 12 - 12) =      6.76330  eV     1   --> A'             
     e( 13 - 13) =      7.92178  eV     1   --> A'             
     e( 14 - 14) =      8.82526  eV     1   --> A'             
     e( 15 - 15) =      9.08380  eV     1   --> A'             
     e( 16 - 16) =     10.20792  eV     1   --> A'             

 **************************************************************************

 **************************************************************************

                    xk=(  -0.20666,   0.35796,   0.00000  )

     Band symmetry, C_s (m)     point group:

     e(  1 -  1) =    -17.14928  eV     1   --> A'             
     e(  2 -  2) =    -17.05418  eV     1   --> A'             
     e(  3 -  3) =     -9.76984  eV     1   --> A''            
     e(  4 -  4) =     -9.72242  eV     1   --> A''            
     e(  5 -  5) =     -8.25724  eV     1   --> A'             
     e(  6 -  6) =     -8.22131  eV     1   --> A'             
     e(  7 -  7) =     -5.10065  eV     1   --> A'             
     e(  8 -  8) =     -4.36963  eV     1   --> A'             
     e(  9 -  9) =      3.82061  eV     1   --> A''            
     e( 10 - 10) =      4.27138  eV     1   --> A''            
     e( 11 - 11) =      6.54803  eV     1   --> A'             
     e( 12 - 12) =      7.01472  eV     1   --> A'             
     e( 13 - 13) =      8.18006  eV     1   --> A'             
     e( 14 - 14) =      9.02289  eV     1   --> A'             
     e( 15 - 15) =      9.34173  eV     1   --> A'             
     e( 16 - 16) =     10.35971  eV     1   --> A'             

 **************************************************************************

 **************************************************************************

                    xk=(  -0.21333,   0.36951,   0.00000  )

     Band symmetry, C_s (m)     point group:

     e(  1 -  1) =    -16.96055  eV     1   --> A'             
     e(  2 -  2) =    -16.86637  eV     1   --> A'             
     e(  3 -  3) =     -9.99119  eV     1   --> A''            
     e(  4 -  4) =     -9.94266  eV     1   --> A''            
     e(  5 -  5) =     -8.46208  eV     1   --> A'             
     e(  6 -  6) =     -8.42500  eV     1   --> A'             
     e(  7 -  7) =     -4.88574  eV     1   --> A'             
     e(  8 -  8) =     -4.16303  eV     1   --> A'             
     e(  9 -  9) =      3.53108  eV     1   --> A''            
     e( 10 - 10) =      3.98941  eV     1   --> A''            
     e( 11 - 11) =      6.80866  eV     1   --> A'             
     e( 12 - 12) =      7.27298  eV     1   --> A'             
     e( 13 - 13) =      8.44435  eV     1   --> A'             
     e( 14 - 14) =      9.21481  eV     1   --> A'             
     e( 15 - 15) =      9.60706  eV     1   --> A'             
     e( 16 - 16) =     10.50999  eV     1   --> A'             

 **************************************************************************

 **************************************************************************

                    xk=(  -0.22000,   0.38105,   0.00000  )

     Band symmetry, C_s (m)     point group:

     e(  1 -  1) =    -16.76644  eV     1   --> A'             
     e(  2 -  2) =    -16.67354  eV     1   --> A'             
     e(  3 -  3) =    -10.20892  eV     1   --> A''            
     e(  4 -  4) =    -10.15911  eV     1   --> A''            
     e(  5 -  5) =     -8.66467  eV     1   --> A'             
     e(  6 -  6) =     -8.62680  eV     1   --> A'             
     e(  7 -  7) =     -4.66656  eV     1   --> A'             
     e(  8 -  8) =     -3.95227  eV     1   --> A'             
     e(  9 -  9) =      3.24403  eV     1   --> A''            
     e( 10 - 10) =      3.71068  eV     1   --> A''            
     e( 11 - 11) =      7.07683  eV     1   --> A'             
     e( 12 - 12) =      7.53772  eV     1   --> A'             
     e( 13 - 13) =      8.71268  eV     1   --> A'             
     e( 14 - 14) =      9.39726  eV     1   --> A'             
     e( 15 - 15) =      9.87941  eV     1   --> A'             
     e( 16 - 16) =     10.65798  eV     1   --> A'             

 **************************************************************************

 **************************************************************************

                    xk=(  -0.22666,   0.39260,   0.00000  )

     Band symmetry, C_s (m)     point group:

     e(  1 -  1) =    -16.56759  eV     1   --> A'             
     e(  2 -  2) =    -16.47583  eV     1   --> A'             
     e(  3 -  3) =    -10.42243  eV     1   --> A''            
     e(  4 -  4) =    -10.37095  eV     1   --> A''            
     e(  5 -  5) =     -8.86469  eV     1   --> A'             
     e(  6 -  6) =     -8.82567  eV     1   --> A'             
     e(  7 -  7) =     -4.44332  eV     1   --> A'             
     e(  8 -  8) =     -3.73794  eV     1   --> A'             
     e(  9 -  9) =      2.96115  eV     1   --> A''            
     e( 10 - 10) =      3.43509  eV     1   --> A''            
     e( 11 - 11) =      7.35223  eV     1   --> A'             
     e( 12 - 12) =      7.80846  eV     1   --> A'             
     e( 13 - 13) =      8.98068  eV     1   --> A'             
     e( 14 - 14) =      9.56725  eV     1   --> A'             
     e( 15 - 15) =     10.15846  eV     1   --> A'             
     e( 16 - 16) =     10.80411  eV     1   --> A'             

 **************************************************************************

 **************************************************************************

                    xk=(  -0.23333,   0.40415,   0.00000  )

     Band symmetry, C_s (m)     point group:

     e(  1 -  1) =    -16.36391  eV     1   --> A'             
     e(  2 -  2) =    -16.27349  eV     1   --> A'             
     e(  3 -  3) =    -10.63174  eV     1   --> A''            
     e(  4 -  4) =    -10.57901  eV     1   --> A''            
     e(  5 -  5) =     -9.06156  eV     1   --> A'             
     e(  6 -  6) =     -9.02150  eV     1   --> A'             
     e(  7 -  7) =     -4.21633  eV     1   --> A'             
     e(  8 -  8) =     -3.51994  eV     1   --> A'             
     e(  9 -  9) =      2.68226  eV     1   --> A''            
     e( 10 - 10) =      3.16347  eV     1   --> A''            
     e( 11 - 11) =      7.63474  eV     1   --> A'             
     e( 12 - 12) =      8.08463  eV     1   --> A'             
     e( 13 - 13) =      9.23749  eV     1   --> A'             
     e( 14 - 14) =      9.72738  eV     1   --> A'             
     e( 15 - 15) =     10.44320  eV     1   --> A'             
     e( 16 - 16) =     10.95093  eV     1   --> A'             

 **************************************************************************

 **************************************************************************

                    xk=(  -0.24000,   0.41569,   0.00000  )

     Band symmetry, C_s (m)     point group:

     e(  1 -  1) =    -16.15580  eV     1   --> A'             
     e(  2 -  2) =    -16.06667  eV     1   --> A'             
     e(  3 -  3) =    -10.83665  eV     1   --> A''            
     e(  4 -  4) =    -10.78245  eV     1   --> A''            
     e(  5 -  5) =     -9.25503  eV     1   --> A'             
     e(  6 -  6) =     -9.21331  eV     1   --> A'             
     e(  7 -  7) =     -3.98639  eV     1   --> A'             
     e(  8 -  8) =     -3.29965  eV     1   --> A'             
     e(  9 -  9) =      2.40855  eV     1   --> A''            
     e( 10 - 10) =      2.89632  eV     1   --> A''            
     e( 11 - 11) =      7.92398  eV     1   --> A'             
     e( 12 - 12) =      8.36528  eV     1   --> A'             
     e( 13 - 13) =      9.45551  eV     1   --> A'             
     e( 14 - 14) =      9.89743  eV     1   --> A'             
     e( 15 - 15) =     10.73259  eV     1   --> A'             
     e( 16 - 16) =     11.10232  eV     1   -->   ?

 **************************************************************************

 **************************************************************************

                    xk=(  -0.24666,   0.42724,   0.00000  )

     Band symmetry, C_s (m)     point group:

     e(  1 -  1) =    -15.94358  eV     1   --> A'             
     e(  2 -  2) =    -15.85573  eV     1   --> A'             
     e(  3 -  3) =    -11.03683  eV     1   --> A''            
     e(  4 -  4) =    -10.98139  eV     1   --> A''            
     e(  5 -  5) =     -9.44456  eV     1   --> A'             
     e(  6 -  6) =     -9.40188  eV     1   --> A'             
     e(  7 -  7) =     -3.75400  eV     1   --> A'             
     e(  8 -  8) =     -3.07750  eV     1   --> A'             
     e(  9 -  9) =      2.13927  eV     1   --> A''            
     e( 10 - 10) =      2.63389  eV     1   --> A''            
     e( 11 - 11) =      8.21966  eV     1   --> A'             
     e( 12 - 12) =      8.64925  eV     1   --> A'             
     e( 13 - 13) =      9.59418  eV     1   --> A'             
     e( 14 - 14) =     10.11401  eV     1   --> A'             
     e( 15 - 15) =     11.02397  eV     1   --> A'             
     e( 16 - 16) =     11.26043  eV     1   --> A'             

 **************************************************************************

 **************************************************************************

                    xk=(  -0.25333,   0.43879,   0.00000  )

     Band symmetry, C_s (m)     point group:

     e(  1 -  1) =    -15.72746  eV     1   --> A'             
     e(  2 -  2) =    -15.64110  eV     1   --> A'             
     e(  3 -  3) =    -11.23268  eV     1   --> A''            
     e(  4 -  4) =    -11.17608  eV     1   --> A''            
     e(  5 -  5) =     -9.62985  eV     1   --> A'             
     e(  6 -  6) =     -9.58631  eV     1   --> A'             
     e(  7 -  7) =     -3.51972  eV     1   --> A'             
     e(  8 -  8) =     -2.85320  eV     1   --> A'             
     e(  9 -  9) =      1.87493  eV     1   --> A''            
     e( 10 - 10) =      2.37598  eV     1   --> A''            
     e( 11 - 11) =      8.52119  eV     1   --> A'             
     e( 12 - 12) =      8.93503  eV     1   --> A'             
     e( 13 - 13) =      9.64838  eV     1   --> A'             
     e( 14 - 14) =     10.38340  eV     1   --> A'             
     e( 15 - 15) =     11.31256  eV     1   --> A'             
     e( 16 - 16) =     11.42613  eV     1   --> A'             

 **************************************************************************

 **************************************************************************

                    xk=(  -0.26000,   0.45034,   0.00000  )

     Band symmetry, C_s (m)     point group:

     e(  1 -  1) =    -15.50774  eV     1   --> A'             
     e(  2 -  2) =    -15.42276  eV     1   --> A'             
     e(  3 -  3) =    -11.42381  eV     1   --> A''            
     e(  4 -  4) =    -11.36593  eV     1   --> A''            
     e(  5 -  5) =     -9.81039  eV     1   --> A'             
     e(  6 -  6) =     -9.76610  eV     1   --> A'             
     e(  7 -  7) =     -3.28378  eV     1   --> A'             
     e(  8 -  8) =     -2.62767  eV     1   --> A'             
     e(  9 -  9) =      1.61617  eV     1   --> A''            
     e( 10 - 10) =      2.12316  eV     1   --> A''            
     e( 11 - 11) =      8.82798  eV     1   --> A'             
     e( 12 - 12) =      9.22028  eV     1   --> A'             
     e( 13 - 13) =      9.64481  eV     1   --> A'             
     e( 14 - 14) =     10.68438  eV     1   --> A'             
     e( 15 - 15) =     11.58611  eV     1   -->   ?
     e( 16 - 16) =     11.59626  eV     1   -->   ?

 **************************************************************************

 **************************************************************************

                    xk=(  -0.26666,   0.46188,   0.00000  )

     Band symmetry, C_s (m)     point group:

     e(  1 -  1) =    -15.28509  eV     1   --> A'             
     e(  2 -  2) =    -15.20165  eV     1   --> A'             
     e(  3 -  3) =    -11.61011  eV     1   --> A''            
     e(  4 -  4) =    -11.55124  eV     1   --> A''            
     e(  5 -  5) =     -9.98542  eV     1   --> A'             
     e(  6 -  6) =     -9.94041  eV     1   --> A'             
     e(  7 -  7) =     -3.04732  eV     1   --> A'             
     e(  8 -  8) =     -2.40172  eV     1   --> A'             
     e(  9 -  9) =      1.36252  eV     1   --> A''            
     e( 10 - 10) =      1.87545  eV     1   --> A''            
     e( 11 - 11) =      9.13881  eV     1   --> A'             
     e( 12 - 12) =      9.50161  eV     1   --> A'             
     e( 13 - 13) =      9.60553  eV     1   --> A'             
     e( 14 - 14) =     11.00239  eV     1   --> A'             
     e( 15 - 15) =     11.76652  eV     1   --> A'             
     e( 16 - 16) =     11.80905  eV     1   --> A'             

 **************************************************************************

 **************************************************************************

                    xk=(  -0.27333,   0.47343,   0.00000  )

     Band symmetry, C_s (m)     point group:

     e(  1 -  1) =    -15.06021  eV     1   --> A'             
     e(  2 -  2) =    -14.97793  eV     1   --> A'             
     e(  3 -  3) =    -11.79178  eV     1   --> A''            
     e(  4 -  4) =    -11.73167  eV     1   --> A''            
     e(  5 -  5) =    -10.15433  eV     1   --> A'             
     e(  6 -  6) =    -10.10863  eV     1   --> A'             
     e(  7 -  7) =     -2.81068  eV     1   --> A'             
     e(  8 -  8) =     -2.17570  eV     1   --> A'             
     e(  9 -  9) =      1.11484  eV     1   --> A''            
     e( 10 - 10) =      1.63338  eV     1   --> A''            
     e( 11 - 11) =      9.44532  eV     1   --> A'             
     e( 12 - 12) =      9.55180  eV     1   --> A'             
     e( 13 - 13) =      9.77404  eV     1   --> A'             
     e( 14 - 14) =     11.32908  eV     1   --> A'             
     e( 15 - 15) =     11.93290  eV     1   -->   ?
     e( 16 - 16) =     11.93982  eV     1   -->   ?

 **************************************************************************

 **************************************************************************

                    xk=(  -0.28000,   0.48498,   0.00000  )

     Band symmetry, C_s (m)     point group:

     e(  1 -  1) =    -14.83346  eV     1   --> A'             
     e(  2 -  2) =    -14.75266  eV     1   --> A'             
     e(  3 -  3) =    -11.96844  eV     1   --> A''            
     e(  4 -  4) =    -11.90744  eV     1   --> A''            
     e(  5 -  5) =    -10.31641  eV     1   --> A'             
     e(  6 -  6) =    -10.27002  eV     1   --> A'             
     e(  7 -  7) =     -2.57496  eV     1   --> A'             
     e(  8 -  8) =     -1.95056  eV     1   --> A'             
     e(  9 -  9) =      0.87264  eV     1   --> A''            
     e( 10 - 10) =      1.39659  eV     1   --> A''            
     e( 11 - 11) =      9.46227  eV     1   --> A'             
     e( 12 - 12) =      9.77751  eV     1   --> A'             
     e( 13 - 13) =     10.03014  eV     1   --> A'             
     e( 14 - 14) =     11.65553  eV     1   --> A'             
     e( 15 - 15) =     11.99583  eV     1   -->   ?
     e( 16 - 16) =     12.00018  eV     1   -->   ?

 **************************************************************************

 **************************************************************************

                    xk=(  -0.28666,   0.49652,   0.00000  )

     Band symmetry, C_s (m)     point group:

     e(  1 -  1) =    -14.60630  eV     1   --> A'             
     e(  2 -  2) =    -14.52696  eV     1   --> A'             
     e(  3 -  3) =    -12.14037  eV     1   --> A''            
     e(  4 -  4) =    -12.07819  eV     1   --> A''            
     e(  5 -  5) =    -10.47064  eV     1   --> A'             
     e(  6 -  6) =    -10.42354  eV     1   --> A'             
     e(  7 -  7) =     -2.34098  eV     1   --> A'             
     e(  8 -  8) =     -1.72697  eV     1   --> A'             
     e(  9 -  9) =      0.63646  eV     1   --> A''            
     e( 10 - 10) =      1.16524  eV     1   --> A''            
     e( 11 - 11) =      9.38400  eV     1   --> A'             
     e( 12 - 12) =     10.09342  eV     1   --> A'             
     e( 13 - 13) =     10.25960  eV     1   --> A'             
     e( 14 - 14) =     11.95713  eV     1   --> A'             
     e( 15 - 15) =     12.01026  eV     1   --> A''            
     e( 16 - 16) =     12.04124  eV     1   --> A'             

 **************************************************************************

 **************************************************************************

                    xk=(  -0.29333,   0.50807,   0.00000  )

     Band symmetry, C_s (m)     point group:

     e(  1 -  1) =    -14.37981  eV     1   --> A'             
     e(  2 -  2) =    -14.30211  eV     1   --> A'             
     e(  3 -  3) =    -12.30711  eV     1   --> A''            
     e(  4 -  4) =    -12.24379  eV     1   --> A''            
     e(  5 -  5) =    -10.61569  eV     1   --> A'             
     e(  6 -  6) =    -10.56788  eV     1   --> A'             
     e(  7 -  7) =     -2.10951  eV     1   --> A'             
     e(  8 -  8) =     -1.50573  eV     1   --> A'             
     e(  9 -  9) =      0.40640  eV     1   --> A''            
     e( 10 - 10) =      0.94042  eV     1   --> A''            
     e( 11 - 11) =      9.30481  eV     1   --> A'             
     e( 12 - 12) =     10.40803  eV     1   --> A'             
     e( 13 - 13) =     10.45000  eV     1   --> A'             
     e( 14 - 14) =     12.01540  eV     1   --> A''            
     e( 15 - 15) =     12.09863  eV     1   --> A'             
     e( 16 - 16) =     12.17436  eV     1   --> A'             

 **************************************************************************

 **************************************************************************

                    xk=(  -0.30000,   0.51962,   0.00000  )

     Band symmetry, C_s (m)     point group:

     e(  1 -  1) =    -14.15575  eV     1   --> A'             
     e(  2 -  2) =    -14.07959  eV     1   --> A'             
     e(  3 -  3) =    -12.46895  eV     1   --> A''            
     e(  4 -  4) =    -12.40464  eV     1   --> A''            
     e(  5 -  5) =    -10.74946  eV     1   --> A'             
     e(  6 -  6) =    -10.70154  eV     1   --> A'             
     e(  7 -  7) =     -1.88189  eV     1   --> A'             
     e(  8 -  8) =     -1.28769  eV     1   --> A'             
     e(  9 -  9) =      0.18252  eV     1   --> A''            
     e( 10 - 10) =      0.72188  eV     1   --> A''            
     e( 11 - 11) =      9.23014  eV     1   --> A'             
     e( 12 - 12) =     10.59113  eV     1   --> A'             
     e( 13 - 13) =     10.71630  eV     1   --> A'             
     e( 14 - 14) =     12.00950  eV     1   --> A''            
     e( 15 - 15) =     12.19229  eV     1   --> A'             
     e( 16 - 16) =     12.29872  eV     1   --> A'             

 **************************************************************************

 **************************************************************************

                    xk=(  -0.30666,   0.53116,   0.00000  )

     Band symmetry, C_s (m)     point group:

     e(  1 -  1) =    -13.93702  eV     1   --> A'             
     e(  2 -  2) =    -13.86215  eV     1   --> A'             
     e(  3 -  3) =    -12.62595  eV     1   --> A''            
     e(  4 -  4) =    -12.56008  eV     1   --> A''            
     e(  5 -  5) =    -10.87027  eV     1   --> A'             
     e(  6 -  6) =    -10.82170  eV     1   --> A'             
     e(  7 -  7) =     -1.65912  eV     1   --> A'             
     e(  8 -  8) =     -1.07424  eV     1   --> A'             
     e(  9 -  9) =     -0.03505  eV     1   --> A''            
     e( 10 - 10) =      0.50880  eV     1   --> A''            
     e( 11 - 11) =      9.16371  eV     1   --> A'             
     e( 12 - 12) =     10.68141  eV     1   --> A'             
     e( 13 - 13) =     11.01134  eV     1   --> A'             
     e( 14 - 14) =     11.99152  eV     1   --> A''            
     e( 15 - 15) =     12.32602  eV     1   --> A'             
     e( 16 - 16) =     12.37194  eV     1   -->   ?

 **************************************************************************

 **************************************************************************

                    xk=(  -0.31333,   0.54271,   0.00000  )

     Band symmetry, C_s (m)     point group:

     e(  1 -  1) =    -13.72667  eV     1   --> A'             
     e(  2 -  2) =    -13.65297  eV     1   --> A'             
     e(  3 -  3) =    -12.77793  eV     1   --> A''            
     e(  4 -  4) =    -12.71089  eV     1   --> A''            
     e(  5 -  5) =    -10.97417  eV     1   --> A'             
     e(  6 -  6) =    -10.92519  eV     1   --> A'             
     e(  7 -  7) =     -1.44213  eV     1   --> A'             
     e(  8 -  8) =     -0.86532  eV     1   --> A'             
     e(  9 -  9) =     -0.24595  eV     1   --> A''            
     e( 10 - 10) =      0.30212  eV     1   --> A''            
     e( 11 - 11) =      9.10841  eV     1   --> A'             
     e( 12 - 12) =     10.72993  eV     1   --> A'             
     e( 13 - 13) =     11.28395  eV     1   --> A'             
     e( 14 - 14) =     11.96175  eV     1   --> A''            
     e( 15 - 15) =     12.41464  eV     1   -->   ?
     e( 16 - 16) =     12.48698  eV     1   -->   ?

 **************************************************************************

 **************************************************************************

                    xk=(  -0.32000,   0.55426,   0.00000  )

     Band symmetry, C_s (m)     point group:

     e(  1 -  1) =    -13.52976  eV     1   --> A'             
     e(  2 -  2) =    -13.45732  eV     1   --> A'             
     e(  3 -  3) =    -12.92470  eV     1   --> A''            
     e(  4 -  4) =    -12.85623  eV     1   --> A''            
     e(  5 -  5) =    -11.05678  eV     1   --> A'             
     e(  6 -  6) =    -11.00738  eV     1   --> A'             
     e(  7 -  7) =     -1.23247  eV     1   --> A'             
     e(  8 -  8) =     -0.66281  eV     1   --> A'             
     e(  9 -  9) =     -0.45007  eV     1   --> A''            
     e( 10 - 10) =      0.10167  eV     1   --> A''            
     e( 11 - 11) =      9.06664  eV     1   --> A'             
     e( 12 - 12) =     10.75074  eV     1   --> A'             
     e( 13 - 13) =     11.51956  eV     1   --> A'             
     e( 14 - 14) =     11.92058  eV     1   --> A''            
     e( 15 - 15) =     12.43716  eV     1   -->   ?
     e( 16 - 16) =     12.65260  eV     1   -->   ?

 **************************************************************************

 **************************************************************************

                    xk=(  -0.32666,   0.56581,   0.00000  )

     Band symmetry, C_s (m)     point group:

     e(  1 -  1) =    -13.35245  eV     1   --> A'             
     e(  2 -  2) =    -13.28111  eV     1   --> A'             
     e(  3 -  3) =    -13.06639  eV     1   --> A''            
     e(  4 -  4) =    -12.99680  eV     1   --> A''            
     e(  5 -  5) =    -11.11176  eV     1   --> A'             
     e(  6 -  6) =    -11.06214  eV     1   --> A'             
     e(  7 -  7) =     -1.03066  eV     1   --> A'             
     e(  8 -  8) =     -0.64767  eV     1   --> A''            
     e(  9 -  9) =     -0.46699  eV     1   --> A'             
     e( 10 - 10) =     -0.09206  eV     1   --> A''            
     e( 11 - 11) =      9.04042  eV     1   --> A'             
     e( 12 - 12) =     10.75677  eV     1   --> A'             
     e( 13 - 13) =     11.69957  eV     1   --> A'             
     e( 14 - 14) =     11.86809  eV     1   --> A''            
     e( 15 - 15) =     12.44852  eV     1   -->   ?
     e( 16 - 16) =     12.79605  eV     1   -->   ?

 **************************************************************************

 **************************************************************************

                    xk=(  -0.33333,   0.57735,   0.00000  )

     zone border point and non-symmorphic group 
     symmetry decomposition not available

 **************************************************************************

 **************************************************************************

                    xk=(  -0.32666,   0.57735,   0.00000  )

     zone border point and non-symmorphic group 
     symmetry decomposition not available

 **************************************************************************

 **************************************************************************

                    xk=(  -0.32000,   0.57735,   0.00000  )

     zone border point and non-symmorphic group 
     symmetry decomposition not available

 **************************************************************************

 **************************************************************************

                    xk=(  -0.31333,   0.57735,   0.00000  )

     zone border point and non-symmorphic group 
     symmetry decomposition not available

 **************************************************************************

 **************************************************************************

                    xk=(  -0.30666,   0.57735,   0.00000  )

     zone border point and non-symmorphic group 
     symmetry decomposition not available

 **************************************************************************

 **************************************************************************

                    xk=(  -0.30000,   0.57735,   0.00000  )

     zone border point and non-symmorphic group 
     symmetry decomposition not available

 **************************************************************************

 **************************************************************************

                    xk=(  -0.29333,   0.57735,   0.00000  )

     zone border point and non-symmorphic group 
     symmetry decomposition not available

 **************************************************************************

 **************************************************************************

                    xk=(  -0.28666,   0.57735,   0.00000  )

     zone border point and non-symmorphic group 
     symmetry decomposition not available

 **************************************************************************

 **************************************************************************

                    xk=(  -0.28000,   0.57735,   0.00000  )

     zone border point and non-symmorphic group 
     symmetry decomposition not available

 **************************************************************************

 **************************************************************************

                    xk=(  -0.27333,   0.57735,   0.00000  )

     zone border point and non-symmorphic group 
     symmetry decomposition not available

 **************************************************************************

 **************************************************************************

                    xk=(  -0.26666,   0.57735,   0.00000  )

     zone border point and non-symmorphic group 
     symmetry decomposition not available

 **************************************************************************

 **************************************************************************

                    xk=(  -0.26000,   0.57735,   0.00000  )

     zone border point and non-symmorphic group 
     symmetry decomposition not available

 **************************************************************************

 **************************************************************************

                    xk=(  -0.25333,   0.57735,   0.00000  )

     zone border point and non-symmorphic group 
     symmetry decomposition not available

 **************************************************************************

 **************************************************************************

                    xk=(  -0.24666,   0.57735,   0.00000  )

     zone border point and non-symmorphic group 
     symmetry decomposition not available

 **************************************************************************

 **************************************************************************

                    xk=(  -0.24000,   0.57735,   0.00000  )

     zone border point and non-symmorphic group 
     symmetry decomposition not available

 **************************************************************************

 **************************************************************************

                    xk=(  -0.23333,   0.57735,   0.00000  )

     zone border point and non-symmorphic group 
     symmetry decomposition not available

 **************************************************************************

 **************************************************************************

                    xk=(  -0.22666,   0.57735,   0.00000  )

     zone border point and non-symmorphic group 
     symmetry decomposition not available

 **************************************************************************

 **************************************************************************

                    xk=(  -0.22000,   0.57735,   0.00000  )

     zone border point and non-symmorphic group 
     symmetry decomposition not available

 **************************************************************************

 **************************************************************************

                    xk=(  -0.21333,   0.57735,   0.00000  )

     zone border point and non-symmorphic group 
     symmetry decomposition not available

 **************************************************************************

 **************************************************************************

                    xk=(  -0.20666,   0.57735,   0.00000  )

     zone border point and non-symmorphic group 
     symmetry decomposition not available

 **************************************************************************

 **************************************************************************

                    xk=(  -0.20000,   0.57735,   0.00000  )

     zone border point and non-symmorphic group 
     symmetry decomposition not available

 **************************************************************************

 **************************************************************************

                    xk=(  -0.19333,   0.57735,   0.00000  )

     zone border point and non-symmorphic group 
     symmetry decomposition not available

 **************************************************************************

 **************************************************************************

                    xk=(  -0.18666,   0.57735,   0.00000  )

     zone border point and non-symmorphic group 
     symmetry decomposition not available

 **************************************************************************

 **************************************************************************

                    xk=(  -0.18000,   0.57735,   0.00000  )

     zone border point and non-symmorphic group 
     symmetry decomposition not available

 **************************************************************************

 **************************************************************************

                    xk=(  -0.17333,   0.57735,   0.00000  )

     zone border point and non-symmorphic group 
     symmetry decomposition not available

 **************************************************************************

 **************************************************************************

                    xk=(  -0.16667,   0.57735,   0.00000  )

     zone border point and non-symmorphic group 
     symmetry decomposition not available

 **************************************************************************

 **************************************************************************

                    xk=(  -0.16000,   0.57735,   0.00000  )

     zone border point and non-symmorphic group 
     symmetry decomposition not available

 **************************************************************************

 **************************************************************************

                    xk=(  -0.15333,   0.57735,   0.00000  )

     zone border point and non-symmorphic group 
     symmetry decomposition not available

 **************************************************************************

 **************************************************************************

                    xk=(  -0.14667,   0.57735,   0.00000  )

     zone border point and non-symmorphic group 
     symmetry decomposition not available

 **************************************************************************

 **************************************************************************

                    xk=(  -0.14000,   0.57735,   0.00000  )

     zone border point and non-symmorphic group 
     symmetry decomposition not available

 **************************************************************************

 **************************************************************************

                    xk=(  -0.13333,   0.57735,   0.00000  )

     zone border point and non-symmorphic group 
     symmetry decomposition not available

 **************************************************************************

 **************************************************************************

                    xk=(  -0.12667,   0.57735,   0.00000  )

     zone border point and non-symmorphic group 
     symmetry decomposition not available

 **************************************************************************

 **************************************************************************

                    xk=(  -0.12000,   0.57735,   0.00000  )

     zone border point and non-symmorphic group 
     symmetry decomposition not available

 **************************************************************************

 **************************************************************************

                    xk=(  -0.11333,   0.57735,   0.00000  )

     zone border point and non-symmorphic group 
[...]
     e(  2 -  2) =    -19.54239  eV     1   --> A'             
     e(  3 -  3) =     -8.04799  eV     1   --> A'             
     e(  4 -  4) =     -7.22294  eV     1   --> A'             
     e(  5 -  5) =     -5.32938  eV     1   --> A'             
     e(  6 -  6) =     -5.30565  eV     1   --> A'             
     e(  7 -  7) =     -4.48648  eV     1   --> A''            
     e(  8 -  8) =     -4.47224  eV     1   --> A''            
     e(  9 -  9) =      3.13666  eV     1   --> A'             
     e( 10 - 10) =      3.59538  eV     1   --> A'             
     e( 11 - 11) =      4.67654  eV     1   --> A'             
     e( 12 - 12) =      5.85892  eV     1   --> A'             
     e( 13 - 13) =      5.97227  eV     1   --> A'             
     e( 14 - 14) =      7.83626  eV     1   --> A'             
     e( 15 - 15) =      7.91599  eV     1   --> A'             
     e( 16 - 16) =      7.91770  eV     1   --> A'             

 **************************************************************************

 **************************************************************************

                    xk=(   0.00000,   0.15011,   0.00000  )

     Band symmetry, C_s (m)     point group:

     e(  1 -  1) =    -19.71819  eV     1   --> A'             
     e(  2 -  2) =    -19.60549  eV     1   --> A'             
     e(  3 -  3) =     -8.12465  eV     1   --> A'             
     e(  4 -  4) =     -7.29749  eV     1   --> A'             
     e(  5 -  5) =     -5.11986  eV     1   --> A'             
     e(  6 -  6) =     -5.09809  eV     1   --> A'             
     e(  7 -  7) =     -4.38620  eV     1   --> A''            
     e(  8 -  8) =     -4.37236  eV     1   --> A''            
     e(  9 -  9) =      3.05129  eV     1   --> A'             
     e( 10 - 10) =      3.50923  eV     1   --> A'             
     e( 11 - 11) =      4.58882  eV     1   --> A'             
     e( 12 - 12) =      5.77172  eV     1   --> A'             
     e( 13 - 13) =      5.89181  eV     1   --> A'             
     e( 14 - 14) =      7.78101  eV     1   --> A'             
     e( 15 - 15) =      7.90156  eV     1   --> A'             
     e( 16 - 16) =      7.92636  eV     1   --> A'             

 **************************************************************************

 **************************************************************************

                    xk=(   0.00000,   0.13856,   0.00000  )

     Band symmetry, C_s (m)     point group:

     e(  1 -  1) =    -19.77698  eV     1   --> A'             
     e(  2 -  2) =    -19.66396  eV     1   --> A'             
     e(  3 -  3) =     -8.19561  eV     1   --> A'             
     e(  4 -  4) =     -7.36629  eV     1   --> A'             
     e(  5 -  5) =     -4.92026  eV     1   --> A'             
     e(  6 -  6) =     -4.89992  eV     1   --> A'             
     e(  7 -  7) =     -4.28887  eV     1   --> A''            
     e(  8 -  8) =     -4.27577  eV     1   --> A''            
     e(  9 -  9) =      2.97224  eV     1   --> A'             
     e( 10 - 10) =      3.42947  eV     1   --> A'             
     e( 11 - 11) =      4.50761  eV     1   --> A'             
     e( 12 - 12) =      5.69102  eV     1   --> A'             
     e( 13 - 13) =      5.81720  eV     1   --> A'             
     e( 14 - 14) =      7.71227  eV     1   --> A'             
     e( 15 - 15) =      7.90251  eV     1   --> A'             
     e( 16 - 16) =      7.93105  eV     1   --> A'             

 **************************************************************************

 **************************************************************************

                    xk=(   0.00000,   0.12702,   0.00000  )

     Band symmetry, C_s (m)     point group:

     e(  1 -  1) =    -19.83118  eV     1   --> A'             
     e(  2 -  2) =    -19.71775  eV     1   --> A'             
     e(  3 -  3) =     -8.26094  eV     1   --> A'             
     e(  4 -  4) =     -7.42996  eV     1   --> A'             
     e(  5 -  5) =     -4.73117  eV     1   --> A'             
     e(  6 -  6) =     -4.71184  eV     1   --> A'             
     e(  7 -  7) =     -4.19634  eV     1   --> A''            
     e(  8 -  8) =     -4.18322  eV     1   --> A''            
     e(  9 -  9) =      2.89949  eV     1   --> A'             
     e( 10 - 10) =      3.35603  eV     1   --> A'             
     e( 11 - 11) =      4.43287  eV     1   --> A'             
     e( 12 - 12) =      5.61668  eV     1   --> A'             
     e( 13 - 13) =      5.74839  eV     1   --> A'             
     e( 14 - 14) =      7.64535  eV     1   --> A'             
     e( 15 - 15) =      7.90315  eV     1   --> A'             
     e( 16 - 16) =      7.93292  eV     1   --> A'             

 **************************************************************************

 **************************************************************************

                    xk=(   0.00000,   0.11547,   0.00000  )

     Band symmetry, C_s (m)     point group:

     e(  1 -  1) =    -19.88070  eV     1   --> A'             
     e(  2 -  2) =    -19.76692  eV     1   --> A'             
     e(  3 -  3) =     -8.32083  eV     1   --> A'             
     e(  4 -  4) =     -7.48820  eV     1   --> A'             
     e(  5 -  5) =     -4.55395  eV     1   --> A'             
     e(  6 -  6) =     -4.53618  eV     1   --> A'             
     e(  7 -  7) =     -4.10809  eV     1   --> A''            
     e(  8 -  8) =     -4.09536  eV     1   --> A''            
     e(  9 -  9) =      2.83307  eV     1   --> A'             
     e( 10 - 10) =      3.28895  eV     1   --> A'             
     e( 11 - 11) =      4.36463  eV     1   --> A'             
     e( 12 - 12) =      5.54884  eV     1   --> A'             
     e( 13 - 13) =      5.68547  eV     1   --> A'             
     e( 14 - 14) =      7.58306  eV     1   --> A'             
     e( 15 - 15) =      7.90111  eV     1   --> A'             
     e( 16 - 16) =      7.93050  eV     1   --> A'             

 **************************************************************************

 **************************************************************************

                    xk=(   0.00000,   0.10392,   0.00000  )

     Band symmetry, C_s (m)     point group:

     e(  1 -  1) =    -19.92551  eV     1   --> A'             
     e(  2 -  2) =    -19.81133  eV     1   --> A'             
     e(  3 -  3) =     -8.37489  eV     1   --> A'             
     e(  4 -  4) =     -7.54113  eV     1   --> A'             
     e(  5 -  5) =     -4.38915  eV     1   --> A'             
     e(  6 -  6) =     -4.37240  eV     1   --> A'             
     e(  7 -  7) =     -4.02443  eV     1   --> A''            
     e(  8 -  8) =     -4.01281  eV     1   --> A''            
     e(  9 -  9) =      2.77297  eV     1   --> A'             
     e( 10 - 10) =      3.22823  eV     1   --> A'             
     e( 11 - 11) =      4.30289  eV     1   --> A'             
     e( 12 - 12) =      5.48743  eV     1   --> A'             
     e( 13 - 13) =      5.62852  eV     1   --> A'             
     e( 14 - 14) =      7.52635  eV     1   --> A'             
     e( 15 - 15) =      7.89636  eV     1   -->   ?
     e( 16 - 16) =      7.92672  eV     1   --> A'             

 **************************************************************************

 **************************************************************************

                    xk=(   0.00000,   0.09238,   0.00000  )

     Band symmetry, C_s (m)     point group:

     e(  1 -  1) =    -19.96565  eV     1   --> A'             
     e(  2 -  2) =    -19.85112  eV     1   --> A'             
     e(  3 -  3) =     -8.42309  eV     1   --> A'             
     e(  4 -  4) =     -7.58843  eV     1   --> A'             
     e(  5 -  5) =     -4.23851  eV     1   --> A'             
     e(  6 -  6) =     -4.22293  eV     1   --> A'             
     e(  7 -  7) =     -3.94791  eV     1   --> A''            
     e(  8 -  8) =     -3.93661  eV     1   --> A''            
     e(  9 -  9) =      2.71919  eV     1   --> A'             
     e( 10 - 10) =      3.17390  eV     1   --> A'             
     e( 11 - 11) =      4.24765  eV     1   --> A'             
     e( 12 - 12) =      5.43246  eV     1   --> A'             
     e( 13 - 13) =      5.57758  eV     1   --> A'             
     e( 14 - 14) =      7.47529  eV     1   --> A'             
     e( 15 - 15) =      7.88783  eV     1   -->   ?
     e( 16 - 16) =      7.91922  eV     1   --> A'             

 **************************************************************************

 **************************************************************************

                    xk=(   0.00000,   0.08083,   0.00000  )

     Band symmetry, C_s (m)     point group:

     e(  1 -  1) =    -20.00105  eV     1   --> A'             
     e(  2 -  2) =    -19.88624  eV     1   --> A'             
     e(  3 -  3) =     -8.46591  eV     1   --> A'             
     e(  4 -  4) =     -7.63028  eV     1   --> A'             
     e(  5 -  5) =     -4.10238  eV     1   --> A'             
     e(  6 -  6) =     -4.08839  eV     1   --> A'             
     e(  7 -  7) =     -3.87808  eV     1   --> A''            
     e(  8 -  8) =     -3.86693  eV     1   --> A''            
     e(  9 -  9) =      2.67175  eV     1   --> A'             
     e( 10 - 10) =      3.12595  eV     1   --> A'             
     e( 11 - 11) =      4.19890  eV     1   --> A'             
     e( 12 - 12) =      5.38395  eV     1   --> A'             
     e( 13 - 13) =      5.53254  eV     1   --> A'             
     e( 14 - 14) =      7.43012  eV     1   --> A'             
     e( 15 - 15) =      7.87820  eV     1   -->   ?
     e( 16 - 16) =      7.91037  eV     1   --> A'             

 **************************************************************************

 **************************************************************************

                    xk=(   0.00000,   0.06928,   0.00000  )

     Band symmetry, C_s (m)     point group:

     e(  1 -  1) =    -20.03178  eV     1   --> A'             
     e(  2 -  2) =    -19.91673  eV     1   --> A'             
     e(  3 -  3) =     -8.50315  eV     1   --> A'             
     e(  4 -  4) =     -7.66658  eV     1   --> A'             
     e(  5 -  5) =     -3.98181  eV     1   --> A'             
     e(  6 -  6) =     -3.96881  eV     1   --> A'             
     e(  7 -  7) =     -3.81619  eV     1   --> A''            
     e(  8 -  8) =     -3.80481  eV     1   --> A''            
     e(  9 -  9) =      2.63063  eV     1   --> A'             
     e( 10 - 10) =      3.08438  eV     1   --> A'             
     e( 11 - 11) =      4.15665  eV     1   --> A'             
     e( 12 - 12) =      5.34192  eV     1   --> A'             
     e( 13 - 13) =      5.49348  eV     1   --> A'             
     e( 14 - 14) =      7.39081  eV     1   --> A'             
     e( 15 - 15) =      7.86733  eV     1   -->   ?
     e( 16 - 16) =      7.90045  eV     1   --> A'             

 **************************************************************************

 **************************************************************************

                    xk=(   0.00000,   0.05774,   0.00000  )

     Band symmetry, C_s (m)     point group:

     e(  1 -  1) =    -20.05775  eV     1   --> A'             
     e(  2 -  2) =    -19.94253  eV     1   --> A'             
     e(  3 -  3) =     -8.53458  eV     1   --> A'             
     e(  4 -  4) =     -7.69720  eV     1   --> A'             
     e(  5 -  5) =     -3.87780  eV     1   --> A'             
     e(  6 -  6) =     -3.86585  eV     1   --> A'             
     e(  7 -  7) =     -3.76210  eV     1   --> A''            
     e(  8 -  8) =     -3.75118  eV     1   --> A''            
     e(  9 -  9) =      2.59584  eV     1   --> A'             
     e( 10 - 10) =      3.04922  eV     1   --> A'             
     e( 11 - 11) =      4.12090  eV     1   --> A'             
     e( 12 - 12) =      5.30636  eV     1   --> A'             
     e( 13 - 13) =      5.46044  eV     1   --> A'             
     e( 14 - 14) =      7.35756  eV     1   --> A'             
     e( 15 - 15) =      7.85615  eV     1   -->   ?
     e( 16 - 16) =      7.89036  eV     1   --> A'             

 **************************************************************************

 **************************************************************************

                    xk=(   0.00000,   0.04619,   0.00000  )

     Band symmetry, C_s (m)     point group:

     e(  1 -  1) =    -20.07900  eV     1   --> A'             
     e(  2 -  2) =    -19.96362  eV     1   --> A'             
     e(  3 -  3) =     -8.56063  eV     1   --> A'             
     e(  4 -  4) =     -7.72233  eV     1   --> A'             
     e(  5 -  5) =     -3.79036  eV     1   --> A'             
     e(  6 -  6) =     -3.78005  eV     1   --> A'             
     e(  7 -  7) =     -3.71652  eV     1   --> A''            
     e(  8 -  8) =     -3.70578  eV     1   --> A''            
     e(  9 -  9) =      2.56738  eV     1   --> A'             
     e( 10 - 10) =      3.02044  eV     1   --> A'             
     e( 11 - 11) =      4.09165  eV     1   --> A'             
     e( 12 - 12) =      5.27727  eV     1   --> A'             
     e( 13 - 13) =      5.43332  eV     1   --> A'             
     e( 14 - 14) =      7.33026  eV     1   --> A'             
     e( 15 - 15) =      7.84509  eV     1   -->   ?
     e( 16 - 16) =      7.88163  eV     1   --> A'             

 **************************************************************************

 **************************************************************************

                    xk=(   0.00000,   0.03464,   0.00000  )

     Band symmetry, C_s (m)     point group:

     e(  1 -  1) =    -20.09554  eV     1   --> A'             
     e(  2 -  2) =    -19.98001  eV     1   --> A'             
     e(  3 -  3) =     -8.58052  eV     1   --> A'             
     e(  4 -  4) =     -7.74192  eV     1   --> A'             
     e(  5 -  5) =     -3.72242  eV     1   --> A'             
     e(  6 -  6) =     -3.71214  eV     1   --> A'             
     e(  7 -  7) =     -3.68062  eV     1   --> A''            
     e(  8 -  8) =     -3.67019  eV     1   --> A''            
     e(  9 -  9) =      2.54524  eV     1   --> A'             
     e( 10 - 10) =      2.99806  eV     1   --> A'             
     e( 11 - 11) =      4.06891  eV     1   --> A'             
     e( 12 - 12) =      5.25462  eV     1   --> A'             
     e( 13 - 13) =      5.41233  eV     1   --> A'             
     e( 14 - 14) =      7.30908  eV     1   --> A'             
     e( 15 - 15) =      7.83712  eV     1   -->   ?
     e( 16 - 16) =      7.87380  eV     1   -->   ?

 **************************************************************************

 **************************************************************************

                    xk=(   0.00000,   0.02309,   0.00000  )

     Band symmetry, C_s (m)     point group:

     e(  1 -  1) =    -20.10735  eV     1   --> A'             
     e(  2 -  2) =    -19.99174  eV     1   --> A'             
     e(  3 -  3) =     -8.59479  eV     1   --> A'             
     e(  4 -  4) =     -7.75586  eV     1   --> A'             
     e(  5 -  5) =     -3.67305  eV     1   --> A'             
     e(  6 -  6) =     -3.66286  eV     1   --> A'             
     e(  7 -  7) =     -3.65488  eV     1   --> A''            
     e(  8 -  8) =     -3.64454  eV     1   --> A''            
     e(  9 -  9) =      2.52943  eV     1   --> A'             
     e( 10 - 10) =      2.98207  eV     1   --> A'             
     e( 11 - 11) =      4.05266  eV     1   --> A'             
     e( 12 - 12) =      5.23846  eV     1   --> A'             
     e( 13 - 13) =      5.39732  eV     1   --> A'             
     e( 14 - 14) =      7.29395  eV     1   --> A'             
     e( 15 - 15) =      7.82931  eV     1   -->   ?
     e( 16 - 16) =      7.86359  eV     1   --> A''            

 **************************************************************************

 **************************************************************************

                    xk=(   0.00000,   0.01155,   0.00000  )

     Band symmetry, C_s (m)     point group:

     e(  1 -  1) =    -20.11444  eV     1   --> A'             
     e(  2 -  2) =    -19.99878  eV     1   --> A'             
     e(  3 -  3) =     -8.60338  eV     1   --> A'             
     e(  4 -  4) =     -7.76419  eV     1   --> A'             
     e(  5 -  5) =     -3.64422  eV     1   --> A'             
     e(  6 -  6) =     -3.63939  eV     1   --> A''            
     e(  7 -  7) =     -3.63366  eV     1   --> A'             
     e(  8 -  8) =     -3.62905  eV     1   --> A''            
     e(  9 -  9) =      2.51994  eV     1   --> A'             
     e( 10 - 10) =      2.97248  eV     1   --> A'             
     e( 11 - 11) =      4.04291  eV     1   --> A'             
     e( 12 - 12) =      5.22877  eV     1   --> A'             
     e( 13 - 13) =      5.38831  eV     1   --> A'             
     e( 14 - 14) =      7.28487  eV     1   --> A'             
     e( 15 - 15) =      7.82401  eV     1   -->   ?
     e( 16 - 16) =      7.83255  eV     1   --> A''            

 **************************************************************************

 **************************************************************************

                    xk=(   0.00000,   0.00000,   0.00000  )

     point group C_6v (6mm) 
     there are  6 classes
     the character table:

       E     2C6   2C3   C2    3s_v  3s_d 
A_1    1.00  1.00  1.00  1.00  1.00  1.00
A_2    1.00  1.00  1.00  1.00 -1.00 -1.00
B_1    1.00 -1.00  1.00 -1.00  1.00 -1.00
B_2    1.00 -1.00  1.00 -1.00 -1.00  1.00
E_1    2.00  1.00 -1.00 -2.00  0.00  0.00
E_2    2.00 -1.00 -1.00  2.00  0.00  0.00

     the symmetry operations in each class and the name of the first element:

     E        1
                                                                 
     2C6      3    4
                                                                 
     2C3      5    6
                                                                 
     C2       2
                                                                 
     3s_v     8   12   11
                                                                 
     3s_d     7    9   10
                                                                 

     Band symmetry, C_6v (6mm)  point group:

     e(  1 -  1) =    -20.11691  eV     1   --> A_1            
     e(  2 -  2) =    -20.00117  eV     1   --> A_1            
     e(  3 -  3) =     -8.60634  eV     1   --> A_1            
     e(  4 -  4) =     -7.76719  eV     1   --> A_1            
     e(  5 -  6) =     -3.63407  eV     2   --> E_2            
     e(  7 -  8) =     -3.62385  eV     2   --> E_2            
     e(  9 -  9) =      2.51677  eV     1   --> A_1            
     e( 10 - 10) =      2.96927  eV     1   --> A_1            
     e( 11 - 11) =      4.03967  eV     1   --> A_1            
     e( 12 - 12) =      5.22555  eV     1   --> A_1            
     e( 13 - 13) =      5.38532  eV     1   --> A_1            
     e( 14 - 14) =      7.28217  eV     1   -->   ?
     e( 15 - 16) =      7.82092  eV     2   --> E_1            

 **************************************************************************

     BANDS        :     12.64s CPU     12.84s WALL


   This run was terminated on:  16:25:14  14Apr2024            

=------------------------------------------------------------------------------=
   JOB DONE.
=------------------------------------------------------------------------------=
