
     Program BANDS v.7.2 starts on  8Apr2024 at 11: 8:59 

     This program is part of the open-source Quantum ESPRESSO suite
     for quantum simulation of materials; please cite
         "P. Giannozzi et al., J. Phys.:Condens. Matter 21 395502 (2009);
         "P. Giannozzi et al., J. Phys.:Condens. Matter 29 465901 (2017);
         "P. Giannozzi et al., J. Chem. Phys. 152 154105 (2020);
          URL http://www.quantum-espresso.org", 
     in publications or presentations arising from this work. More details at
     http://www.quantum-espresso.org/quote

     Parallel version (MPI & OpenMP), running on       8 processor cores
     Number of MPI processes:                 8
     Threads/MPI process:                     1

     MPI processes distributed on     1 nodes
     R & G space division:  proc/nbgrp/npool/nimage =       8
     0 MiB available memory on the printing compute node when the environment starts


     Reading xml data from directory:

     ./tmp/C2L_AA_PBE_vdW.save/

     IMPORTANT: XC functional enforced from input :
     Exchange-correlation= VDW-DF2-B86R
                           (   1   4  26   0   2   0   0)
     Any further DFT definition will be discarded
     Please, verify this is what you really want


     Parallelization info
     --------------------
     sticks:   dense  smooth     PW     G-vecs:    dense   smooth      PW
     Min          45      45     13                 4143     4143     699
     Max          46      46     14                 4164     4164     720
     Sum         361     361    109                33235    33235    5693

     Using Slab Decomposition



     %%%%%%%%%%%%%%%%%%%%%%%%%%%%%%%%%%%%%%%%%%%%%%%%%%%%%%%%%%%%%%%%%%%%%%%%
     %                                                                      %
     % You are using vdW-DF, which was implemented by the Thonhauser group. %
     % Please cite the following two papers that made this development      %
     % possible and the two reviews that describe the various versions:     %
     %                                                                      %
     %   T. Thonhauser et al., PRL 115, 136402 (2015).                      %
     %   T. Thonhauser et al., PRB 76, 125112 (2007).                       %
     %   K. Berland et al., Rep. Prog. Phys. 78, 066501 (2015).             %
     %   D.C. Langreth et al., J. Phys.: Condens. Matter 21, 084203 (2009). %
     %                                                                      %
     % If you are calculating stress with vdW-DF, please also cite:         %
     %                                                                      %
     %   R. Sabatini et al., J. Phys.: Condens. Matter 24, 424209 (2012).   %
     %                                                                      %
     %%%%%%%%%%%%%%%%%%%%%%%%%%%%%%%%%%%%%%%%%%%%%%%%%%%%%%%%%%%%%%%%%%%%%%%%

     %%%%%%%%%%%%%%%%%%%%%%%%%%%%%%%%%%%%%%%%%%%%%%%%%%%%%%%%%%%%%%%%%%%%%%%%
     %                                                                      %
     %  vdW-DF NEWS:                                                        %
     %                                                                      %
     %  * vdW-DF3 is now available. DOI: 10.1021/acs.jctc.0c00471           %
     %    use with input_dft = 'vdW-DF3-opt1' or 'vdW-DF3-opt2'             %
     %                                                                      %
     %  * Unscreened and range-separated hybrid vdW-DF-cx functionals       %
     %    DOI: 10.1063/1.4986522 and 10.1088/1361-648X/ac2ad2               %
     %    use with input_dft = 'vdW-DF-cx0'    and 'vdW-DF-ahcx'            %
     %  * Unscreened and range-separated hybrid vdW-DF2-b86r functionals    %
     %    DOI: 10.1063/1.4986522 and DOI: 10.1103/PhysRevX.12.041003        %
     %    use with input_dft = 'vdW-DF2-br0' and 'vdW-DF2-ahbr'             %
     %                                                                      %
     %%%%%%%%%%%%%%%%%%%%%%%%%%%%%%%%%%%%%%%%%%%%%%%%%%%%%%%%%%%%%%%%%%%%%%%%


     Reading collected, re-writing distributed wavefunctions
     high-symmetry point:  0.0000 0.0000 0.0000   x coordinate   0.0000
     high-symmetry point: -0.3333 0.5774 0.0000   x coordinate   0.6667
     high-symmetry point:  0.0000 0.5774 0.0000   x coordinate   1.0000
     high-symmetry point:  0.0000 0.0000 0.0000   x coordinate   1.5773

     Plottable bands (eV) written to file Bande_C2L_AA_PBE_vdW.dat.gnu
     Bands written to file Bande_C2L_AA_PBE_vdW.dat

 **************************************************************************

                    xk=(   0.00000,   0.00000,   0.00000  )

     point group C_6v (6mm) 
     there are  6 classes
     the character table:

       E     2C6   2C3   C2    3s_v  3s_d 
A_1    1.00  1.00  1.00  1.00  1.00  1.00
A_2    1.00  1.00  1.00  1.00 -1.00 -1.00
B_1    1.00 -1.00  1.00 -1.00  1.00 -1.00
B_2    1.00 -1.00  1.00 -1.00 -1.00  1.00
E_1    2.00  1.00 -1.00 -2.00  0.00  0.00
E_2    2.00 -1.00 -1.00  2.00  0.00  0.00

     the symmetry operations in each class and the name of the first element:

     E        1
                                                                 
     2C6      3    4
                                                                 
     2C3      5    6
                                                                 
     C2       2
                                                                 
     3s_v     8   12   11
                                                                 
     3s_d     7    9   10
                                                                 

     Band symmetry, C_6v (6mm)  point group:

     e(  1 -  1) =    -18.82653  eV     1   --> A_1            
     e(  2 -  2) =    -18.70859  eV     1   --> A_1            
     e(  3 -  3) =     -7.32009  eV     1   --> A_1            
     e(  4 -  4) =     -6.47000  eV     1   --> A_1            
     e(  5 -  6) =     -2.34296  eV     2   --> E_2            
     e(  7 -  8) =     -2.33280  eV     2   --> E_2            
     e(  9 -  9) =      3.75214  eV     1   --> A_1            
     e( 10 - 10) =      4.38543  eV     1   --> A_1            
     e( 11 - 11) =      5.75986  eV     1   --> A_1            
     e( 12 - 12) =      7.76451  eV     1   --> A_1            
     e( 13 - 13) =      8.80501  eV     1   --> A_1            
     e( 14 - 15) =      9.11188  eV     2   --> E_1            
     e( 16 - 16) =      9.15266  eV     1   -->   ?

 **************************************************************************

 **************************************************************************

                    xk=(  -0.00667,   0.01155,   0.00000  )

     point group C_s (m)    
     there are  2 classes
     the character table:

       E     s    
A'     1.00  1.00
A''    1.00 -1.00

     the symmetry operations in each class and the name of the first element:

     E        1
                                                                 
     s        2
                                                                 

     Band symmetry, C_s (m)     point group:

     e(  1 -  1) =    -18.82338  eV     1   --> A'             
     e(  2 -  2) =    -18.70546  eV     1   --> A'             
     e(  3 -  3) =     -7.31628  eV     1   --> A'             
     e(  4 -  4) =     -6.46627  eV     1   --> A'             
     e(  5 -  5) =     -2.35611  eV     1   --> A''            
     e(  6 -  6) =     -2.34987  eV     1   --> A'             
     e(  7 -  7) =     -2.34585  eV     1   --> A''            
     e(  8 -  8) =     -2.33968  eV     1   --> A'             
     e(  9 -  9) =      3.75637  eV     1   --> A'             
     e( 10 - 10) =      4.38967  eV     1   --> A'             
     e( 11 - 11) =      5.76404  eV     1   --> A'             
     e( 12 - 12) =      7.76836  eV     1   --> A'             
     e( 13 - 13) =      8.80887  eV     1   --> A'             
     e( 14 - 14) =      9.11401  eV     1   --> A'             
     e( 15 - 15) =      9.12568  eV     1   --> A''            
     e( 16 - 16) =      9.15513  eV     1   --> A'             

 **************************************************************************

 **************************************************************************

                    xk=(  -0.01333,   0.02309,   0.00000  )

     Band symmetry, C_s (m)     point group:

     e(  1 -  1) =    -18.81392  eV     1   --> A'             
     e(  2 -  2) =    -18.69606  eV     1   --> A'             
     e(  3 -  3) =     -7.30482  eV     1   --> A'             
     e(  4 -  4) =     -6.45510  eV     1   --> A'             
     e(  5 -  5) =     -2.39575  eV     1   --> A''            
     e(  6 -  6) =     -2.38480  eV     1   --> A''            
     e(  7 -  7) =     -2.37081  eV     1   --> A'             
     e(  8 -  8) =     -2.36041  eV     1   --> A'             
     e(  9 -  9) =      3.76906  eV     1   --> A'             
     e( 10 - 10) =      4.40239  eV     1   --> A'             
     e( 11 - 11) =      5.77655  eV     1   --> A'             
     e( 12 - 12) =      7.77990  eV     1   --> A'             
     e( 13 - 13) =      8.82043  eV     1   --> A'             
     e( 14 - 14) =      9.12013  eV     1   --> A'             
     e( 15 - 15) =      9.16246  eV     1   --> A'             
     e( 16 - 16) =      9.16660  eV     1   --> A''            

 **************************************************************************

 **************************************************************************

                    xk=(  -0.02000,   0.03464,   0.00000  )

     Band symmetry, C_s (m)     point group:

     e(  1 -  1) =    -18.79820  eV     1   --> A'             
     e(  2 -  2) =    -18.68050  eV     1   --> A'             
     e(  3 -  3) =     -7.28588  eV     1   --> A'             
     e(  4 -  4) =     -6.43666  eV     1   --> A'             
     e(  5 -  5) =     -2.46172  eV     1   --> A''            
     e(  6 -  6) =     -2.45046  eV     1   --> A''            
     e(  7 -  7) =     -2.40554  eV     1   --> A'             
     e(  8 -  8) =     -2.39523  eV     1   --> A'             
     e(  9 -  9) =      3.79020  eV     1   --> A'             
     e( 10 - 10) =      4.42358  eV     1   --> A'             
     e( 11 - 11) =      5.79739  eV     1   --> A'             
     e( 12 - 12) =      7.79906  eV     1   --> A'             
     e( 13 - 13) =      8.83961  eV     1   --> A'             
     e( 14 - 14) =      9.13064  eV     1   --> A'             
     e( 15 - 15) =      9.17341  eV     1   --> A'             
     e( 16 - 16) =      9.23369  eV     1   --> A''            

 **************************************************************************

 **************************************************************************

                    xk=(  -0.02667,   0.04619,   0.00000  )

     Band symmetry, C_s (m)     point group:

     e(  1 -  1) =    -18.77615  eV     1   --> A'             
     e(  2 -  2) =    -18.65867  eV     1   --> A'             
     e(  3 -  3) =     -7.25930  eV     1   --> A'             
     e(  4 -  4) =     -6.41064  eV     1   --> A'             
     e(  5 -  5) =     -2.55111  eV     1   --> A''            
     e(  6 -  6) =     -2.53925  eV     1   --> A''            
     e(  7 -  7) =     -2.45441  eV     1   --> A'             
     e(  8 -  8) =     -2.44354  eV     1   --> A'             
     e(  9 -  9) =      3.81981  eV     1   --> A'             
     e( 10 - 10) =      4.45326  eV     1   --> A'             
     e( 11 - 11) =      5.82659  eV     1   --> A'             
     e( 12 - 12) =      7.82592  eV     1   --> A'             
     e( 13 - 13) =      8.86640  eV     1   --> A'             
     e( 14 - 14) =      9.14585  eV     1   --> A'             
     e( 15 - 15) =      9.19018  eV     1   --> A'             
     e( 16 - 16) =      9.32526  eV     1   --> A''            

 **************************************************************************

 **************************************************************************

                    xk=(  -0.03333,   0.05774,   0.00000  )

     Band symmetry, C_s (m)     point group:

     e(  1 -  1) =    -18.74781  eV     1   --> A'             
     e(  2 -  2) =    -18.63051  eV     1   --> A'             
     e(  3 -  3) =     -7.22494  eV     1   --> A'             
     e(  4 -  4) =     -6.37715  eV     1   --> A'             
     e(  5 -  5) =     -2.66234  eV     1   --> A''            
     e(  6 -  6) =     -2.64934  eV     1   --> A''            
     e(  7 -  7) =     -2.51605  eV     1   --> A'             
     e(  8 -  8) =     -2.50469  eV     1   --> A'             
     e(  9 -  9) =      3.85788  eV     1   --> A'             
     e( 10 - 10) =      4.49142  eV     1   --> A'             
     e( 11 - 11) =      5.86415  eV     1   --> A'             
     e( 12 - 12) =      7.86053  eV     1   --> A'             
     e( 13 - 13) =      8.90069  eV     1   --> A'             
     e( 14 - 14) =      9.16541  eV     1   --> A'             
     e( 15 - 15) =      9.21343  eV     1   --> A'             
     e( 16 - 16) =      9.43877  eV     1   --> A''            

 **************************************************************************

 **************************************************************************

                    xk=(  -0.04000,   0.06928,   0.00000  )

     Band symmetry, C_s (m)     point group:

     e(  1 -  1) =    -18.71327  eV     1   --> A'             
     e(  2 -  2) =    -18.59612  eV     1   --> A'             
     e(  3 -  3) =     -7.18305  eV     1   --> A'             
     e(  4 -  4) =     -6.33665  eV     1   --> A'             
     e(  5 -  5) =     -2.79525  eV     1   --> A''            
     e(  6 -  6) =     -2.78043  eV     1   --> A''            
     e(  7 -  7) =     -2.59131  eV     1   --> A'             
     e(  8 -  8) =     -2.57866  eV     1   --> A'             
     e(  9 -  9) =      3.90442  eV     1   --> A'             
     e( 10 - 10) =      4.53801  eV     1   --> A'             
     e( 11 - 11) =      5.91003  eV     1   --> A'             
     e( 12 - 12) =      7.90276  eV     1   --> A'             
     e( 13 - 13) =      8.94228  eV     1   --> A'             
     e( 14 - 14) =      9.18906  eV     1   --> A'             
     e( 15 - 15) =      9.24249  eV     1   --> A'             
     e( 16 - 16) =      9.57049  eV     1   --> A''            

 **************************************************************************

 **************************************************************************

                    xk=(  -0.04667,   0.08083,   0.00000  )

     Band symmetry, C_s (m)     point group:

     e(  1 -  1) =    -18.67235  eV     1   --> A'             
     e(  2 -  2) =    -18.55549  eV     1   --> A'             
     e(  3 -  3) =     -7.13357  eV     1   --> A'             
     e(  4 -  4) =     -6.28844  eV     1   --> A'             
     e(  5 -  5) =     -2.94667  eV     1   --> A''            
     e(  6 -  6) =     -2.93082  eV     1   --> A''            
     e(  7 -  7) =     -2.67825  eV     1   --> A'             
     e(  8 -  8) =     -2.66521  eV     1   --> A'             
     e(  9 -  9) =      3.95942  eV     1   --> A'             
     e( 10 - 10) =      4.59312  eV     1   --> A'             
     e( 11 - 11) =      5.96429  eV     1   --> A'             
     e( 12 - 12) =      7.95268  eV     1   --> A'             
     e( 13 - 13) =      8.99109  eV     1   --> A'             
     e( 14 - 14) =      9.21811  eV     1   --> A'             
     e( 15 - 15) =      9.27764  eV     1   --> A'             
     e( 16 - 16) =      9.71914  eV     1   --> A''            

 **************************************************************************

 **************************************************************************

                    xk=(  -0.05333,   0.09238,   0.00000  )

     Band symmetry, C_s (m)     point group:

     e(  1 -  1) =    -18.62514  eV     1   --> A'             
     e(  2 -  2) =    -18.50861  eV     1   --> A'             
     e(  3 -  3) =     -7.07647  eV     1   --> A'             
     e(  4 -  4) =     -6.23272  eV     1   --> A'             
     e(  5 -  5) =     -3.11528  eV     1   --> A''            
     e(  6 -  6) =     -3.09811  eV     1   --> A''            
     e(  7 -  7) =     -2.77707  eV     1   --> A'             
     e(  8 -  8) =     -2.76357  eV     1   --> A'             
     e(  9 -  9) =      4.02288  eV     1   --> A'             
     e( 10 - 10) =      4.65671  eV     1   --> A'             
     e( 11 - 11) =      6.02690  eV     1   --> A'             
     e( 12 - 12) =      8.01026  eV     1   --> A'             
     e( 13 - 13) =      9.04682  eV     1   --> A'             
     e( 14 - 14) =      9.25326  eV     1   --> A'             
     e( 15 - 15) =      9.32007  eV     1   --> A'             
     e( 16 - 16) =      9.88051  eV     1   --> A''            

 **************************************************************************

 **************************************************************************

                    xk=(  -0.06000,   0.10392,   0.00000  )

     Band symmetry, C_s (m)     point group:

     e(  1 -  1) =    -18.57169  eV     1   --> A'             
     e(  2 -  2) =    -18.45571  eV     1   --> A'             
     e(  3 -  3) =     -7.01240  eV     1   --> A'             
     e(  4 -  4) =     -6.16986  eV     1   --> A'             
     e(  5 -  5) =     -3.29877  eV     1   --> A''            
     e(  6 -  6) =     -3.28043  eV     1   --> A''            
     e(  7 -  7) =     -2.88770  eV     1   --> A'             
     e(  8 -  8) =     -2.87374  eV     1   --> A'             
     e(  9 -  9) =      4.09482  eV     1   --> A'             
     e( 10 - 10) =      4.72872  eV     1   --> A'             
     e( 11 - 11) =      6.09782  eV     1   --> A'             
     e( 12 - 12) =      8.07514  eV     1   --> A'             
     e( 13 - 13) =      9.10884  eV     1   --> A'             
     e( 14 - 14) =      9.29283  eV     1   --> A'             
     e( 15 - 15) =      9.36843  eV     1   --> A'             
     e( 16 - 16) =     10.05037  eV     1   --> A''            

 **************************************************************************

 **************************************************************************

                    xk=(  -0.06667,   0.11547,   0.00000  )

     Band symmetry, C_s (m)     point group:

     e(  1 -  1) =    -18.51197  eV     1   --> A'             
     e(  2 -  2) =    -18.39644  eV     1   --> A'             
     e(  3 -  3) =     -6.94018  eV     1   --> A'             
     e(  4 -  4) =     -6.09962  eV     1   --> A'             
     e(  5 -  5) =     -3.49570  eV     1   --> A''            
     e(  6 -  6) =     -3.47592  eV     1   --> A''            
     e(  7 -  7) =     -3.00934  eV     1   --> A'             
     e(  8 -  8) =     -2.99489  eV     1   --> A'             
     e(  9 -  9) =      4.17521  eV     1   --> A'             
     e( 10 - 10) =      4.80921  eV     1   --> A'             
     e( 11 - 11) =      6.17714  eV     1   --> A'             
     e( 12 - 12) =      8.14799  eV     1   --> A'             
     e( 13 - 13) =      9.17722  eV     1   --> A'             
     e( 14 - 14) =      9.33857  eV     1   --> A'             
     e( 15 - 15) =      9.42612  eV     1   --> A'             
     e( 16 - 16) =     10.22558  eV     1   --> A''            

 **************************************************************************

 **************************************************************************

                    xk=(  -0.07333,   0.12702,   0.00000  )

     Band symmetry, C_s (m)     point group:

     e(  1 -  1) =    -18.44601  eV     1   --> A'             
     e(  2 -  2) =    -18.33095  eV     1   --> A'             
     e(  3 -  3) =     -6.86045  eV     1   --> A'             
     e(  4 -  4) =     -6.02211  eV     1   --> A'             
     e(  5 -  5) =     -3.70360  eV     1   --> A''            
     e(  6 -  6) =     -3.68256  eV     1   --> A''            
     e(  7 -  7) =     -3.14149  eV     1   --> A'             
     e(  8 -  8) =     -3.12676  eV     1   --> A'             
     e(  9 -  9) =      4.26407  eV     1   --> A'             
     e( 10 - 10) =      4.89814  eV     1   --> A'             
     e( 11 - 11) =      6.26481  eV     1   --> A'             
     e( 12 - 12) =      8.22841  eV     1   --> A'             
     e( 13 - 13) =      9.25145  eV     1   --> A'             
     e( 14 - 14) =      9.38964  eV     1   --> A'             
     e( 15 - 15) =      9.49238  eV     1   --> A'             
     e( 16 - 16) =     10.40127  eV     1   --> A''            

 **************************************************************************

 **************************************************************************

                    xk=(  -0.08000,   0.13856,   0.00000  )

     Band symmetry, C_s (m)     point group:

     e(  1 -  1) =    -18.37382  eV     1   --> A'             
     e(  2 -  2) =    -18.25938  eV     1   --> A'             
     e(  3 -  3) =     -6.77334  eV     1   --> A'             
     e(  4 -  4) =     -5.93747  eV     1   --> A'             
     e(  5 -  5) =     -3.92093  eV     1   --> A''            
     e(  6 -  6) =     -3.89779  eV     1   --> A''            
     e(  7 -  7) =     -3.28294  eV     1   --> A'             
     e(  8 -  8) =     -3.26757  eV     1   --> A'             
     e(  9 -  9) =      4.36139  eV     1   --> A'             
     e( 10 - 10) =      4.99549  eV     1   --> A'             
     e( 11 - 11) =      6.36081  eV     1   --> A'             
     e( 12 - 12) =      8.31630  eV     1   --> A'             
     e( 13 - 13) =      9.33070  eV     1   --> A'             
     e( 14 - 14) =      9.44664  eV     1   --> A'             
     e( 15 - 15) =      9.56789  eV     1   --> A'             
     e( 16 - 16) =     10.52474  eV     1   --> A''            

 **************************************************************************

 **************************************************************************

                    xk=(  -0.08667,   0.15011,   0.00000  )

     Band symmetry, C_s (m)     point group:

     e(  1 -  1) =    -18.29543  eV     1   --> A'             
     e(  2 -  2) =    -18.18157  eV     1   --> A'             
     e(  3 -  3) =     -6.67895  eV     1   --> A'             
     e(  4 -  4) =     -5.84568  eV     1   --> A'             
     e(  5 -  5) =     -4.14646  eV     1   --> A''            
     e(  6 -  6) =     -4.12190  eV     1   --> A''            
     e(  7 -  7) =     -3.43392  eV     1   --> A'             
     e(  8 -  8) =     -3.41750  eV     1   --> A'             
     e(  9 -  9) =      4.46716  eV     1   --> A'             
     e( 10 - 10) =      5.10125  eV     1   --> A'             
     e( 11 - 11) =      6.46514  eV     1   --> A'             
     e( 12 - 12) =      8.41156  eV     1   --> A'             
     e( 13 - 13) =      9.41510  eV     1   --> A'             
     e( 14 - 14) =      9.50983  eV     1   --> A'             
     e( 15 - 15) =      9.65380  eV     1   --> A'             
     e( 16 - 16) =     10.30033  eV     1   --> A''            

 **************************************************************************

 **************************************************************************

                    xk=(  -0.09333,   0.16166,   0.00000  )

     Band symmetry, C_s (m)     point group:

     e(  1 -  1) =    -18.21079  eV     1   --> A'             
     e(  2 -  2) =    -18.09763  eV     1   --> A'             
     e(  3 -  3) =     -6.57744  eV     1   --> A'             
     e(  4 -  4) =     -5.74661  eV     1   --> A'             
     e(  5 -  5) =     -4.37839  eV     1   --> A''            
     e(  6 -  6) =     -4.35266  eV     1   --> A''            
     e(  7 -  7) =     -3.59315  eV     1   --> A'             
     e(  8 -  8) =     -3.57606  eV     1   --> A'             
     e(  9 -  9) =      4.58138  eV     1   --> A'             
     e( 10 - 10) =      5.21544  eV     1   --> A'             
     e( 11 - 11) =      6.57776  eV     1   --> A'             
     e( 12 - 12) =      8.51409  eV     1   --> A'             
     e( 13 - 13) =      9.50389  eV     1   --> A'             
     e( 14 - 14) =      9.57937  eV     1   --> A'             
     e( 15 - 15) =      9.74940  eV     1   --> A'             
     e( 16 - 16) =     10.05315  eV     1   --> A''            

 **************************************************************************

 **************************************************************************

                    xk=(  -0.10000,   0.17321,   0.00000  )

     Band symmetry, C_s (m)     point group:

     e(  1 -  1) =    -18.12003  eV     1   --> A'             
     e(  2 -  2) =    -18.00754  eV     1   --> A'             
     e(  3 -  3) =     -6.46857  eV     1   --> A'             
     e(  4 -  4) =     -5.64069  eV     1   --> A'             
     e(  5 -  5) =     -4.61577  eV     1   --> A''            
     e(  6 -  6) =     -4.58872  eV     1   --> A''            
     e(  7 -  7) =     -3.76037  eV     1   --> A'             
     e(  8 -  8) =     -3.74241  eV     1   --> A'             
     e(  9 -  9) =      4.70403  eV     1   --> A'             
     e( 10 - 10) =      5.33799  eV     1   --> A'             
     e( 11 - 11) =      6.69868  eV     1   --> A'             
     e( 12 - 12) =      8.62394  eV     1   --> A'             
     e( 13 - 13) =      9.59731  eV     1   --> A'             
     e( 14 - 14) =      9.65522  eV     1   --> A'             
     e( 15 - 15) =      9.79627  eV     1   --> A''            
     e( 16 - 16) =      9.85548  eV     1   --> A'             

 **************************************************************************

 **************************************************************************

                    xk=(  -0.10667,   0.18475,   0.00000  )

     Band symmetry, C_s (m)     point group:

     e(  1 -  1) =    -18.02330  eV     1   --> A'             
     e(  2 -  2) =    -17.91145  eV     1   --> A'             
     e(  3 -  3) =     -6.35252  eV     1   --> A'             
     e(  4 -  4) =     -5.52820  eV     1   --> A'             
     e(  5 -  5) =     -4.85773  eV     1   --> A''            
     e(  6 -  6) =     -4.82854  eV     1   --> A''            
     e(  7 -  7) =     -3.93483  eV     1   --> A'             
     e(  8 -  8) =     -3.91570  eV     1   --> A'             
     e(  9 -  9) =      4.83509  eV     1   --> A'             
     e( 10 - 10) =      5.46884  eV     1   --> A'             
     e( 11 - 11) =      6.82781  eV     1   --> A'             
     e( 12 - 12) =      8.74085  eV     1   --> A'             
     e( 13 - 13) =      9.53040  eV     1   --> A''            
     e( 14 - 14) =      9.69589  eV     1   --> A'             
     e( 15 - 15) =      9.73690  eV     1   --> A'             
     e( 16 - 16) =      9.82777  eV     1   --> A''            

 **************************************************************************

 **************************************************************************

                    xk=(  -0.11333,   0.19630,   0.00000  )

     Band symmetry, C_s (m)     point group:

     e(  1 -  1) =    -17.92040  eV     1   --> A'             
     e(  2 -  2) =    -17.80920  eV     1   --> A'             
     e(  3 -  3) =     -6.22931  eV     1   --> A'             
     e(  4 -  4) =     -5.40884  eV     1   --> A'             
     e(  5 -  5) =     -5.10243  eV     1   --> A''            
     e(  6 -  6) =     -5.07151  eV     1   --> A''            
     e(  7 -  7) =     -4.11605  eV     1   --> A'             
     e(  8 -  8) =     -4.09561  eV     1   --> A'             
     e(  9 -  9) =      4.97457  eV     1   --> A'             
     e( 10 - 10) =      5.60805  eV     1   --> A'             
     e( 11 - 11) =      6.96522  eV     1   --> A'             
     e( 12 - 12) =      8.86494  eV     1   --> A'             
     e( 13 - 13) =      9.25600  eV     1   --> A''            
     e( 14 - 14) =      9.56391  eV     1   --> A''            
     e( 15 - 15) =      9.80010  eV     1   --> A'             
     e( 16 - 16) =      9.82579  eV     1   --> A'             

 **************************************************************************

 **************************************************************************

                    xk=(  -0.12000,   0.20785,   0.00000  )

     Band symmetry, C_s (m)     point group:

     e(  1 -  1) =    -17.81128  eV     1   --> A'             
     e(  2 -  2) =    -17.70091  eV     1   --> A'             
     e(  3 -  3) =     -6.09906  eV     1   --> A'             
     e(  4 -  4) =     -5.34921  eV     1   --> A''            
     e(  5 -  5) =     -5.31714  eV     1   --> A''            
     e(  6 -  6) =     -5.28228  eV     1   --> A'             
     e(  7 -  7) =     -4.30245  eV     1   --> A'             
     e(  8 -  8) =     -4.28077  eV     1   --> A'             
     e(  9 -  9) =      5.12246  eV     1   --> A'             
     e( 10 - 10) =      5.75561  eV     1   --> A'             
     e( 11 - 11) =      7.11083  eV     1   --> A'             
     e( 12 - 12) =      8.97469  eV     1   --> A''            
     e( 13 - 13) =      8.99582  eV     1   --> A'             
     e( 14 - 14) =      9.29506  eV     1   --> A''            
     e( 15 - 15) =      9.90941  eV     1   --> A'             
     e( 16 - 16) =      9.92099  eV     1   --> A'             

 **************************************************************************

 **************************************************************************

                    xk=(  -0.12667,   0.21939,   0.00000  )

     Band symmetry, C_s (m)     point group:

     e(  1 -  1) =    -17.69618  eV     1   --> A'             
     e(  2 -  2) =    -17.58657  eV     1   --> A'             
     e(  3 -  3) =     -5.96147  eV     1   --> A'             
     e(  4 -  4) =     -5.59724  eV     1   --> A''            
     e(  5 -  5) =     -5.56380  eV     1   --> A''            
     e(  6 -  6) =     -5.14890  eV     1   --> A'             
     e(  7 -  7) =     -4.49392  eV     1   --> A'             
     e(  8 -  8) =     -4.47110  eV     1   --> A'             
     e(  9 -  9) =      5.27871  eV     1   --> A'             
     e( 10 - 10) =      5.91144  eV     1   --> A'             
     e( 11 - 11) =      7.26456  eV     1   --> A'             
     e( 12 - 12) =      8.68846  eV     1   --> A''            
     e( 13 - 13) =      9.02083  eV     1   --> A''            
     e( 14 - 14) =      9.13355  eV     1   --> A'             
     e( 15 - 15) =     10.02233  eV     1   --> A'             
     e( 16 - 16) =     10.02421  eV     1   --> A'             

 **************************************************************************

 **************************************************************************

                    xk=(  -0.13333,   0.23094,   0.00000  )

     Band symmetry, C_s (m)     point group:

     e(  1 -  1) =    -17.57509  eV     1   --> A'             
     e(  2 -  2) =    -17.46641  eV     1   --> A'             
     e(  3 -  3) =     -5.84619  eV     1   --> A''            
     e(  4 -  4) =     -5.81740  eV     1   --> A'             
     e(  5 -  5) =     -5.81132  eV     1   --> A''            
     e(  6 -  6) =     -5.00918  eV     1   --> A'             
     e(  7 -  7) =     -4.68984  eV     1   --> A'             
     e(  8 -  8) =     -4.66587  eV     1   --> A'             
     e(  9 -  9) =      5.44332  eV     1   --> A'             
     e( 10 - 10) =      6.07547  eV     1   --> A'             
     e( 11 - 11) =      7.42634  eV     1   --> A'             
     e( 12 - 12) =      8.39673  eV     1   --> A''            
     e( 13 - 13) =      8.74106  eV     1   --> A''            
     e( 14 - 14) =      9.27743  eV     1   --> A'             
     e( 15 - 15) =     10.12982  eV     1   --> A'             
     e( 16 - 16) =     10.14459  eV     1   --> A'             

 **************************************************************************

 **************************************************************************

                    xk=(  -0.14000,   0.24249,   0.00000  )

     Band symmetry, C_s (m)     point group:

     e(  1 -  1) =    -17.44793  eV     1   --> A'             
     e(  2 -  2) =    -17.34016  eV     1   --> A'             
     e(  3 -  3) =     -6.09446  eV     1   --> A''            
     e(  4 -  4) =     -6.05856  eV     1   --> A''            
     e(  5 -  5) =     -5.66585  eV     1   --> A'             
     e(  6 -  6) =     -4.88912  eV     1   --> A'             
     e(  7 -  7) =     -4.87251  eV     1   --> A'             
     e(  8 -  8) =     -4.85436  eV     1   --> A'             
     e(  9 -  9) =      5.61629  eV     1   --> A'             
     e( 10 - 10) =      6.24773  eV     1   --> A'             
     e( 11 - 11) =      7.59620  eV     1   --> A'             
     e( 12 - 12) =      8.10134  eV     1   --> A''            
     e( 13 - 13) =      8.45784  eV     1   --> A''            
     e( 14 - 14) =      9.42793  eV     1   --> A'             
     e( 15 - 15) =     10.24457  eV     1   --> A'             
     e( 16 - 16) =     10.27210  eV     1   --> A'             

 **************************************************************************

 **************************************************************************

                    xk=(  -0.14667,   0.25404,   0.00000  )

     Band symmetry, C_s (m)     point group:

     e(  1 -  1) =    -17.31491  eV     1   --> A'             
     e(  2 -  2) =    -17.20797  eV     1   --> A'             
     e(  3 -  3) =     -6.34262  eV     1   --> A''            
     e(  4 -  4) =     -6.30540  eV     1   --> A''            
     e(  5 -  5) =     -5.50821  eV     1   --> A'             
     e(  6 -  6) =     -5.09192  eV     1   --> A'             
     e(  7 -  7) =     -5.06625  eV     1   --> A'             
     e(  8 -  8) =     -4.70944  eV     1   --> A'             
     e(  9 -  9) =      5.79754  eV     1   --> A'             
     e( 10 - 10) =      6.42811  eV     1   --> A'             
     e( 11 - 11) =      7.77393  eV     1   --> A'             
     e( 12 - 12) =      7.80277  eV     1   --> A''            
     e( 13 - 13) =      8.17032  eV     1   --> A''            
     e( 14 - 14) =      9.58380  eV     1   --> A'             
     e( 15 - 15) =     10.36414  eV     1   --> A'             
     e( 16 - 16) =     10.40571  eV     1   --> A'             

 **************************************************************************

 **************************************************************************

                    xk=(  -0.15333,   0.26558,   0.00000  )

     Band symmetry, C_s (m)     point group:

     e(  1 -  1) =    -17.17606  eV     1   --> A'             
     e(  2 -  2) =    -17.06990  eV     1   --> A'             
     e(  3 -  3) =     -6.58904  eV     1   --> A''            
     e(  4 -  4) =     -6.55111  eV     1   --> A''            
     e(  5 -  5) =     -5.34560  eV     1   --> A'             
     e(  6 -  6) =     -5.29569  eV     1   --> A'             
     e(  7 -  7) =     -5.27024  eV     1   --> A'             
     e(  8 -  8) =     -4.55065  eV     1   --> A'             
     e(  9 -  9) =      5.98707  eV     1   --> A'             
     e( 10 - 10) =      6.61656  eV     1   --> A'             
     e( 11 - 11) =      7.50227  eV     1   --> A''            
     e( 12 - 12) =      7.88133  eV     1   --> A''            
     e( 13 - 13) =      7.95943  eV     1   --> A'             
     e( 14 - 14) =      9.74496  eV     1   --> A'             
     e( 15 - 15) =     10.48979  eV     1   --> A'             
     e( 16 - 16) =     10.54548  eV     1   --> A'             

 **************************************************************************

 **************************************************************************

                    xk=(  -0.16000,   0.27713,   0.00000  )

     Band symmetry, C_s (m)     point group:

     e(  1 -  1) =    -17.03129  eV     1   --> A'             
     e(  2 -  2) =    -16.92610  eV     1   --> A'             
     e(  3 -  3) =     -6.83454  eV     1   --> A''            
     e(  4 -  4) =     -6.79509  eV     1   --> A''            
     e(  5 -  5) =     -5.50480  eV     1   --> A'             
     e(  6 -  6) =     -5.47631  eV     1   --> A'             
     e(  7 -  7) =     -5.17308  eV     1   --> A'             
     e(  8 -  8) =     -4.38568  eV     1   --> A'             
     e(  9 -  9) =      6.18486  eV     1   --> A'             
     e( 10 - 10) =      6.81299  eV     1   --> A'             
     e( 11 - 11) =      7.20117  eV     1   --> A''            
     e( 12 - 12) =      7.59059  eV     1   --> A''            
     e( 13 - 13) =      8.15255  eV     1   --> A'             
     e( 14 - 14) =      9.91084  eV     1   --> A'             
     e( 15 - 15) =     10.62128  eV     1   --> A'             
     e( 16 - 16) =     10.69141  eV     1   --> A'             

 **************************************************************************

 **************************************************************************

                    xk=(  -0.16667,   0.28868,   0.00000  )

     Band symmetry, C_s (m)     point group:

     e(  1 -  1) =    -16.88059  eV     1   --> A'             
     e(  2 -  2) =    -16.77644  eV     1   --> A'             
     e(  3 -  3) =     -7.07786  eV     1   --> A''            
     e(  4 -  4) =     -7.03712  eV     1   --> A''            
     e(  5 -  5) =     -5.71328  eV     1   --> A'             
     e(  6 -  6) =     -5.68374  eV     1   --> A'             
     e(  7 -  7) =     -4.99636  eV     1   --> A'             
     e(  8 -  8) =     -4.21455  eV     1   --> A'             
     e(  9 -  9) =      6.39088  eV     1   --> A'             
     e( 10 - 10) =      6.89893  eV     1   --> A''            
     e( 11 - 11) =      7.01740  eV     1   --> A'             
     e( 12 - 12) =      7.29918  eV     1   --> A''            
     e( 13 - 13) =      8.35318  eV     1   --> A'             
     e( 14 - 14) =     10.08081  eV     1   --> A'             
     e( 15 - 15) =     10.75771  eV     1   --> A'             
     e( 16 - 16) =     10.84393  eV     1   --> A'             

 **************************************************************************

 **************************************************************************

                    xk=(  -0.17333,   0.30022,   0.00000  )

     Band symmetry, C_s (m)     point group:

     e(  1 -  1) =    -16.72419  eV     1   --> A'             
     e(  2 -  2) =    -16.62120  eV     1   --> A'             
     e(  3 -  3) =     -7.31905  eV     1   --> A''            
     e(  4 -  4) =     -7.27665  eV     1   --> A''            
     e(  5 -  5) =     -5.92300  eV     1   --> A'             
     e(  6 -  6) =     -5.89166  eV     1   --> A'             
     e(  7 -  7) =     -4.81345  eV     1   --> A'             
     e(  8 -  8) =     -4.03783  eV     1   --> A'             
     e(  9 -  9) =      6.59672  eV     1   --> A''            
     e( 10 - 10) =      6.60505  eV     1   --> A'             
     e( 11 - 11) =      7.00610  eV     1   --> A''            
     e( 12 - 12) =      7.22960  eV     1   --> A'             
     e( 13 - 13) =      8.56103  eV     1   --> A'             
     e( 14 - 14) =     10.25387  eV     1   --> A'             
     e( 15 - 15) =     10.89869  eV     1   --> A'             
     e( 16 - 16) =     11.00221  eV     1   --> A'             

 **************************************************************************

 **************************************************************************

                    xk=(  -0.18000,   0.31177,   0.00000  )

     Band symmetry, C_s (m)     point group:

     e(  1 -  1) =    -16.56209  eV     1   --> A'             
     e(  2 -  2) =    -16.46023  eV     1   --> A'             
     e(  3 -  3) =     -7.55768  eV     1   --> A''            
     e(  4 -  4) =     -7.51400  eV     1   --> A''            
     e(  5 -  5) =     -6.13286  eV     1   --> A'             
     e(  6 -  6) =     -6.10026  eV     1   --> A'             
     e(  7 -  7) =     -4.62463  eV     1   --> A'             
     e(  8 -  8) =     -3.85539  eV     1   --> A'             
     e(  9 -  9) =      6.29486  eV     1   --> A''            
     e( 10 - 10) =      6.71448  eV     1   --> A''            
     e( 11 - 11) =      6.82733  eV     1   --> A'             
     e( 12 - 12) =      7.44953  eV     1   --> A'             
     e( 13 - 13) =      8.77571  eV     1   --> A'             
     e( 14 - 14) =     10.42874  eV     1   --> A'             
     e( 15 - 15) =     11.04416  eV     1   --> A'             
     e( 16 - 16) =     11.16703  eV     1   --> A'             

 **************************************************************************

 **************************************************************************

                    xk=(  -0.18666,   0.32332,   0.00000  )

     Band symmetry, C_s (m)     point group:

     e(  1 -  1) =    -16.39447  eV     1   --> A'             
     e(  2 -  2) =    -16.29381  eV     1   --> A'             
     e(  3 -  3) =     -7.79275  eV     1   --> A''            
     e(  4 -  4) =     -7.74801  eV     1   --> A''            
     e(  5 -  5) =     -6.34225  eV     1   --> A'             
     e(  6 -  6) =     -6.30877  eV     1   --> A'             
     e(  7 -  7) =     -4.43000  eV     1   --> A'             
     e(  8 -  8) =     -3.66704  eV     1   --> A'             
     e(  9 -  9) =      5.99488  eV     1   --> A''            
     e( 10 - 10) =      6.42457  eV     1   --> A''            
     e( 11 - 11) =      7.05765  eV     1   --> A'             
     e( 12 - 12) =      7.67708  eV     1   --> A'             
     e( 13 - 13) =      8.99681  eV     1   --> A'             
     e( 14 - 14) =     10.60394  eV     1   --> A'             
     e( 15 - 15) =     11.19400  eV     1   --> A'             
     e( 16 - 16) =     11.33729  eV     1   --> A'             

 **************************************************************************

 **************************************************************************

                    xk=(  -0.19333,   0.33486,   0.00000  )

     Band symmetry, C_s (m)     point group:

     e(  1 -  1) =    -16.22125  eV     1   --> A'             
     e(  2 -  2) =    -16.12191  eV     1   --> A'             
     e(  3 -  3) =     -8.02523  eV     1   --> A''            
     e(  4 -  4) =     -7.97940  eV     1   --> A''            
     e(  5 -  5) =     -6.55152  eV     1   --> A'             
     e(  6 -  6) =     -6.51694  eV     1   --> A'             
     e(  7 -  7) =     -4.22996  eV     1   --> A'             
     e(  8 -  8) =     -3.47408  eV     1   --> A'             
     e(  9 -  9) =      5.69632  eV     1   --> A''            
     e( 10 - 10) =      6.13553  eV     1   --> A''            
     e( 11 - 11) =      7.29595  eV     1   --> A'             
     e( 12 - 12) =      7.91197  eV     1   --> A'             
     e( 13 - 13) =      9.22365  eV     1   --> A'             
     e( 14 - 14) =     10.77722  eV     1   --> A'             
     e( 15 - 15) =     11.34721  eV     1   --> A'             
     e( 16 - 16) =     11.51202  eV     1   --> A'             

 **************************************************************************

 **************************************************************************

                    xk=(  -0.20000,   0.34641,   0.00000  )

     Band symmetry, C_s (m)     point group:

     e(  1 -  1) =    -16.04289  eV     1   --> A'             
     e(  2 -  2) =    -15.94458  eV     1   --> A'             
     e(  3 -  3) =     -8.25440  eV     1   --> A''            
     e(  4 -  4) =     -8.20729  eV     1   --> A''            
     e(  5 -  5) =     -6.75969  eV     1   --> A'             
     e(  6 -  6) =     -6.72399  eV     1   --> A'             
     e(  7 -  7) =     -4.02472  eV     1   --> A'             
     e(  8 -  8) =     -3.27652  eV     1   --> A'             
     e(  9 -  9) =      5.39964  eV     1   --> A''            
     e( 10 - 10) =      5.84779  eV     1   --> A''            
     e( 11 - 11) =      7.54211  eV     1   --> A'             
     e( 12 - 12) =      8.15403  eV     1   --> A'             
     e( 13 - 13) =      9.45525  eV     1   --> A'             
     e( 14 - 14) =     10.94594  eV     1   --> A'             
     e( 15 - 15) =     11.50434  eV     1   --> A'             
     e( 16 - 16) =     11.69256  eV     1   --> A'             

 **************************************************************************

 **************************************************************************

                    xk=(  -0.20666,   0.35796,   0.00000  )

     Band symmetry, C_s (m)     point group:

     e(  1 -  1) =    -15.85943  eV     1   --> A'             
     e(  2 -  2) =    -15.76210  eV     1   --> A'             
     e(  3 -  3) =     -8.47999  eV     1   --> A''            
     e(  4 -  4) =     -8.43144  eV     1   --> A''            
     e(  5 -  5) =     -6.96666  eV     1   --> A'             
     e(  6 -  6) =     -6.93015  eV     1   --> A'             
     e(  7 -  7) =     -3.81477  eV     1   --> A'             
     e(  8 -  8) =     -3.07466  eV     1   --> A'             
     e(  9 -  9) =      5.10592  eV     1   --> A''            
     e( 10 - 10) =      5.56313  eV     1   --> A''            
     e( 11 - 11) =      7.79600  eV     1   --> A'             
     e( 12 - 12) =      8.40298  eV     1   --> A'             
     e( 13 - 13) =      9.69009  eV     1   --> A'             
     e( 14 - 14) =     11.10670  eV     1   --> A'             
     e( 15 - 15) =     11.66502  eV     1   --> A'             
     e( 16 - 16) =     11.87666  eV     1   --> A'             

 **************************************************************************

 **************************************************************************

                    xk=(  -0.21333,   0.36951,   0.00000  )

     Band symmetry, C_s (m)     point group:

     e(  1 -  1) =    -15.67035  eV     1   --> A'             
     e(  2 -  2) =    -15.57433  eV     1   --> A'             
     e(  3 -  3) =     -8.70115  eV     1   --> A''            
     e(  4 -  4) =     -8.65121  eV     1   --> A''            
     e(  5 -  5) =     -7.17136  eV     1   --> A'             
     e(  6 -  6) =     -7.13393  eV     1   --> A'             
     e(  7 -  7) =     -3.60000  eV     1   --> A'             
     e(  8 -  8) =     -2.86791  eV     1   --> A'             
     e(  9 -  9) =      4.81583  eV     1   --> A''            
     e( 10 - 10) =      5.28172  eV     1   --> A''            
     e( 11 - 11) =      8.05766  eV     1   --> A'             
     e( 12 - 12) =      8.65864  eV     1   --> A'             
     e( 13 - 13) =      9.92618  eV     1   --> A'             
     e( 14 - 14) =     11.25640  eV     1   --> A'             
     e( 15 - 15) =     11.83066  eV     1   --> A'             
     e( 16 - 16) =     12.06496  eV     1   --> A'             

 **************************************************************************

 **************************************************************************

                    xk=(  -0.22000,   0.38105,   0.00000  )

     Band symmetry, C_s (m)     point group:

     e(  1 -  1) =    -15.47627  eV     1   --> A'             
     e(  2 -  2) =    -15.38149  eV     1   --> A'             
     e(  3 -  3) =     -8.91892  eV     1   --> A''            
     e(  4 -  4) =     -8.86756  eV     1   --> A''            
     e(  5 -  5) =     -7.37404  eV     1   --> A'             
     e(  6 -  6) =     -7.33536  eV     1   --> A'             
     e(  7 -  7) =     -3.38063  eV     1   --> A'             
     e(  8 -  8) =     -2.65708  eV     1   --> A'             
     e(  9 -  9) =      4.52959  eV     1   --> A''            
     e( 10 - 10) =      5.00314  eV     1   --> A''            
     e( 11 - 11) =      8.32681  eV     1   --> A'             
     e( 12 - 12) =      8.92053  eV     1   --> A'             
     e( 13 - 13) =     10.15958  eV     1   --> A'             
     e( 14 - 14) =     11.39269  eV     1   --> A'             
     e( 15 - 15) =     12.00079  eV     1   --> A'             
     e( 16 - 16) =     12.25604  eV     1   --> A'             

 **************************************************************************

 **************************************************************************

                    xk=(  -0.22666,   0.39260,   0.00000  )

     Band symmetry, C_s (m)     point group:

     e(  1 -  1) =    -15.27744  eV     1   --> A'             
     e(  2 -  2) =    -15.18380  eV     1   --> A'             
     e(  3 -  3) =     -9.13211  eV     1   --> A''            
     e(  4 -  4) =     -9.07962  eV     1   --> A''            
     e(  5 -  5) =     -7.57396  eV     1   --> A'             
     e(  6 -  6) =     -7.53421  eV     1   --> A'             
     e(  7 -  7) =     -3.15724  eV     1   --> A'             
     e(  8 -  8) =     -2.44269  eV     1   --> A'             
     e(  9 -  9) =      4.24739  eV     1   --> A''            
     e( 10 - 10) =      4.72828  eV     1   --> A''            
     e( 11 - 11) =      8.60330  eV     1   --> A'             
     e( 12 - 12) =      9.18809  eV     1   --> A'             
     e( 13 - 13) =     10.38388  eV     1   --> A'             
     e( 14 - 14) =     11.51627  eV     1   --> A'             
     e( 15 - 15) =     12.17599  eV     1   --> A'             
     e( 16 - 16) =     12.44816  eV     1   --> A'             

 **************************************************************************

 **************************************************************************

                    xk=(  -0.23333,   0.40415,   0.00000  )

     Band symmetry, C_s (m)     point group:

     e(  1 -  1) =    -15.07375  eV     1   --> A'             
     e(  2 -  2) =    -14.98150  eV     1   --> A'             
     e(  3 -  3) =     -9.34143  eV     1   --> A''            
     e(  4 -  4) =     -9.28771  eV     1   --> A''            
     e(  5 -  5) =     -7.77095  eV     1   --> A'             
     e(  6 -  6) =     -7.73003  eV     1   --> A'             
     e(  7 -  7) =     -2.93048  eV     1   --> A'             
     e(  8 -  8) =     -2.22521  eV     1   --> A'             
     e(  9 -  9) =      3.96875  eV     1   --> A''            
     e( 10 - 10) =      4.45710  eV     1   --> A''            
     e( 11 - 11) =      8.88693  eV     1   --> A'             
     e( 12 - 12) =      9.46064  eV     1   --> A'             
     e( 13 - 13) =     10.58837  eV     1   --> A'             
     e( 14 - 14) =     11.63375  eV     1   --> A'             
     e( 15 - 15) =     12.35474  eV     1   --> A'             
     e( 16 - 16) =     12.63886  eV     1   --> A'             

 **************************************************************************

 **************************************************************************

                    xk=(  -0.24000,   0.41569,   0.00000  )

     Band symmetry, C_s (m)     point group:

     e(  1 -  1) =    -14.86566  eV     1   --> A'             
     e(  2 -  2) =    -14.77464  eV     1   --> A'             
     e(  3 -  3) =     -9.54624  eV     1   --> A''            
     e(  4 -  4) =     -9.49099  eV     1   --> A''            
     e(  5 -  5) =     -7.96448  eV     1   --> A'             
     e(  6 -  6) =     -7.92231  eV     1   --> A'             
     e(  7 -  7) =     -2.70061  eV     1   --> A'             
     e(  8 -  8) =     -2.00503  eV     1   --> A'             
     e(  9 -  9) =      3.69470  eV     1   --> A''            
     e( 10 - 10) =      4.18988  eV     1   --> A''            
     e( 11 - 11) =      9.17738  eV     1   --> A'             
     e( 12 - 12) =      9.73732  eV     1   --> A'             
     e( 13 - 13) =     10.75692  eV     1   --> A'             
     e( 14 - 14) =     11.75991  eV     1   --> A'             
     e( 15 - 15) =     12.53663  eV     1   --> A'             
     e( 16 - 16) =     12.82532  eV     1   --> A'             

 **************************************************************************

 **************************************************************************

                    xk=(  -0.24666,   0.42724,   0.00000  )

     Band symmetry, C_s (m)     point group:

     e(  1 -  1) =    -14.65339  eV     1   --> A'             
     e(  2 -  2) =    -14.56371  eV     1   --> A'             
     e(  3 -  3) =     -9.74678  eV     1   --> A''            
     e(  4 -  4) =     -9.69021  eV     1   --> A''            
     e(  5 -  5) =     -8.15395  eV     1   --> A'             
     e(  6 -  6) =     -8.11073  eV     1   --> A'             
     e(  7 -  7) =     -2.46820  eV     1   --> A'             
     e(  8 -  8) =     -1.78302  eV     1   --> A'             
     e(  9 -  9) =      3.42532  eV     1   --> A''            
     e( 10 - 10) =      3.92733  eV     1   --> A''            
     e( 11 - 11) =      9.47433  eV     1   --> A'             
     e( 12 - 12) =     10.01680  eV     1   --> A'             
     e( 13 - 13) =     10.87214  eV     1   --> A'             
     e( 14 - 14) =     11.91326  eV     1   --> A'             
     e( 15 - 15) =     12.71905  eV     1   --> A'             
     e( 16 - 16) =     13.00115  eV     1   --> A'             

 **************************************************************************

 **************************************************************************

                    xk=(  -0.25333,   0.43879,   0.00000  )

     Band symmetry, C_s (m)     point group:

     e(  1 -  1) =    -14.43720  eV     1   --> A'             
     e(  2 -  2) =    -14.34900  eV     1   --> A'             
     e(  3 -  3) =     -9.94271  eV     1   --> A''            
     e(  4 -  4) =     -9.88486  eV     1   --> A''            
     e(  5 -  5) =     -8.33937  eV     1   --> A'             
     e(  6 -  6) =     -8.29518  eV     1   --> A'             
     e(  7 -  7) =     -2.23376  eV     1   --> A'             
     e(  8 -  8) =     -1.55879  eV     1   --> A'             
     e(  9 -  9) =      3.16099  eV     1   --> A''            
     e( 10 - 10) =      3.66952  eV     1   --> A''            
     e( 11 - 11) =      9.77720  eV     1   --> A'             
     e( 12 - 12) =     10.29744  eV     1   --> A'             
     e( 13 - 13) =     10.92649  eV     1   --> A'             
     e( 14 - 14) =     12.10440  eV     1   --> A'             
     e( 15 - 15) =     12.90059  eV     1   --> A'             
     e( 16 - 16) =     13.13842  eV     1   -->   ?

 **************************************************************************

 **************************************************************************

                    xk=(  -0.26000,   0.45034,   0.00000  )

     Band symmetry, C_s (m)     point group:

     e(  1 -  1) =    -14.21746  eV     1   --> A'             
     e(  2 -  2) =    -14.13065  eV     1   --> A'             
     e(  3 -  3) =    -10.13384  eV     1   --> A''            
     e(  4 -  4) =    -10.07466  eV     1   --> A''            
     e(  5 -  5) =     -8.51959  eV     1   --> A'             
     e(  6 -  6) =     -8.47439  eV     1   --> A'             
     e(  7 -  7) =     -1.99786  eV     1   --> A'             
     e(  8 -  8) =     -1.33334  eV     1   --> A'             
     e(  9 -  9) =      2.90201  eV     1   --> A''            
     e( 10 - 10) =      3.41675  eV     1   --> A''            
     e( 11 - 11) =     10.08535  eV     1   --> A'             
     e( 12 - 12) =     10.57680  eV     1   --> A'             
     e( 13 - 13) =     10.92799  eV     1   --> A'             
     e( 14 - 14) =     12.32940  eV     1   --> A'             
     e( 15 - 15) =     13.08064  eV     1   --> A'             
     e( 16 - 16) =     13.18575  eV     1   --> A''            

 **************************************************************************

 **************************************************************************

                    xk=(  -0.26666,   0.46188,   0.00000  )

     Band symmetry, C_s (m)     point group:

     e(  1 -  1) =    -13.99507  eV     1   --> A'             
     e(  2 -  2) =    -13.90978  eV     1   --> A'             
     e(  3 -  3) =    -10.32014  eV     1   --> A''            
     e(  4 -  4) =    -10.25991  eV     1   --> A''            
     e(  5 -  5) =     -8.69477  eV     1   --> A'             
     e(  6 -  6) =     -8.64862  eV     1   --> A'             
     e(  7 -  7) =     -1.76105  eV     1   --> A'             
     e(  8 -  8) =     -1.10735  eV     1   --> A'             
     e(  9 -  9) =      2.64837  eV     1   --> A''            
     e( 10 - 10) =      3.16894  eV     1   --> A''            
     e( 11 - 11) =     10.39712  eV     1   --> A'             
     e( 12 - 12) =     10.85134  eV     1   --> A'             
     e( 13 - 13) =     10.89241  eV     1   --> A'             
     e( 14 - 14) =     12.57565  eV     1   --> A'             
     e( 15 - 15) =     13.22570  eV     1   --> A''            
     e( 16 - 16) =     13.25882  eV     1   --> A'             

 **************************************************************************

 **************************************************************************

                    xk=(  -0.27333,   0.47343,   0.00000  )

     Band symmetry, C_s (m)     point group:

     e(  1 -  1) =    -13.77012  eV     1   --> A'             
     e(  2 -  2) =    -13.68616  eV     1   --> A'             
     e(  3 -  3) =    -10.50142  eV     1   --> A''            
     e(  4 -  4) =    -10.43997  eV     1   --> A''            
     e(  5 -  5) =     -8.86339  eV     1   --> A'             
     e(  6 -  6) =     -8.81673  eV     1   --> A'             
     e(  7 -  7) =     -1.52441  eV     1   --> A'             
     e(  8 -  8) =     -0.88137  eV     1   --> A'             
     e(  9 -  9) =      2.40064  eV     1   --> A''            
     e( 10 - 10) =      2.92699  eV     1   --> A''            
     e( 11 - 11) =     10.70260  eV     1   --> A'             
     e( 12 - 12) =     10.84285  eV     1   --> A'             
     e( 13 - 13) =     11.11591  eV     1   --> A'             
     e( 14 - 14) =     12.82906  eV     1   --> A'             
     e( 15 - 15) =     13.25870  eV     1   --> A''            
     e( 16 - 16) =     13.39660  eV     1   --> A'             

 **************************************************************************

 **************************************************************************

                    xk=(  -0.28000,   0.48498,   0.00000  )

     Band symmetry, C_s (m)     point group:

     e(  1 -  1) =    -13.54345  eV     1   --> A'             
     e(  2 -  2) =    -13.46122  eV     1   --> A'             
     e(  3 -  3) =    -10.67837  eV     1   --> A''            
     e(  4 -  4) =    -10.61580  eV     1   --> A''            
     e(  5 -  5) =     -9.02569  eV     1   --> A'             
     e(  6 -  6) =     -8.97820  eV     1   --> A'             
     e(  7 -  7) =     -1.28875  eV     1   --> A'             
     e(  8 -  8) =     -0.65647  eV     1   --> A'             
     e(  9 -  9) =      2.15838  eV     1   --> A''            
     e( 10 - 10) =      2.68972  eV     1   --> A''            
     e( 11 - 11) =     10.74528  eV     1   --> A'             
     e( 12 - 12) =     11.04498  eV     1   --> A'             
     e( 13 - 13) =     11.36303  eV     1   --> A'             
     e( 14 - 14) =     13.07210  eV     1   --> A'             
     e( 15 - 15) =     13.28336  eV     1   --> A''            
     e( 16 - 16) =     13.41129  eV     1   --> A'             

 **************************************************************************

 **************************************************************************

                    xk=(  -0.28666,   0.49652,   0.00000  )

     Band symmetry, C_s (m)     point group:

     e(  1 -  1) =    -13.31622  eV     1   --> A'             
     e(  2 -  2) =    -13.23529  eV     1   --> A'             
     e(  3 -  3) =    -10.85004  eV     1   --> A''            
     e(  4 -  4) =    -10.78651  eV     1   --> A''            
     e(  5 -  5) =     -9.17977  eV     1   --> A'             
     e(  6 -  6) =     -9.13169  eV     1   --> A'             
     e(  7 -  7) =     -1.05474  eV     1   --> A'             
     e(  8 -  8) =     -0.43235  eV     1   --> A'             
     e(  9 -  9) =      1.92182  eV     1   --> A''            
     e( 10 - 10) =      2.45866  eV     1   --> A''            
     e( 11 - 11) =     10.66875  eV     1   --> A'             
     e( 12 - 12) =     11.36140  eV     1   --> A'             
     e( 13 - 13) =     11.58284  eV     1   --> A'             
     e( 14 - 14) =     13.28498  eV     1   --> A'             
     e( 15 - 15) =     13.29856  eV     1   --> A''            
     e( 16 - 16) =     13.42931  eV     1   --> A'             

 **************************************************************************

 **************************************************************************

                    xk=(  -0.29333,   0.50807,   0.00000  )

     Band symmetry, C_s (m)     point group:

     e(  1 -  1) =    -13.08973  eV     1   --> A'             
     e(  2 -  2) =    -13.01020  eV     1   --> A'             
     e(  3 -  3) =    -11.01713  eV     1   --> A''            
     e(  4 -  4) =    -10.95235  eV     1   --> A''            
     e(  5 -  5) =     -9.32500  eV     1   --> A'             
     e(  6 -  6) =     -9.27600  eV     1   --> A'             
     e(  7 -  7) =     -0.82332  eV     1   --> A'             
     e(  8 -  8) =     -0.21121  eV     1   --> A'             
     e(  9 -  9) =      1.69213  eV     1   --> A''            
     e( 10 - 10) =      2.23395  eV     1   --> A''            
     e( 11 - 11) =     10.58972  eV     1   --> A'             
     e( 12 - 12) =     11.67815  eV     1   --> A'             
     e( 13 - 13) =     11.76372  eV     1   --> A'             
     e( 14 - 14) =     13.30338  eV     1   --> A''            
     e( 15 - 15) =     13.45080  eV     1   --> A'             
     e( 16 - 16) =     13.47287  eV     1   --> A'             

 **************************************************************************

 **************************************************************************

                    xk=(  -0.30000,   0.51962,   0.00000  )

     Band symmetry, C_s (m)     point group:

     e(  1 -  1) =    -12.86564  eV     1   --> A'             
     e(  2 -  2) =    -12.78761  eV     1   --> A'             
     e(  3 -  3) =    -11.17896  eV     1   --> A''            
     e(  4 -  4) =    -11.11319  eV     1   --> A''            
     e(  5 -  5) =     -9.45884  eV     1   --> A'             
     e(  6 -  6) =     -9.40958  eV     1   --> A'             
     e(  7 -  7) =     -0.59571  eV     1   --> A'             
     e(  8 -  8) =      0.00675  eV     1   --> A'             
     e(  9 -  9) =      1.46832  eV     1   --> A''            
     e( 10 - 10) =      2.01555  eV     1   --> A''            
     e( 11 - 11) =     10.51496  eV     1   --> A'             
     e( 12 - 12) =     11.89686  eV     1   --> A'             
     e( 13 - 13) =     11.98917  eV     1   --> A'             
     e( 14 - 14) =     13.29765  eV     1   --> A''            
     e( 15 - 15) =     13.55579  eV     1   --> A'             
     e( 16 - 16) =     13.56858  eV     1   --> A'             

 **************************************************************************

 **************************************************************************

                    xk=(  -0.30666,   0.53116,   0.00000  )

     Band symmetry, C_s (m)     point group:

     e(  1 -  1) =    -12.64700  eV     1   --> A'             
     e(  2 -  2) =    -12.57026  eV     1   --> A'             
     e(  3 -  3) =    -11.33593  eV     1   --> A''            
     e(  4 -  4) =    -11.26878  eV     1   --> A''            
     e(  5 -  5) =     -9.57972  eV     1   --> A'             
     e(  6 -  6) =     -9.52988  eV     1   --> A'             
     e(  7 -  7) =     -0.37307  eV     1   --> A'             
     e(  8 -  8) =      0.22015  eV     1   --> A'             
     e(  9 -  9) =      1.25036  eV     1   --> A''            
     e( 10 - 10) =      1.80212  eV     1   --> A''            
     e( 11 - 11) =     10.44834  eV     1   --> A'             
     e( 12 - 12) =     11.98169  eV     1   --> A'             
     e( 13 - 13) =     12.28724  eV     1   --> A'             
     e( 14 - 14) =     13.27950  eV     1   --> A''            
     e( 15 - 15) =     13.64559  eV     1   --> A'             
     e( 16 - 16) =     13.67854  eV     1   --> A'             

 **************************************************************************

 **************************************************************************

                    xk=(  -0.31333,   0.54271,   0.00000  )

     Band symmetry, C_s (m)     point group:

     e(  1 -  1) =    -12.43659  eV     1   --> A'             
     e(  2 -  2) =    -12.36122  eV     1   --> A'             
     e(  3 -  3) =    -11.48785  eV     1   --> A''            
     e(  4 -  4) =    -11.41956  eV     1   --> A''            
     e(  5 -  5) =     -9.68365  eV     1   --> A'             
     e(  6 -  6) =     -9.63337  eV     1   --> A'             
     e(  7 -  7) =     -0.15619  eV     1   --> A'             
     e(  8 -  8) =      0.42867  eV     1   --> A'             
     e(  9 -  9) =      1.03941  eV     1   --> A''            
     e( 10 - 10) =      1.59547  eV     1   --> A''            
     e( 11 - 11) =     10.39290  eV     1   --> A'             
     e( 12 - 12) =     12.02719  eV     1   --> A'             
     e( 13 - 13) =     12.56318  eV     1   --> A'             
     e( 14 - 14) =     13.24984  eV     1   --> A''            
     e( 15 - 15) =     13.69154  eV     1   --> A'             
     e( 16 - 16) =     13.82775  eV     1   --> A'             

 **************************************************************************

 **************************************************************************

                    xk=(  -0.32000,   0.55426,   0.00000  )

     Band symmetry, C_s (m)     point group:

     e(  1 -  1) =    -12.23985  eV     1   --> A'             
     e(  2 -  2) =    -12.16543  eV     1   --> A'             
     e(  3 -  3) =    -11.63475  eV     1   --> A''            
     e(  4 -  4) =    -11.56480  eV     1   --> A''            
     e(  5 -  5) =     -9.76641  eV     1   --> A'             
     e(  6 -  6) =     -9.71575  eV     1   --> A'             
     e(  7 -  7) =      0.05333  eV     1   --> A'             
     e(  8 -  8) =      0.63114  eV     1   --> A'             
     e(  9 -  9) =      0.83512  eV     1   --> A''            
     e( 10 - 10) =      1.39514  eV     1   --> A''            
     e( 11 - 11) =     10.35102  eV     1   --> A'             
     e( 12 - 12) =     12.04660  eV     1   --> A'             
     e( 13 - 13) =     12.80202  eV     1   --> A'             
     e( 14 - 14) =     13.20799  eV     1   --> A''            
     e( 15 - 15) =     13.71525  eV     1   --> A'             
     e( 16 - 16) =     13.98139  eV     1   --> A'             

 **************************************************************************

 **************************************************************************

                    xk=(  -0.32666,   0.56581,   0.00000  )

     Band symmetry, C_s (m)     point group:

     e(  1 -  1) =    -12.06255  eV     1   --> A'             
     e(  2 -  2) =    -11.98934  eV     1   --> A'             
     e(  3 -  3) =    -11.77637  eV     1   --> A''            
     e(  4 -  4) =    -11.70525  eV     1   --> A''            
     e(  5 -  5) =     -9.82141  eV     1   --> A'             
     e(  6 -  6) =     -9.77060  eV     1   --> A'             
     e(  7 -  7) =      0.25482  eV     1   --> A'             
     e(  8 -  8) =      0.63759  eV     1   --> A''            
     e(  9 -  9) =      0.82667  eV     1   --> A'             
     e( 10 - 10) =      1.20146  eV     1   --> A''            
     e( 11 - 11) =     10.32473  eV     1   --> A'             
     e( 12 - 12) =     12.05206  eV     1   --> A'             
     e( 13 - 13) =     12.98468  eV     1   --> A'             
     e( 14 - 14) =     13.15544  eV     1   --> A''            
     e( 15 - 15) =     13.72720  eV     1   --> A'             
     e( 16 - 16) =     14.11425  eV     1   --> A'             

 **************************************************************************

 **************************************************************************

                    xk=(  -0.33333,   0.57735,   0.00000  )

     zone border point and non-symmorphic group 
     symmetry decomposition not available

 **************************************************************************

 **************************************************************************

                    xk=(  -0.32666,   0.57735,   0.00000  )

     zone border point and non-symmorphic group 
     symmetry decomposition not available

 **************************************************************************

 **************************************************************************

                    xk=(  -0.32000,   0.57735,   0.00000  )

     zone border point and non-symmorphic group 
     symmetry decomposition not available

 **************************************************************************

 **************************************************************************

                    xk=(  -0.31333,   0.57735,   0.00000  )

     zone border point and non-symmorphic group 
     symmetry decomposition not available

 **************************************************************************

 **************************************************************************

                    xk=(  -0.30666,   0.57735,   0.00000  )

     zone border point and non-symmorphic group 
     symmetry decomposition not available

 **************************************************************************

 **************************************************************************

                    xk=(  -0.30000,   0.57735,   0.00000  )

     zone border point and non-symmorphic group 
     symmetry decomposition not available

 **************************************************************************

 **************************************************************************

                    xk=(  -0.29333,   0.57735,   0.00000  )

     zone border point and non-symmorphic group 
     symmetry decomposition not available

 **************************************************************************

 **************************************************************************

                    xk=(  -0.28666,   0.57735,   0.00000  )

     zone border point and non-symmorphic group 
     symmetry decomposition not available

 **************************************************************************

 **************************************************************************

                    xk=(  -0.28000,   0.57735,   0.00000  )

     zone border point and non-symmorphic group 
     symmetry decomposition not available

 **************************************************************************

 **************************************************************************

                    xk=(  -0.27333,   0.57735,   0.00000  )

     zone border point and non-symmorphic group 
     symmetry decomposition not available

 **************************************************************************

 **************************************************************************

                    xk=(  -0.26666,   0.57735,   0.00000  )

     zone border point and non-symmorphic group 
     symmetry decomposition not available

 **************************************************************************

 **************************************************************************

                    xk=(  -0.26000,   0.57735,   0.00000  )

     zone border point and non-symmorphic group 
     symmetry decomposition not available

 **************************************************************************

 **************************************************************************

                    xk=(  -0.25333,   0.57735,   0.00000  )

     zone border point and non-symmorphic group 
     symmetry decomposition not available

 **************************************************************************

 **************************************************************************

                    xk=(  -0.24666,   0.57735,   0.00000  )

     zone border point and non-symmorphic group 
     symmetry decomposition not available

 **************************************************************************

 **************************************************************************

                    xk=(  -0.24000,   0.57735,   0.00000  )

     zone border point and non-symmorphic group 
     symmetry decomposition not available

 **************************************************************************

 **************************************************************************

                    xk=(  -0.23333,   0.57735,   0.00000  )

     zone border point and non-symmorphic group 
     symmetry decomposition not available

 **************************************************************************

 **************************************************************************

                    xk=(  -0.22666,   0.57735,   0.00000  )

     zone border point and non-symmorphic group 
     symmetry decomposition not available

 **************************************************************************

 **************************************************************************

                    xk=(  -0.22000,   0.57735,   0.00000  )

     zone border point and non-symmorphic group 
     symmetry decomposition not available

 **************************************************************************

 **************************************************************************

                    xk=(  -0.21333,   0.57735,   0.00000  )

     zone border point and non-symmorphic group 
     symmetry decomposition not available

 **************************************************************************

 **************************************************************************

                    xk=(  -0.20666,   0.57735,   0.00000  )

     zone border point and non-symmorphic group 
     symmetry decomposition not available

 **************************************************************************

 **************************************************************************

                    xk=(  -0.20000,   0.57735,   0.00000  )

     zone border point and non-symmorphic group 
     symmetry decomposition not available

 **************************************************************************

 **************************************************************************

                    xk=(  -0.19333,   0.57735,   0.00000  )

     zone border point and non-symmorphic group 
     symmetry decomposition not available

 **************************************************************************

 **************************************************************************

                    xk=(  -0.18666,   0.57735,   0.00000  )

     zone border point and non-symmorphic group 
     symmetry decomposition not available

 **************************************************************************

 **************************************************************************

                    xk=(  -0.18000,   0.57735,   0.00000  )

     zone border point and non-symmorphic group 
     symmetry decomposition not available

 **************************************************************************

 **************************************************************************

                    xk=(  -0.17333,   0.57735,   0.00000  )

     zone border point and non-symmorphic group 
     symmetry decomposition not available

 **************************************************************************

 **************************************************************************

                    xk=(  -0.16667,   0.57735,   0.00000  )

     zone border point and non-symmorphic group 
     symmetry decomposition not available

 **************************************************************************

 **************************************************************************

                    xk=(  -0.16000,   0.57735,   0.00000  )

     zone border point and non-symmorphic group 
     symmetry decomposition not available

 **************************************************************************

 **************************************************************************

                    xk=(  -0.15333,   0.57735,   0.00000  )

     zone border point and non-symmorphic group 
     symmetry decomposition not available

 **************************************************************************

 **************************************************************************

                    xk=(  -0.14667,   0.57735,   0.00000  )

     zone border point and non-symmorphic group 
     symmetry decomposition not available

 **************************************************************************

 **************************************************************************

                    xk=(  -0.14000,   0.57735,   0.00000  )

     zone border point and non-symmorphic group 
     symmetry decomposition not available

 **************************************************************************

 **************************************************************************

                    xk=(  -0.13333,   0.57735,   0.00000  )

     zone border point and non-symmorphic group 
     symmetry decomposition not available

 **************************************************************************

 **************************************************************************

                    xk=(  -0.12667,   0.57735,   0.00000  )

     zone border point and non-symmorphic group 
     symmetry decomposition not available

 **************************************************************************

 **************************************************************************

                    xk=(  -0.12000,   0.57735,   0.00000  )

     zone border point and non-symmorphic group 
[...]
     e(  4 -  4) =     -5.92633  eV     1   --> A'             
     e(  5 -  5) =     -4.03857  eV     1   --> A'             
     e(  6 -  6) =     -4.01459  eV     1   --> A'             
     e(  7 -  7) =     -3.19559  eV     1   --> A''            
     e(  8 -  8) =     -3.18148  eV     1   --> A''            
     e(  9 -  9) =      4.37392  eV     1   --> A'             
     e( 10 - 10) =      5.00808  eV     1   --> A'             
     e( 11 - 11) =      6.37283  eV     1   --> A'             
     e( 12 - 12) =      8.32365  eV     1   --> A'             
     e( 13 - 13) =      9.16784  eV     1   --> A'             
     e( 14 - 14) =      9.17086  eV     1   --> A'             
     e( 15 - 15) =      9.46907  eV     1   --> A'             
     e( 16 - 16) =     10.49933  eV     1   --> A'             

 **************************************************************************

 **************************************************************************

                    xk=(   0.00000,   0.15011,   0.00000  )

     Band symmetry, C_s (m)     point group:

     e(  1 -  1) =    -18.42793  eV     1   --> A'             
     e(  2 -  2) =    -18.31307  eV     1   --> A'             
     e(  3 -  3) =     -6.83886  eV     1   --> A'             
     e(  4 -  4) =     -6.00087  eV     1   --> A'             
     e(  5 -  5) =     -3.82940  eV     1   --> A'             
     e(  6 -  6) =     -3.80732  eV     1   --> A'             
     e(  7 -  7) =     -3.09524  eV     1   --> A''            
     e(  8 -  8) =     -3.08164  eV     1   --> A''            
     e(  9 -  9) =      4.28829  eV     1   --> A'             
     e( 10 - 10) =      4.92241  eV     1   --> A'             
     e( 11 - 11) =      6.28849  eV     1   --> A'             
     e( 12 - 12) =      8.24786  eV     1   --> A'             
     e( 13 - 13) =      9.16124  eV     1   --> A'             
     e( 14 - 14) =      9.18093  eV     1   --> A'             
     e( 15 - 15) =      9.39957  eV     1   --> A'             
     e( 16 - 16) =     10.69664  eV     1   -->   ?

 **************************************************************************

 **************************************************************************

                    xk=(   0.00000,   0.13856,   0.00000  )

     Band symmetry, C_s (m)     point group:

     e(  1 -  1) =    -18.48680  eV     1   --> A'             
     e(  2 -  2) =    -18.37151  eV     1   --> A'             
     e(  3 -  3) =     -6.90979  eV     1   --> A'             
     e(  4 -  4) =     -6.06994  eV     1   --> A'             
     e(  5 -  5) =     -3.62988  eV     1   --> A'             
     e(  6 -  6) =     -3.60892  eV     1   --> A'             
     e(  7 -  7) =     -2.99837  eV     1   --> A''            
     e(  8 -  8) =     -2.98508  eV     1   --> A''            
     e(  9 -  9) =      4.20899  eV     1   --> A'             
     e( 10 - 10) =      4.84306  eV     1   --> A'             
     e( 11 - 11) =      6.21035  eV     1   --> A'             
     e( 12 - 12) =      8.17720  eV     1   --> A'             
     e( 13 - 13) =      9.14360  eV     1   --> A'             
     e( 14 - 14) =      9.18752  eV     1   --> A'             
     e( 15 - 15) =      9.34455  eV     1   --> A'             
     e( 16 - 16) =     10.49755  eV     1   --> A''            

 **************************************************************************

 **************************************************************************

                    xk=(   0.00000,   0.12702,   0.00000  )

     Band symmetry, C_s (m)     point group:

     e(  1 -  1) =    -18.54099  eV     1   --> A'             
     e(  2 -  2) =    -18.42532  eV     1   --> A'             
     e(  3 -  3) =     -6.97522  eV     1   --> A'             
     e(  4 -  4) =     -6.13359  eV     1   --> A'             
     e(  5 -  5) =     -3.44083  eV     1   --> A'             
     e(  6 -  6) =     -3.42194  eV     1   --> A'             
     e(  7 -  7) =     -2.90559  eV     1   --> A''            
     e(  8 -  8) =     -2.89276  eV     1   --> A''            
     e(  9 -  9) =      4.13603  eV     1   --> A'             
     e( 10 - 10) =      4.77002  eV     1   --> A'             
     e( 11 - 11) =      6.13841  eV     1   --> A'             
     e( 12 - 12) =      8.11176  eV     1   --> A'             
     e( 13 - 13) =      9.11264  eV     1   --> A'             
     e( 14 - 14) =      9.19014  eV     1   --> A'             
     e( 15 - 15) =      9.30480  eV     1   --> A'             
     e( 16 - 16) =     10.28855  eV     1   --> A''            

 **************************************************************************

 **************************************************************************

                    xk=(   0.00000,   0.11547,   0.00000  )

     Band symmetry, C_s (m)     point group:

     e(  1 -  1) =    -18.59048  eV     1   --> A'             
     e(  2 -  2) =    -18.47447  eV     1   --> A'             
     e(  3 -  3) =     -7.03506  eV     1   --> A'             
     e(  4 -  4) =     -6.19183  eV     1   --> A'             
     e(  5 -  5) =     -3.26338  eV     1   --> A'             
     e(  6 -  6) =     -3.24587  eV     1   --> A'             
     e(  7 -  7) =     -2.81673  eV     1   --> A''            
     e(  8 -  8) =     -2.80452  eV     1   --> A''            
     e(  9 -  9) =      4.06940  eV     1   --> A'             
     e( 10 - 10) =      4.70331  eV     1   --> A'             
     e( 11 - 11) =      6.07272  eV     1   --> A'             
     e( 12 - 12) =      8.05177  eV     1   --> A'             
     e( 13 - 13) =      9.07207  eV     1   --> A'             
     e( 14 - 14) =      9.18893  eV     1   --> A'             
     e( 15 - 15) =      9.27695  eV     1   --> A'             
     e( 16 - 16) =     10.09484  eV     1   --> A''            

 **************************************************************************

 **************************************************************************

                    xk=(   0.00000,   0.10392,   0.00000  )

     Band symmetry, C_s (m)     point group:

     e(  1 -  1) =    -18.63530  eV     1   --> A'             
     e(  2 -  2) =    -18.51881  eV     1   --> A'             
     e(  3 -  3) =     -7.08900  eV     1   --> A'             
     e(  4 -  4) =     -6.24455  eV     1   --> A'             
     e(  5 -  5) =     -3.09868  eV     1   --> A'             
     e(  6 -  6) =     -3.08204  eV     1   --> A'             
     e(  7 -  7) =     -2.73337  eV     1   --> A''            
     e(  8 -  8) =     -2.72202  eV     1   --> A''            
     e(  9 -  9) =      4.00912  eV     1   --> A'             
     e( 10 - 10) =      4.64295  eV     1   --> A'             
     e( 11 - 11) =      6.01328  eV     1   --> A'             
     e( 12 - 12) =      7.99745  eV     1   --> A'             
     e( 13 - 13) =      9.02812  eV     1   --> A'             
     e( 14 - 14) =      9.18434  eV     1   --> A'             
     e( 15 - 15) =      9.25703  eV     1   --> A'             
     e( 16 - 16) =      9.91495  eV     1   --> A''            

 **************************************************************************

 **************************************************************************

                    xk=(   0.00000,   0.09238,   0.00000  )

     Band symmetry, C_s (m)     point group:

     e(  1 -  1) =    -18.67544  eV     1   --> A'             
     e(  2 -  2) =    -18.55862  eV     1   --> A'             
     e(  3 -  3) =     -7.13732  eV     1   --> A'             
     e(  4 -  4) =     -6.29183  eV     1   --> A'             
     e(  5 -  5) =     -2.94782  eV     1   --> A'             
     e(  6 -  6) =     -2.93221  eV     1   --> A'             
     e(  7 -  7) =     -2.65680  eV     1   --> A''            
     e(  8 -  8) =     -2.64572  eV     1   --> A''            
     e(  9 -  9) =      3.95518  eV     1   --> A'             
     e( 10 - 10) =      4.58891  eV     1   --> A'             
     e( 11 - 11) =      5.96010  eV     1   --> A'             
     e( 12 - 12) =      7.94875  eV     1   --> A'             
     e( 13 - 13) =      8.98450  eV     1   --> A'             
     e( 14 - 14) =      9.17601  eV     1   --> A'             
     e( 15 - 15) =      9.23887  eV     1   --> A'             
     e( 16 - 16) =      9.75181  eV     1   --> A''            

 **************************************************************************

 **************************************************************************

                    xk=(   0.00000,   0.08083,   0.00000  )

     Band symmetry, C_s (m)     point group:

     e(  1 -  1) =    -18.71084  eV     1   --> A'             
     e(  2 -  2) =    -18.59377  eV     1   --> A'             
     e(  3 -  3) =     -7.18017  eV     1   --> A'             
     e(  4 -  4) =     -6.33364  eV     1   --> A'             
     e(  5 -  5) =     -2.81148  eV     1   --> A'             
     e(  6 -  6) =     -2.79684  eV     1   --> A'             
     e(  7 -  7) =     -2.58695  eV     1   --> A''            
     e(  8 -  8) =     -2.57588  eV     1   --> A''            
     e(  9 -  9) =      3.90759  eV     1   --> A'             
     e( 10 - 10) =      4.54122  eV     1   --> A'             
     e( 11 - 11) =      5.91316  eV     1   --> A'             
     e( 12 - 12) =      7.90561  eV     1   --> A'             
     e( 13 - 13) =      8.94398  eV     1   --> A'             
     e( 14 - 14) =      9.16677  eV     1   --> A'             
     e( 15 - 15) =      9.22225  eV     1   --> A'             
     e( 16 - 16) =      9.60576  eV     1   --> A''            

 **************************************************************************

 **************************************************************************

                    xk=(   0.00000,   0.06928,   0.00000  )

     Band symmetry, C_s (m)     point group:

     e(  1 -  1) =    -18.74155  eV     1   --> A'             
     e(  2 -  2) =    -18.62426  eV     1   --> A'             
     e(  3 -  3) =     -7.21732  eV     1   --> A'             
     e(  4 -  4) =     -6.36985  eV     1   --> A'             
     e(  5 -  5) =     -2.69145  eV     1   --> A'             
     e(  6 -  6) =     -2.67765  eV     1   --> A'             
     e(  7 -  7) =     -2.52500  eV     1   --> A''            
     e(  8 -  8) =     -2.51417  eV     1   --> A''            
     e(  9 -  9) =      3.86634  eV     1   --> A'             
     e( 10 - 10) =      4.49989  eV     1   --> A'             
     e( 11 - 11) =      5.87248  eV     1   --> A'             
     e( 12 - 12) =      7.86818  eV     1   --> A'             
     e( 13 - 13) =      8.90784  eV     1   --> A'             
     e( 14 - 14) =      9.15603  eV     1   --> A'             
     e( 15 - 15) =      9.20629  eV     1   --> A'             
     e( 16 - 16) =      9.47713  eV     1   --> A''            

 **************************************************************************

 **************************************************************************

                    xk=(   0.00000,   0.05774,   0.00000  )

     Band symmetry, C_s (m)     point group:

     e(  1 -  1) =    -18.76754  eV     1   --> A'             
     e(  2 -  2) =    -18.65006  eV     1   --> A'             
     e(  3 -  3) =     -7.24884  eV     1   --> A'             
     e(  4 -  4) =     -6.40060  eV     1   --> A'             
     e(  5 -  5) =     -2.58801  eV     1   --> A'             
     e(  6 -  6) =     -2.57513  eV     1   --> A'             
     e(  7 -  7) =     -2.47129  eV     1   --> A''            
     e(  8 -  8) =     -2.45991  eV     1   --> A''            
     e(  9 -  9) =      3.83144  eV     1   --> A'             
     e( 10 - 10) =      4.46489  eV     1   --> A'             
     e( 11 - 11) =      5.83805  eV     1   --> A'             
     e( 12 - 12) =      7.83646  eV     1   --> A'             
     e( 13 - 13) =      8.87674  eV     1   --> A'             
     e( 14 - 14) =      9.14473  eV     1   --> A'             
     e( 15 - 15) =      9.19095  eV     1   --> A'             
     e( 16 - 16) =      9.36701  eV     1   --> A''            

 **************************************************************************

 **************************************************************************

                    xk=(   0.00000,   0.04619,   0.00000  )

     Band symmetry, C_s (m)     point group:

     e(  1 -  1) =    -18.78880  eV     1   --> A'             
     e(  2 -  2) =    -18.67113  eV     1   --> A'             
     e(  3 -  3) =     -7.27452  eV     1   --> A'             
     e(  4 -  4) =     -6.42571  eV     1   --> A'             
     e(  5 -  5) =     -2.50137  eV     1   --> A'             
     e(  6 -  6) =     -2.48950  eV     1   --> A'             
     e(  7 -  7) =     -2.42592  eV     1   --> A''            
     e(  8 -  8) =     -2.41478  eV     1   --> A''            
     e(  9 -  9) =      3.80289  eV     1   --> A'             
     e( 10 - 10) =      4.43627  eV     1   --> A'             
     e( 11 - 11) =      5.80988  eV     1   --> A'             
     e( 12 - 12) =      7.81054  eV     1   --> A'             
     e( 13 - 13) =      8.85104  eV     1   --> A'             
     e( 14 - 14) =      9.13387  eV     1   --> A'             
     e( 15 - 15) =      9.17794  eV     1   --> A'             
     e( 16 - 16) =      9.27568  eV     1   --> A''            

 **************************************************************************

 **************************************************************************

                    xk=(   0.00000,   0.03464,   0.00000  )

     Band symmetry, C_s (m)     point group:

     e(  1 -  1) =    -18.80527  eV     1   --> A'             
     e(  2 -  2) =    -18.68748  eV     1   --> A'             
     e(  3 -  3) =     -7.29438  eV     1   --> A'             
     e(  4 -  4) =     -6.44492  eV     1   --> A'             
     e(  5 -  5) =     -2.43268  eV     1   --> A'             
     e(  6 -  6) =     -2.42161  eV     1   --> A'             
     e(  7 -  7) =     -2.38957  eV     1   --> A''            
     e(  8 -  8) =     -2.37913  eV     1   --> A''            
     e(  9 -  9) =      3.78069  eV     1   --> A'             
     e( 10 - 10) =      4.41405  eV     1   --> A'             
     e( 11 - 11) =      5.78802  eV     1   --> A'             
     e( 12 - 12) =      7.79044  eV     1   --> A'             
     e( 13 - 13) =      8.83099  eV     1   --> A'             
     e( 14 - 14) =      9.12464  eV     1   --> A'             
     e( 15 - 15) =      9.16778  eV     1   --> A'             
     e( 16 - 16) =      9.20464  eV     1   --> A''            

 **************************************************************************

 **************************************************************************

                    xk=(   0.00000,   0.02309,   0.00000  )

     Band symmetry, C_s (m)     point group:

     e(  1 -  1) =    -18.81707  eV     1   --> A'             
     e(  2 -  2) =    -18.69920  eV     1   --> A'             
     e(  3 -  3) =     -7.30864  eV     1   --> A'             
     e(  4 -  4) =     -6.45883  eV     1   --> A'             
     e(  5 -  5) =     -2.38261  eV     1   --> A'             
     e(  6 -  6) =     -2.37189  eV     1   --> A'             
     e(  7 -  7) =     -2.36372  eV     1   --> A''            
     e(  8 -  8) =     -2.35348  eV     1   --> A''            
     e(  9 -  9) =      3.76483  eV     1   --> A'             
     e( 10 - 10) =      4.39815  eV     1   --> A'             
     e( 11 - 11) =      5.77238  eV     1   --> A'             
     e( 12 - 12) =      7.77605  eV     1   --> A'             
     e( 13 - 13) =      8.81658  eV     1   --> A'             
     e( 14 - 14) =      9.11786  eV     1   --> A'             
     e( 15 - 15) =      9.15328  eV     1   --> A''            
     e( 16 - 16) =      9.15980  eV     1   --> A'             

 **************************************************************************

 **************************************************************************

                    xk=(   0.00000,   0.01155,   0.00000  )

     Band symmetry, C_s (m)     point group:

     e(  1 -  1) =    -18.82417  eV     1   --> A'             
     e(  2 -  2) =    -18.70624  eV     1   --> A'             
     e(  3 -  3) =     -7.31723  eV     1   --> A'             
     e(  4 -  4) =     -6.46720  eV     1   --> A'             
     e(  5 -  5) =     -2.35280  eV     1   --> A'             
     e(  6 -  6) =     -2.34816  eV     1   --> A''            
     e(  7 -  7) =     -2.34256  eV     1   --> A'             
     e(  8 -  8) =     -2.33797  eV     1   --> A''            
     e(  9 -  9) =      3.75531  eV     1   --> A'             
     e( 10 - 10) =      4.38861  eV     1   --> A'             
     e( 11 - 11) =      5.76299  eV     1   --> A'             
     e( 12 - 12) =      7.76740  eV     1   --> A'             
     e( 13 - 13) =      8.80791  eV     1   --> A'             
     e( 14 - 14) =      9.11345  eV     1   --> A'             
     e( 15 - 15) =      9.12229  eV     1   --> A''            
     e( 16 - 16) =      9.15448  eV     1   --> A'             

 **************************************************************************

 **************************************************************************

                    xk=(   0.00000,   0.00000,   0.00000  )

     point group C_6v (6mm) 
     there are  6 classes
     the character table:

       E     2C6   2C3   C2    3s_v  3s_d 
A_1    1.00  1.00  1.00  1.00  1.00  1.00
A_2    1.00  1.00  1.00  1.00 -1.00 -1.00
B_1    1.00 -1.00  1.00 -1.00  1.00 -1.00
B_2    1.00 -1.00  1.00 -1.00 -1.00  1.00
E_1    2.00  1.00 -1.00 -2.00  0.00  0.00
E_2    2.00 -1.00 -1.00  2.00  0.00  0.00

     the symmetry operations in each class and the name of the first element:

     E        1
                                                                 
     2C6      3    4
                                                                 
     2C3      5    6
                                                                 
     C2       2
                                                                 
     3s_v     8   12   11
                                                                 
     3s_d     7    9   10
                                                                 

     Band symmetry, C_6v (6mm)  point group:

     e(  1 -  1) =    -18.82653  eV     1   --> A_1            
     e(  2 -  2) =    -18.70859  eV     1   --> A_1            
     e(  3 -  3) =     -7.32009  eV     1   --> A_1            
     e(  4 -  4) =     -6.47000  eV     1   --> A_1            
     e(  5 -  6) =     -2.34296  eV     2   --> E_2            
     e(  7 -  8) =     -2.33280  eV     2   --> E_2            
     e(  9 -  9) =      3.75214  eV     1   --> A_1            
     e( 10 - 10) =      4.38543  eV     1   --> A_1            
     e( 11 - 11) =      5.75986  eV     1   --> A_1            
     e( 12 - 12) =      7.76451  eV     1   --> A_1            
     e( 13 - 13) =      8.80501  eV     1   --> A_1            
     e( 14 - 15) =      9.11188  eV     2   --> E_1            
     e( 16 - 16) =      9.15266  eV     1   -->   ?

 **************************************************************************

     BANDS        :     12.12s CPU     12.31s WALL


   This run was terminated on:  11: 9:11   8Apr2024            

=------------------------------------------------------------------------------=
   JOB DONE.
=------------------------------------------------------------------------------=
