
     Program PWSCF v.7.2 starts on  8Apr2024 at 11: 8:21 

     This program is part of the open-source Quantum ESPRESSO suite
     for quantum simulation of materials; please cite
         "P. Giannozzi et al., J. Phys.:Condens. Matter 21 395502 (2009);
         "P. Giannozzi et al., J. Phys.:Condens. Matter 29 465901 (2017);
         "P. Giannozzi et al., J. Chem. Phys. 152 154105 (2020);
          URL http://www.quantum-espresso.org", 
     in publications or presentations arising from this work. More details at
     http://www.quantum-espresso.org/quote

     Parallel version (MPI & OpenMP), running on       8 processor cores
     Number of MPI processes:                 8
     Threads/MPI process:                     1

     MPI processes distributed on     1 nodes
     0 MiB available memory on the printing compute node when the environment starts

     Waiting for input...
     Reading input from standard input
Warning: card &IONS ignored
Warning: card / ignored
Warning: card &CELL ignored
Warning: card CELL_DOFREE = 'ALL' ignored
Warning: card / ignored

     Current dimensions of program PWSCF are:
     Max number of different atomic species (ntypx) = 10
     Max number of k-points (npk) =  40000
     Max angular momentum in pseudopotentials (lmaxx) =  4

     Atomic positions and unit cell read from directory:
     ./tmp/C2L_AA_PBE_vdW.save/
     Atomic positions from file used, from input discarded


     IMPORTANT: XC functional enforced from input :
     Exchange-correlation= VDW-DF2-B86R
                           (   1   4  26   0   2   0   0)
     Any further DFT definition will be discarded
     Please, verify this is what you really want


     R & G space division:  proc/nbgrp/npool/nimage =       8
     Subspace diagonalization in iterative solution of the eigenvalue problem:
     a serial algorithm will be used


     Parallelization info
     --------------------
     sticks:   dense  smooth     PW     G-vecs:    dense   smooth      PW
     Min          45      45     13                 4143     4143     699
     Max          46      46     14                 4164     4164     720
     Sum         361     361    109                33235    33235    5693

     Using Slab Decomposition



     bravais-lattice index     =            4
     lattice parameter (alat)  =       4.6651  a.u.
     unit-cell volume          =     527.5649 (a.u.)^3
     number of atoms/cell      =            4
     number of atomic types    =            1
     number of electrons       =        16.00
     number of Kohn-Sham states=           16
     kinetic-energy cutoff     =      60.0000  Ry
     charge density cutoff     =     240.0000  Ry
     Exchange-correlation= VDW-DF2-B86R
                           (   1   4  26   0   2   0   0)

     celldm(1)=   4.665140  celldm(2)=   0.000000  celldm(3)=   6.000000
     celldm(4)=   0.000000  celldm(5)=   0.000000  celldm(6)=   0.000000

     crystal axes: (cart. coord. in units of alat)
               a(1) = (   1.000000   0.000000   0.000000 )  
               a(2) = (  -0.500000   0.866025   0.000000 )  
               a(3) = (   0.000000   0.000000   6.000000 )  

     reciprocal axes: (cart. coord. in units 2 pi/alat)
               b(1) = (  1.000000  0.577350 -0.000000 )  
               b(2) = (  0.000000  1.154701  0.000000 )  
               b(3) = (  0.000000 -0.000000  0.166667 )  


     PseudoPot. # 1 for C  read from file:
     ../../../../Pseudo/PBE/C.upf
     MD5 check sum: 34a24e64c0a39f27c6c36b90a16ac686
     Pseudo is Norm-conserving + core correction, Zval =  4.0
     Generated using ONCVPSP code by D. R. Hamann
     Using radial grid of 1248 points,  4 beta functions with: 
                l(1) =   0
                l(2) =   0
                l(3) =   1
                l(4) =   1

     atomic species   valence    mass     pseudopotential
        C              4.00    12.01100     C ( 1.00)

     12 Sym. Ops. (no inversion) found ( 6 have fractional translation)


                                    s                        frac. trans.

      isym =  1     identity                                     

 cryst.   s( 1) = (     1          0          0      )
                  (     0          1          0      )
                  (     0          0          1      )

 cart.    s( 1) = (  1.0000000  0.0000000  0.0000000 )
                  (  0.0000000  1.0000000  0.0000000 )
                  (  0.0000000  0.0000000  1.0000000 )


      isym =  2     180 deg rotation - cart. axis [0,0,1]        

 cryst.   s( 2) = (    -1          0          0      )    f =(  0.3333330 )
                  (     0         -1          0      )       ( -0.3333330 )
                  (     0          0          1      )       (  0.0000000 )

 cart.    s( 2) = ( -1.0000000  0.0000000  0.0000000 )    f =(  0.4999995 )
                  (  0.0000000 -1.0000000  0.0000000 )       ( -0.2886748 )
                  (  0.0000000  0.0000000  1.0000000 )       (  0.0000000 )


      isym =  3      60 deg rotation - cryst. axis [0,0,1]       

 cryst.   s( 3) = (     1          1          0      )    f =(  0.3333340 )
                  (    -1          0          0      )       ( -0.3333330 )
                  (     0          0          1      )       (  0.0000000 )

 cart.    s( 3) = (  0.5000000 -0.8660254  0.0000000 )    f =(  0.5000005 )
                  (  0.8660254  0.5000000  0.0000000 )       ( -0.2886748 )
                  (  0.0000000  0.0000000  1.0000000 )       (  0.0000000 )


      isym =  4      60 deg rotation - cryst. axis [0,0,-1]      

 cryst.   s( 4) = (     0         -1          0      )    f =(  0.3333330 )
                  (     1          1          0      )       ( -0.3333340 )
                  (     0          0          1      )       (  0.0000000 )

 cart.    s( 4) = (  0.5000000  0.8660254  0.0000000 )    f =(  0.5000000 )
                  ( -0.8660254  0.5000000  0.0000000 )       ( -0.2886757 )
                  (  0.0000000  0.0000000  1.0000000 )       (  0.0000000 )


      isym =  5     120 deg rotation - cryst. axis [0,0,1]       

 cryst.   s( 5) = (     0          1          0      )
                  (    -1         -1          0      )
                  (     0          0          1      )

 cart.    s( 5) = ( -0.5000000 -0.8660254  0.0000000 )
                  (  0.8660254 -0.5000000  0.0000000 )
                  (  0.0000000  0.0000000  1.0000000 )


      isym =  6     120 deg rotation - cryst. axis [0,0,-1]      

 cryst.   s( 6) = (    -1         -1          0      )
                  (     1          0          0      )
                  (     0          0          1      )

 cart.    s( 6) = ( -0.5000000  0.8660254  0.0000000 )
                  ( -0.8660254 -0.5000000  0.0000000 )
                  (  0.0000000  0.0000000  1.0000000 )


      isym =  7     inv. 180 deg rotation - cart. axis [0,1,0]   

 cryst.   s( 7) = (     1          0          0      )    f =(  0.3333340 )
                  (    -1         -1          0      )       ( -0.3333330 )
                  (     0          0          1      )       (  0.0000000 )

 cart.    s( 7) = (  1.0000000  0.0000000  0.0000000 )    f =(  0.5000005 )
                  (  0.0000000 -1.0000000  0.0000000 )       ( -0.2886748 )
                  (  0.0000000  0.0000000  1.0000000 )       (  0.0000000 )


      isym =  8     inv. 180 deg rotation - cart. axis [1,0,0]   

 cryst.   s( 8) = (    -1          0          0      )
                  (     1          1          0      )
                  (     0          0          1      )

 cart.    s( 8) = ( -1.0000000  0.0000000  0.0000000 )
                  (  0.0000000  1.0000000  0.0000000 )
                  (  0.0000000  0.0000000  1.0000000 )


      isym =  9     inv. 180 deg rotation - cryst. axis [1,-1,0] 

 cryst.   s( 9) = (     0          1          0      )    f =(  0.3333330 )
                  (     1          0          0      )       ( -0.3333330 )
                  (     0          0          1      )       (  0.0000000 )

 cart.    s( 9) = ( -0.5000000  0.8660254  0.0000000 )    f =(  0.4999995 )
                  (  0.8660254  0.5000000  0.0000000 )       ( -0.2886748 )
                  (  0.0000000  0.0000000  1.0000000 )       (  0.0000000 )


      isym = 10     inv. 180 deg rotation - cryst. axis [2,1,0]  

 cryst.   s(10) = (    -1         -1          0      )    f =(  0.3333330 )
                  (     0          1          0      )       ( -0.3333340 )
                  (     0          0          1      )       (  0.0000000 )

 cart.    s(10) = ( -0.5000000 -0.8660254  0.0000000 )    f =(  0.5000000 )
                  ( -0.8660254  0.5000000  0.0000000 )       ( -0.2886757 )
                  (  0.0000000  0.0000000  1.0000000 )       (  0.0000000 )


      isym = 11     inv. 180 deg rotation - cryst. axis [0,1,0]  

 cryst.   s(11) = (     1          1          0      )
                  (     0         -1          0      )
                  (     0          0          1      )

 cart.    s(11) = (  0.5000000  0.8660254  0.0000000 )
                  (  0.8660254 -0.5000000  0.0000000 )
                  (  0.0000000  0.0000000  1.0000000 )


      isym = 12     inv. 180 deg rotation - cryst. axis [1,1,0]  

 cryst.   s(12) = (     0         -1          0      )
                  (    -1          0          0      )
                  (     0          0          1      )

 cart.    s(12) = (  0.5000000 -0.8660254  0.0000000 )
                  ( -0.8660254 -0.5000000  0.0000000 )
                  (  0.0000000  0.0000000  1.0000000 )


     point group C_6v (6mm) 
     there are  6 classes
     the character table:

       E     2C6   2C3   C2    3s_v  3s_d 
A_1    1.00  1.00  1.00  1.00  1.00  1.00
A_2    1.00  1.00  1.00  1.00 -1.00 -1.00
B_1    1.00 -1.00  1.00 -1.00  1.00 -1.00
B_2    1.00 -1.00  1.00 -1.00 -1.00  1.00
E_1    2.00  1.00 -1.00 -2.00  0.00  0.00
E_2    2.00 -1.00 -1.00  2.00  0.00  0.00

     the symmetry operations in each class and the name of the first element:

     E        1
          identity                                               
     2C6      3    4
           60 deg rotation - cryst. axis [0,0,1]                 
     2C3      5    6
          120 deg rotation - cryst. axis [0,0,1]                 
     C2       2
          180 deg rotation - cart. axis [0,0,1]                  
     3s_v     8   12   11
          inv. 180 deg rotation - cart. axis [1,0,0]             
     3s_d     7    9   10
          inv. 180 deg rotation - cart. axis [0,1,0]             

   Cartesian axes

     site n.     atom                  positions (alat units)
         1           C   tau(   1) = (   0.0000000   0.0000000   0.0000000  )
         2           C   tau(   2) = (   0.5000005   0.2886748   0.0000000  )
         3           C   tau(   3) = (   0.0000000   0.0000000   1.4090509  )
         4           C   tau(   4) = (   0.5000005   0.2886748   1.4090509  )

   Crystallographic axes

     site n.     atom                  positions (cryst. coord.)
         1           C   tau(   1) = (  0.0000000  0.0000000  0.0000000  )
         2           C   tau(   2) = (  0.6666670  0.3333330  0.0000000  )
         3           C   tau(   3) = (  0.0000000  0.0000000  0.2348418  )
         4           C   tau(   4) = (  0.6666670  0.3333330  0.2348418  )

     number of k points=   151  Marzari-Vanderbilt smearing, width (Ry)=  0.0050
                       cart. coord. in units 2pi/alat
        k(    1) = (   0.0000000   0.0000000   0.0000000), wk =   0.0132450
        k(    2) = (  -0.0066666   0.0115471   0.0000000), wk =   0.0132450
        k(    3) = (  -0.0133332   0.0230941   0.0000000), wk =   0.0132450
        k(    4) = (  -0.0199998   0.0346412   0.0000000), wk =   0.0132450
        k(    5) = (  -0.0266664   0.0461882   0.0000000), wk =   0.0132450
        k(    6) = (  -0.0333330   0.0577353   0.0000000), wk =   0.0132450
        k(    7) = (  -0.0399996   0.0692823   0.0000000), wk =   0.0132450
        k(    8) = (  -0.0466662   0.0808294   0.0000000), wk =   0.0132450
        k(    9) = (  -0.0533328   0.0923764   0.0000000), wk =   0.0132450
        k(   10) = (  -0.0599994   0.1039235   0.0000000), wk =   0.0132450
        k(   11) = (  -0.0666660   0.1154705   0.0000000), wk =   0.0132450
        k(   12) = (  -0.0733326   0.1270176   0.0000000), wk =   0.0132450
        k(   13) = (  -0.0799992   0.1385646   0.0000000), wk =   0.0132450
        k(   14) = (  -0.0866658   0.1501117   0.0000000), wk =   0.0132450
        k(   15) = (  -0.0933324   0.1616587   0.0000000), wk =   0.0132450
        k(   16) = (  -0.0999990   0.1732058   0.0000000), wk =   0.0132450
        k(   17) = (  -0.1066656   0.1847528   0.0000000), wk =   0.0132450
        k(   18) = (  -0.1133322   0.1962999   0.0000000), wk =   0.0132450
        k(   19) = (  -0.1199988   0.2078469   0.0000000), wk =   0.0132450
        k(   20) = (  -0.1266654   0.2193940   0.0000000), wk =   0.0132450
        k(   21) = (  -0.1333320   0.2309410   0.0000000), wk =   0.0132450
        k(   22) = (  -0.1399986   0.2424881   0.0000000), wk =   0.0132450
        k(   23) = (  -0.1466652   0.2540351   0.0000000), wk =   0.0132450
        k(   24) = (  -0.1533318   0.2655822   0.0000000), wk =   0.0132450
        k(   25) = (  -0.1599984   0.2771292   0.0000000), wk =   0.0132450
        k(   26) = (  -0.1666650   0.2886763   0.0000000), wk =   0.0132450
        k(   27) = (  -0.1733316   0.3002233   0.0000000), wk =   0.0132450
        k(   28) = (  -0.1799982   0.3117704   0.0000000), wk =   0.0132450
        k(   29) = (  -0.1866648   0.3233174   0.0000000), wk =   0.0132450
        k(   30) = (  -0.1933314   0.3348645   0.0000000), wk =   0.0132450
        k(   31) = (  -0.1999980   0.3464115   0.0000000), wk =   0.0132450
        k(   32) = (  -0.2066646   0.3579586   0.0000000), wk =   0.0132450
        k(   33) = (  -0.2133312   0.3695057   0.0000000), wk =   0.0132450
        k(   34) = (  -0.2199978   0.3810527   0.0000000), wk =   0.0132450
        k(   35) = (  -0.2266644   0.3925998   0.0000000), wk =   0.0132450
        k(   36) = (  -0.2333310   0.4041468   0.0000000), wk =   0.0132450
        k(   37) = (  -0.2399976   0.4156939   0.0000000), wk =   0.0132450
        k(   38) = (  -0.2466642   0.4272409   0.0000000), wk =   0.0132450
        k(   39) = (  -0.2533308   0.4387880   0.0000000), wk =   0.0132450
        k(   40) = (  -0.2599974   0.4503350   0.0000000), wk =   0.0132450
        k(   41) = (  -0.2666640   0.4618821   0.0000000), wk =   0.0132450
        k(   42) = (  -0.2733306   0.4734291   0.0000000), wk =   0.0132450
        k(   43) = (  -0.2799972   0.4849762   0.0000000), wk =   0.0132450
        k(   44) = (  -0.2866638   0.4965232   0.0000000), wk =   0.0132450
        k(   45) = (  -0.2933304   0.5080703   0.0000000), wk =   0.0132450
        k(   46) = (  -0.2999970   0.5196173   0.0000000), wk =   0.0132450
        k(   47) = (  -0.3066636   0.5311644   0.0000000), wk =   0.0132450
        k(   48) = (  -0.3133302   0.5427114   0.0000000), wk =   0.0132450
        k(   49) = (  -0.3199968   0.5542585   0.0000000), wk =   0.0132450
        k(   50) = (  -0.3266634   0.5658055   0.0000000), wk =   0.0132450
        k(   51) = (  -0.3333300   0.5773526   0.0000000), wk =   0.0132450
        k(   52) = (  -0.3266634   0.5773525   0.0000000), wk =   0.0132450
        k(   53) = (  -0.3199968   0.5773525   0.0000000), wk =   0.0132450
        k(   54) = (  -0.3133302   0.5773524   0.0000000), wk =   0.0132450
        k(   55) = (  -0.3066636   0.5773524   0.0000000), wk =   0.0132450
        k(   56) = (  -0.2999970   0.5773523   0.0000000), wk =   0.0132450
        k(   57) = (  -0.2933304   0.5773523   0.0000000), wk =   0.0132450
        k(   58) = (  -0.2866638   0.5773523   0.0000000), wk =   0.0132450
        k(   59) = (  -0.2799972   0.5773522   0.0000000), wk =   0.0132450
        k(   60) = (  -0.2733306   0.5773522   0.0000000), wk =   0.0132450
        k(   61) = (  -0.2666640   0.5773521   0.0000000), wk =   0.0132450
        k(   62) = (  -0.2599974   0.5773521   0.0000000), wk =   0.0132450
        k(   63) = (  -0.2533308   0.5773520   0.0000000), wk =   0.0132450
        k(   64) = (  -0.2466642   0.5773520   0.0000000), wk =   0.0132450
        k(   65) = (  -0.2399976   0.5773519   0.0000000), wk =   0.0132450
        k(   66) = (  -0.2333310   0.5773519   0.0000000), wk =   0.0132450
        k(   67) = (  -0.2266644   0.5773518   0.0000000), wk =   0.0132450
        k(   68) = (  -0.2199978   0.5773518   0.0000000), wk =   0.0132450
        k(   69) = (  -0.2133312   0.5773517   0.0000000), wk =   0.0132450
        k(   70) = (  -0.2066646   0.5773517   0.0000000), wk =   0.0132450
        k(   71) = (  -0.1999980   0.5773517   0.0000000), wk =   0.0132450
        k(   72) = (  -0.1933314   0.5773516   0.0000000), wk =   0.0132450
        k(   73) = (  -0.1866648   0.5773516   0.0000000), wk =   0.0132450
        k(   74) = (  -0.1799982   0.5773515   0.0000000), wk =   0.0132450
        k(   75) = (  -0.1733316   0.5773515   0.0000000), wk =   0.0132450
        k(   76) = (  -0.1666650   0.5773514   0.0000000), wk =   0.0132450
        k(   77) = (  -0.1599984   0.5773514   0.0000000), wk =   0.0132450
        k(   78) = (  -0.1533318   0.5773513   0.0000000), wk =   0.0132450
        k(   79) = (  -0.1466652   0.5773513   0.0000000), wk =   0.0132450
        k(   80) = (  -0.1399986   0.5773512   0.0000000), wk =   0.0132450
        k(   81) = (  -0.1333320   0.5773512   0.0000000), wk =   0.0132450
        k(   82) = (  -0.1266654   0.5773511   0.0000000), wk =   0.0132450
        k(   83) = (  -0.1199988   0.5773511   0.0000000), wk =   0.0132450
        k(   84) = (  -0.1133322   0.5773511   0.0000000), wk =   0.0132450
        k(   85) = (  -0.1066656   0.5773510   0.0000000), wk =   0.0132450
        k(   86) = (  -0.0999990   0.5773510   0.0000000), wk =   0.0132450
        k(   87) = (  -0.0933324   0.5773509   0.0000000), wk =   0.0132450
        k(   88) = (  -0.0866658   0.5773509   0.0000000), wk =   0.0132450
        k(   89) = (  -0.0799992   0.5773508   0.0000000), wk =   0.0132450
        k(   90) = (  -0.0733326   0.5773508   0.0000000), wk =   0.0132450
        k(   91) = (  -0.0666660   0.5773507   0.0000000), wk =   0.0132450
        k(   92) = (  -0.0599994   0.5773507   0.0000000), wk =   0.0132450
        k(   93) = (  -0.0533328   0.5773506   0.0000000), wk =   0.0132450
        k(   94) = (  -0.0466662   0.5773506   0.0000000), wk =   0.0132450
        k(   95) = (  -0.0399996   0.5773505   0.0000000), wk =   0.0132450
        k(   96) = (  -0.0333330   0.5773505   0.0000000), wk =   0.0132450
        k(   97) = (  -0.0266664   0.5773505   0.0000000), wk =   0.0132450
        k(   98) = (  -0.0199998   0.5773504   0.0000000), wk =   0.0132450
        k(   99) = (  -0.0133332   0.5773504   0.0000000), wk =   0.0132450
        k(  100) = (  -0.0066666   0.5773503   0.0000000), wk =   0.0132450
        k(  101) = (   0.0000000   0.5773503   0.0000000), wk =   0.0132450
        k(  102) = (   0.0000000   0.5658033   0.0000000), wk =   0.0132450
        k(  103) = (   0.0000000   0.5542563   0.0000000), wk =   0.0132450
        k(  104) = (   0.0000000   0.5427093   0.0000000), wk =   0.0132450
        k(  105) = (   0.0000000   0.5311622   0.0000000), wk =   0.0132450
        k(  106) = (   0.0000000   0.5196152   0.0000000), wk =   0.0132450
        k(  107) = (   0.0000000   0.5080682   0.0000000), wk =   0.0132450
        k(  108) = (   0.0000000   0.4965212   0.0000000), wk =   0.0132450
        k(  109) = (   0.0000000   0.4849742   0.0000000), wk =   0.0132450
        k(  110) = (   0.0000000   0.4734272   0.0000000), wk =   0.0132450
        k(  111) = (   0.0000000   0.4618802   0.0000000), wk =   0.0132450
        k(  112) = (   0.0000000   0.4503332   0.0000000), wk =   0.0132450
        k(  113) = (   0.0000000   0.4387862   0.0000000), wk =   0.0132450
        k(  114) = (   0.0000000   0.4272392   0.0000000), wk =   0.0132450
        k(  115) = (   0.0000000   0.4156922   0.0000000), wk =   0.0132450
        k(  116) = (   0.0000000   0.4041452   0.0000000), wk =   0.0132450
        k(  117) = (   0.0000000   0.3925982   0.0000000), wk =   0.0132450
        k(  118) = (   0.0000000   0.3810512   0.0000000), wk =   0.0132450
        k(  119) = (   0.0000000   0.3695042   0.0000000), wk =   0.0132450
        k(  120) = (   0.0000000   0.3579572   0.0000000), wk =   0.0132450
        k(  121) = (   0.0000000   0.3464102   0.0000000), wk =   0.0132450
        k(  122) = (   0.0000000   0.3348632   0.0000000), wk =   0.0132450
        k(  123) = (   0.0000000   0.3233162   0.0000000), wk =   0.0132450
        k(  124) = (   0.0000000   0.3117691   0.0000000), wk =   0.0132450
        k(  125) = (   0.0000000   0.3002221   0.0000000), wk =   0.0132450
        k(  126) = (   0.0000000   0.2886751   0.0000000), wk =   0.0132450
        k(  127) = (   0.0000000   0.2771281   0.0000000), wk =   0.0132450
        k(  128) = (   0.0000000   0.2655811   0.0000000), wk =   0.0132450
        k(  129) = (   0.0000000   0.2540341   0.0000000), wk =   0.0132450
        k(  130) = (   0.0000000   0.2424871   0.0000000), wk =   0.0132450
        k(  131) = (   0.0000000   0.2309401   0.0000000), wk =   0.0132450
        k(  132) = (   0.0000000   0.2193931   0.0000000), wk =   0.0132450
        k(  133) = (   0.0000000   0.2078461   0.0000000), wk =   0.0132450
        k(  134) = (   0.0000000   0.1962991   0.0000000), wk =   0.0132450
        k(  135) = (   0.0000000   0.1847521   0.0000000), wk =   0.0132450
        k(  136) = (   0.0000000   0.1732051   0.0000000), wk =   0.0132450
        k(  137) = (   0.0000000   0.1616581   0.0000000), wk =   0.0132450
        k(  138) = (   0.0000000   0.1501111   0.0000000), wk =   0.0132450
        k(  139) = (   0.0000000   0.1385641   0.0000000), wk =   0.0132450
        k(  140) = (   0.0000000   0.1270171   0.0000000), wk =   0.0132450
        k(  141) = (   0.0000000   0.1154701   0.0000000), wk =   0.0132450
        k(  142) = (   0.0000000   0.1039230   0.0000000), wk =   0.0132450
        k(  143) = (   0.0000000   0.0923760   0.0000000), wk =   0.0132450
        k(  144) = (   0.0000000   0.0808290   0.0000000), wk =   0.0132450
        k(  145) = (   0.0000000   0.0692820   0.0000000), wk =   0.0132450
        k(  146) = (   0.0000000   0.0577350   0.0000000), wk =   0.0132450
        k(  147) = (   0.0000000   0.0461880   0.0000000), wk =   0.0132450
        k(  148) = (   0.0000000   0.0346410   0.0000000), wk =   0.0132450
        k(  149) = (   0.0000000   0.0230940   0.0000000), wk =   0.0132450
        k(  150) = (   0.0000000   0.0115470   0.0000000), wk =   0.0132450
        k(  151) = (   0.0000000   0.0000000   0.0000000), wk =   0.0132450

                       cryst. coord.
        k(    1) = (   0.0000000   0.0000000   0.0000000), wk =   0.0132450
        k(    2) = (  -0.0066666   0.0133333   0.0000000), wk =   0.0132450
        k(    3) = (  -0.0133332   0.0266667   0.0000000), wk =   0.0132450
        k(    4) = (  -0.0199998   0.0400000   0.0000000), wk =   0.0132450
        k(    5) = (  -0.0266664   0.0533334   0.0000000), wk =   0.0132450
        k(    6) = (  -0.0333330   0.0666667   0.0000000), wk =   0.0132450
        k(    7) = (  -0.0399996   0.0800000   0.0000000), wk =   0.0132450
        k(    8) = (  -0.0466662   0.0933334   0.0000000), wk =   0.0132450
        k(    9) = (  -0.0533328   0.1066667   0.0000000), wk =   0.0132450
        k(   10) = (  -0.0599994   0.1200001   0.0000000), wk =   0.0132450
        k(   11) = (  -0.0666660   0.1333334   0.0000000), wk =   0.0132450
        k(   12) = (  -0.0733326   0.1466667   0.0000000), wk =   0.0132450
        k(   13) = (  -0.0799992   0.1600001   0.0000000), wk =   0.0132450
        k(   14) = (  -0.0866658   0.1733334   0.0000000), wk =   0.0132450
        k(   15) = (  -0.0933324   0.1866668   0.0000000), wk =   0.0132450
        k(   16) = (  -0.0999990   0.2000001   0.0000000), wk =   0.0132450
        k(   17) = (  -0.1066656   0.2133334   0.0000000), wk =   0.0132450
        k(   18) = (  -0.1133322   0.2266668   0.0000000), wk =   0.0132450
        k(   19) = (  -0.1199988   0.2400001   0.0000000), wk =   0.0132450
        k(   20) = (  -0.1266654   0.2533335   0.0000000), wk =   0.0132450
        k(   21) = (  -0.1333320   0.2666668   0.0000000), wk =   0.0132450
        k(   22) = (  -0.1399986   0.2800001   0.0000000), wk =   0.0132450
        k(   23) = (  -0.1466652   0.2933335   0.0000000), wk =   0.0132450
        k(   24) = (  -0.1533318   0.3066668   0.0000000), wk =   0.0132450
        k(   25) = (  -0.1599984   0.3200002   0.0000000), wk =   0.0132450
        k(   26) = (  -0.1666650   0.3333335   0.0000000), wk =   0.0132450
        k(   27) = (  -0.1733316   0.3466668   0.0000000), wk =   0.0132450
        k(   28) = (  -0.1799982   0.3600002   0.0000000), wk =   0.0132450
        k(   29) = (  -0.1866648   0.3733335   0.0000000), wk =   0.0132450
        k(   30) = (  -0.1933314   0.3866669   0.0000000), wk =   0.0132450
        k(   31) = (  -0.1999980   0.4000002   0.0000000), wk =   0.0132450
        k(   32) = (  -0.2066646   0.4133335   0.0000000), wk =   0.0132450
        k(   33) = (  -0.2133312   0.4266669   0.0000000), wk =   0.0132450
        k(   34) = (  -0.2199978   0.4400002   0.0000000), wk =   0.0132450
        k(   35) = (  -0.2266644   0.4533336   0.0000000), wk =   0.0132450
        k(   36) = (  -0.2333310   0.4666669   0.0000000), wk =   0.0132450
        k(   37) = (  -0.2399976   0.4800002   0.0000000), wk =   0.0132450
        k(   38) = (  -0.2466642   0.4933336   0.0000000), wk =   0.0132450
        k(   39) = (  -0.2533308   0.5066669   0.0000000), wk =   0.0132450
        k(   40) = (  -0.2599974   0.5200003   0.0000000), wk =   0.0132450
        k(   41) = (  -0.2666640   0.5333336   0.0000000), wk =   0.0132450
        k(   42) = (  -0.2733306   0.5466669   0.0000000), wk =   0.0132450
        k(   43) = (  -0.2799972   0.5600003   0.0000000), wk =   0.0132450
        k(   44) = (  -0.2866638   0.5733336   0.0000000), wk =   0.0132450
        k(   45) = (  -0.2933304   0.5866670   0.0000000), wk =   0.0132450
        k(   46) = (  -0.2999970   0.6000003   0.0000000), wk =   0.0132450
        k(   47) = (  -0.3066636   0.6133336   0.0000000), wk =   0.0132450
        k(   48) = (  -0.3133302   0.6266670   0.0000000), wk =   0.0132450
        k(   49) = (  -0.3199968   0.6400003   0.0000000), wk =   0.0132450
        k(   50) = (  -0.3266634   0.6533337   0.0000000), wk =   0.0132450
        k(   51) = (  -0.3333300   0.6666670   0.0000000), wk =   0.0132450
        k(   52) = (  -0.3266634   0.6633337   0.0000000), wk =   0.0132450
        k(   53) = (  -0.3199968   0.6600003   0.0000000), wk =   0.0132450
        k(   54) = (  -0.3133302   0.6566670   0.0000000), wk =   0.0132450
        k(   55) = (  -0.3066636   0.6533336   0.0000000), wk =   0.0132450
        k(   56) = (  -0.2999970   0.6500003   0.0000000), wk =   0.0132450
        k(   57) = (  -0.2933304   0.6466670   0.0000000), wk =   0.0132450
        k(   58) = (  -0.2866638   0.6433336   0.0000000), wk =   0.0132450
        k(   59) = (  -0.2799972   0.6400003   0.0000000), wk =   0.0132450
        k(   60) = (  -0.2733306   0.6366669   0.0000000), wk =   0.0132450
        k(   61) = (  -0.2666640   0.6333336   0.0000000), wk =   0.0132450
        k(   62) = (  -0.2599974   0.6300003   0.0000000), wk =   0.0132450
        k(   63) = (  -0.2533308   0.6266669   0.0000000), wk =   0.0132450
        k(   64) = (  -0.2466642   0.6233336   0.0000000), wk =   0.0132450
        k(   65) = (  -0.2399976   0.6200002   0.0000000), wk =   0.0132450
        k(   66) = (  -0.2333310   0.6166669   0.0000000), wk =   0.0132450
        k(   67) = (  -0.2266644   0.6133336   0.0000000), wk =   0.0132450
        k(   68) = (  -0.2199978   0.6100002   0.0000000), wk =   0.0132450
        k(   69) = (  -0.2133312   0.6066669   0.0000000), wk =   0.0132450
        k(   70) = (  -0.2066646   0.6033335   0.0000000), wk =   0.0132450
        k(   71) = (  -0.1999980   0.6000002   0.0000000), wk =   0.0132450
        k(   72) = (  -0.1933314   0.5966669   0.0000000), wk =   0.0132450
        k(   73) = (  -0.1866648   0.5933335   0.0000000), wk =   0.0132450
        k(   74) = (  -0.1799982   0.5900002   0.0000000), wk =   0.0132450
        k(   75) = (  -0.1733316   0.5866668   0.0000000), wk =   0.0132450
        k(   76) = (  -0.1666650   0.5833335   0.0000000), wk =   0.0132450
        k(   77) = (  -0.1599984   0.5800002   0.0000000), wk =   0.0132450
        k(   78) = (  -0.1533318   0.5766668   0.0000000), wk =   0.0132450
        k(   79) = (  -0.1466652   0.5733335   0.0000000), wk =   0.0132450
        k(   80) = (  -0.1399986   0.5700001   0.0000000), wk =   0.0132450
        k(   81) = (  -0.1333320   0.5666668   0.0000000), wk =   0.0132450
        k(   82) = (  -0.1266654   0.5633335   0.0000000), wk =   0.0132450
        k(   83) = (  -0.1199988   0.5600001   0.0000000), wk =   0.0132450
        k(   84) = (  -0.1133322   0.5566668   0.0000000), wk =   0.0132450
        k(   85) = (  -0.1066656   0.5533334   0.0000000), wk =   0.0132450
        k(   86) = (  -0.0999990   0.5500001   0.0000000), wk =   0.0132450
        k(   87) = (  -0.0933324   0.5466668   0.0000000), wk =   0.0132450
        k(   88) = (  -0.0866658   0.5433334   0.0000000), wk =   0.0132450
        k(   89) = (  -0.0799992   0.5400001   0.0000000), wk =   0.0132450
        k(   90) = (  -0.0733326   0.5366667   0.0000000), wk =   0.0132450
        k(   91) = (  -0.0666660   0.5333334   0.0000000), wk =   0.0132450
        k(   92) = (  -0.0599994   0.5300001   0.0000000), wk =   0.0132450
        k(   93) = (  -0.0533328   0.5266667   0.0000000), wk =   0.0132450
        k(   94) = (  -0.0466662   0.5233334   0.0000000), wk =   0.0132450
        k(   95) = (  -0.0399996   0.5200000   0.0000000), wk =   0.0132450
        k(   96) = (  -0.0333330   0.5166667   0.0000000), wk =   0.0132450
        k(   97) = (  -0.0266664   0.5133334   0.0000000), wk =   0.0132450
        k(   98) = (  -0.0199998   0.5100000   0.0000000), wk =   0.0132450
        k(   99) = (  -0.0133332   0.5066667   0.0000000), wk =   0.0132450
        k(  100) = (  -0.0066666   0.5033333   0.0000000), wk =   0.0132450
        k(  101) = (   0.0000000   0.5000000   0.0000000), wk =   0.0132450
        k(  102) = (   0.0000000   0.4900000   0.0000000), wk =   0.0132450
        k(  103) = (   0.0000000   0.4800000   0.0000000), wk =   0.0132450
        k(  104) = (   0.0000000   0.4700000   0.0000000), wk =   0.0132450
        k(  105) = (   0.0000000   0.4600000   0.0000000), wk =   0.0132450
        k(  106) = (   0.0000000   0.4500000   0.0000000), wk =   0.0132450
        k(  107) = (   0.0000000   0.4400000   0.0000000), wk =   0.0132450
        k(  108) = (   0.0000000   0.4300000   0.0000000), wk =   0.0132450
        k(  109) = (   0.0000000   0.4200000   0.0000000), wk =   0.0132450
        k(  110) = (   0.0000000   0.4100000   0.0000000), wk =   0.0132450
        k(  111) = (   0.0000000   0.4000000   0.0000000), wk =   0.0132450
        k(  112) = (   0.0000000   0.3900000   0.0000000), wk =   0.0132450
        k(  113) = (   0.0000000   0.3800000   0.0000000), wk =   0.0132450
        k(  114) = (   0.0000000   0.3700000   0.0000000), wk =   0.0132450
        k(  115) = (   0.0000000   0.3600000   0.0000000), wk =   0.0132450
        k(  116) = (   0.0000000   0.3500000   0.0000000), wk =   0.0132450
        k(  117) = (   0.0000000   0.3400000   0.0000000), wk =   0.0132450
        k(  118) = (   0.0000000   0.3300000   0.0000000), wk =   0.0132450
        k(  119) = (   0.0000000   0.3200000   0.0000000), wk =   0.0132450
        k(  120) = (   0.0000000   0.3100000   0.0000000), wk =   0.0132450
        k(  121) = (   0.0000000   0.3000000   0.0000000), wk =   0.0132450
        k(  122) = (   0.0000000   0.2900000   0.0000000), wk =   0.0132450
        k(  123) = (   0.0000000   0.2800000   0.0000000), wk =   0.0132450
        k(  124) = (   0.0000000   0.2700000   0.0000000), wk =   0.0132450
        k(  125) = (   0.0000000   0.2600000   0.0000000), wk =   0.0132450
        k(  126) = (   0.0000000   0.2500000   0.0000000), wk =   0.0132450
        k(  127) = (   0.0000000   0.2400000   0.0000000), wk =   0.0132450
        k(  128) = (   0.0000000   0.2300000   0.0000000), wk =   0.0132450
        k(  129) = (   0.0000000   0.2200000   0.0000000), wk =   0.0132450
        k(  130) = (   0.0000000   0.2100000   0.0000000), wk =   0.0132450
        k(  131) = (   0.0000000   0.2000000   0.0000000), wk =   0.0132450
        k(  132) = (   0.0000000   0.1900000   0.0000000), wk =   0.0132450
        k(  133) = (   0.0000000   0.1800000   0.0000000), wk =   0.0132450
        k(  134) = (   0.0000000   0.1700000   0.0000000), wk =   0.0132450
        k(  135) = (   0.0000000   0.1600000   0.0000000), wk =   0.0132450
        k(  136) = (   0.0000000   0.1500000   0.0000000), wk =   0.0132450
        k(  137) = (   0.0000000   0.1400000   0.0000000), wk =   0.0132450
        k(  138) = (   0.0000000   0.1300000   0.0000000), wk =   0.0132450
        k(  139) = (   0.0000000   0.1200000   0.0000000), wk =   0.0132450
        k(  140) = (   0.0000000   0.1100000   0.0000000), wk =   0.0132450
        k(  141) = (   0.0000000   0.1000000   0.0000000), wk =   0.0132450
        k(  142) = (   0.0000000   0.0900000   0.0000000), wk =   0.0132450
        k(  143) = (   0.0000000   0.0800000   0.0000000), wk =   0.0132450
        k(  144) = (   0.0000000   0.0700000   0.0000000), wk =   0.0132450
        k(  145) = (   0.0000000   0.0600000   0.0000000), wk =   0.0132450
        k(  146) = (   0.0000000   0.0500000   0.0000000), wk =   0.0132450
        k(  147) = (   0.0000000   0.0400000   0.0000000), wk =   0.0132450
        k(  148) = (   0.0000000   0.0300000   0.0000000), wk =   0.0132450
        k(  149) = (   0.0000000   0.0200000   0.0000000), wk =   0.0132450
        k(  150) = (   0.0000000   0.0100000   0.0000000), wk =   0.0132450
        k(  151) = (   0.0000000   0.0000000   0.0000000), wk =   0.0132450

     Dense  grid:    33235 G-vectors     FFT dimensions: (  24,  24, 144)

     Dynamical RAM for                 wfc:       0.13 MB

     Dynamical RAM for     wfc (w. buffer):       0.13 MB

     Dynamical RAM for           str. fact:       0.06 MB

     Dynamical RAM for           local pot:       0.00 MB

     Dynamical RAM for          nlocal pot:       0.25 MB

     Dynamical RAM for                qrad:       0.36 MB

     Dynamical RAM for          rho,v,vnew:       0.43 MB

     Dynamical RAM for           G-vectors:       0.27 MB

     Dynamical RAM for          h,s,v(r/c):       0.05 MB

     Dynamical RAM for          <psi|beta>:       0.01 MB

     Dynamical RAM for                 psi:       0.25 MB

     Dynamical RAM for                hpsi:       0.25 MB

     Dynamical RAM for      wfcinit/wfcrot:       0.26 MB

     Estimated static dynamical RAM per process >       2.02 MB

     Estimated max dynamical RAM per process >       2.58 MB

     Estimated total dynamical RAM >      20.61 MB

     The potential is recalculated from file :
     ./tmp/C2L_AA_PBE_vdW.save/charge-density



     %%%%%%%%%%%%%%%%%%%%%%%%%%%%%%%%%%%%%%%%%%%%%%%%%%%%%%%%%%%%%%%%%%%%%%%%
     %                                                                      %
     % You are using vdW-DF, which was implemented by the Thonhauser group. %
     % Please cite the following two papers that made this development      %
     % possible and the two reviews that describe the various versions:     %
     %                                                                      %
     %   T. Thonhauser et al., PRL 115, 136402 (2015).                      %
     %   T. Thonhauser et al., PRB 76, 125112 (2007).                       %
     %   K. Berland et al., Rep. Prog. Phys. 78, 066501 (2015).             %
     %   D.C. Langreth et al., J. Phys.: Condens. Matter 21, 084203 (2009). %
     %                                                                      %
     % If you are calculating stress with vdW-DF, please also cite:         %
     %                                                                      %
     %   R. Sabatini et al., J. Phys.: Condens. Matter 24, 424209 (2012).   %
     %                                                                      %
     %%%%%%%%%%%%%%%%%%%%%%%%%%%%%%%%%%%%%%%%%%%%%%%%%%%%%%%%%%%%%%%%%%%%%%%%

     %%%%%%%%%%%%%%%%%%%%%%%%%%%%%%%%%%%%%%%%%%%%%%%%%%%%%%%%%%%%%%%%%%%%%%%%
     %                                                                      %
     %  vdW-DF NEWS:                                                        %
     %                                                                      %
     %  * vdW-DF3 is now available. DOI: 10.1021/acs.jctc.0c00471           %
     %    use with input_dft = 'vdW-DF3-opt1' or 'vdW-DF3-opt2'             %
     %                                                                      %
     %  * Unscreened and range-separated hybrid vdW-DF-cx functionals       %
     %    DOI: 10.1063/1.4986522 and 10.1088/1361-648X/ac2ad2               %
     %    use with input_dft = 'vdW-DF-cx0'    and 'vdW-DF-ahcx'            %
     %  * Unscreened and range-separated hybrid vdW-DF2-b86r functionals    %
     %    DOI: 10.1063/1.4986522 and DOI: 10.1103/PhysRevX.12.041003        %
     %    use with input_dft = 'vdW-DF2-br0' and 'vdW-DF2-ahbr'             %
     %                                                                      %
     %%%%%%%%%%%%%%%%%%%%%%%%%%%%%%%%%%%%%%%%%%%%%%%%%%%%%%%%%%%%%%%%%%%%%%%%


     Carrying out vdW-DF run using the following parameters:
     Nqs    =  20  Npoints =  1024  r_max =  100.000
     q_mesh =  0.00001000  0.04494208  0.09755937  0.15916263
               0.23128650  0.31572767  0.41458969  0.53033537
               0.66584808  0.82450364  1.01025438  1.22772762
               1.48234092  1.78043706  2.12944203  2.53805004
               3.01644009  3.57652955  4.23227104  5.00000000


     -----------------------------------------------
     Non-local corr. energy    =       0.19629463 Ry
     -----------------------------------------------

     Starting wfcs are   16 randomized atomic wfcs

     Band Structure Calculation
     Davidson diagonalization with overlap

     Computing kpt #:     1  of   151
     total cpu time spent up to now is        8.8 secs

     Computing kpt #:     2  of   151
     total cpu time spent up to now is        8.9 secs

     Computing kpt #:     3  of   151
     total cpu time spent up to now is        9.1 secs

     Computing kpt #:     4  of   151
     total cpu time spent up to now is        9.3 secs

     Computing kpt #:     5  of   151
     total cpu time spent up to now is        9.5 secs

     Computing kpt #:     6  of   151
     total cpu time spent up to now is        9.7 secs

     Computing kpt #:     7  of   151
     total cpu time spent up to now is        9.8 secs

     Computing kpt #:     8  of   151
     total cpu time spent up to now is       10.1 secs

     Computing kpt #:     9  of   151
     total cpu time spent up to now is       10.2 secs

     Computing kpt #:    10  of   151
     total cpu time spent up to now is       10.5 secs

     Computing kpt #:    11  of   151
     total cpu time spent up to now is       10.7 secs

     Computing kpt #:    12  of   151
     total cpu time spent up to now is       11.0 secs

     Computing kpt #:    13  of   151
     total cpu time spent up to now is       11.4 secs

     Computing kpt #:    14  of   151
     total cpu time spent up to now is       11.7 secs

     Computing kpt #:    15  of   151
     total cpu time spent up to now is       12.0 secs

     Computing kpt #:    16  of   151
     total cpu time spent up to now is       12.2 secs

     Computing kpt #:    17  of   151
     total cpu time spent up to now is       12.6 secs

     Computing kpt #:    18  of   151
     total cpu time spent up to now is       12.9 secs

     Computing kpt #:    19  of   151
     total cpu time spent up to now is       13.1 secs

     Computing kpt #:    20  of   151
     total cpu time spent up to now is       13.5 secs

     Computing kpt #:    21  of   151
     total cpu time spent up to now is       13.7 secs

     Computing kpt #:    22  of   151
     total cpu time spent up to now is       14.0 secs

     Computing kpt #:    23  of   151
     total cpu time spent up to now is       14.2 secs

     Computing kpt #:    24  of   151
     total cpu time spent up to now is       14.5 secs

     Computing kpt #:    25  of   151
     total cpu time spent up to now is       14.7 secs

     Computing kpt #:    26  of   151
     total cpu time spent up to now is       14.9 secs

     Computing kpt #:    27  of   151
     total cpu time spent up to now is       15.1 secs

     Computing kpt #:    28  of   151
     total cpu time spent up to now is       15.3 secs

     Computing kpt #:    29  of   151
     total cpu time spent up to now is       15.5 secs

     Computing kpt #:    30  of   151
     total cpu time spent up to now is       15.6 secs

     Computing kpt #:    31  of   151
     total cpu time spent up to now is       15.8 secs

     Computing kpt #:    32  of   151
     total cpu time spent up to now is       16.0 secs

     Computing kpt #:    33  of   151
     total cpu time spent up to now is       16.2 secs

     Computing kpt #:    34  of   151
     total cpu time spent up to now is       16.4 secs

     Computing kpt #:    35  of   151
     total cpu time spent up to now is       16.6 secs

     Computing kpt #:    36  of   151
     total cpu time spent up to now is       16.7 secs

     Computing kpt #:    37  of   151
     total cpu time spent up to now is       16.9 secs

     Computing kpt #:    38  of   151
     total cpu time spent up to now is       17.1 secs

     Computing kpt #:    39  of   151
     total cpu time spent up to now is       17.3 secs

     Computing kpt #:    40  of   151
     total cpu time spent up to now is       17.5 secs

     Computing kpt #:    41  of   151
     total cpu time spent up to now is       17.7 secs

     Computing kpt #:    42  of   151
     total cpu time spent up to now is       17.9 secs

     Computing kpt #:    43  of   151
     total cpu time spent up to now is       18.1 secs

     Computing kpt #:    44  of   151
     total cpu time spent up to now is       18.3 secs

     Computing kpt #:    45  of   151
     total cpu time spent up to now is       18.4 secs

     Computing kpt #:    46  of   151
     total cpu time spent up to now is       18.6 secs

     Computing kpt #:    47  of   151
     total cpu time spent up to now is       18.7 secs

     Computing kpt #:    48  of   151
     total cpu time spent up to now is       18.9 secs

     Computing kpt #:    49  of   151
     total cpu time spent up to now is       19.1 secs

     Computing kpt #:    50  of   151
     total cpu time spent up to now is       19.3 secs

     Computing kpt #:    51  of   151
     total cpu time spent up to now is       19.4 secs

     Computing kpt #:    52  of   151
     total cpu time spent up to now is       19.7 secs

     Computing kpt #:    53  of   151
     total cpu time spent up to now is       19.8 secs

     Computing kpt #:    54  of   151
     total cpu time spent up to now is       20.1 secs

     Computing kpt #:    55  of   151
     total cpu time spent up to now is       20.2 secs

     Computing kpt #:    56  of   151
     total cpu time spent up to now is       20.4 secs

     Computing kpt #:    57  of   151
     total cpu time spent up to now is       20.6 secs

     Computing kpt #:    58  of   151
     total cpu time spent up to now is       20.8 secs

     Computing kpt #:    59  of   151
     total cpu time spent up to now is       20.9 secs

     Computing kpt #:    60  of   151
     total cpu time spent up to now is       21.1 secs

     Computing kpt #:    61  of   151
     total cpu time spent up to now is       21.3 secs

     Computing kpt #:    62  of   151
     total cpu time spent up to now is       21.4 secs

     Computing kpt #:    63  of   151
     total cpu time spent up to now is       21.6 secs

     Computing kpt #:    64  of   151
     total cpu time spent up to now is       21.7 secs

     Computing kpt #:    65  of   151
     total cpu time spent up to now is       21.9 secs

     Computing kpt #:    66  of   151
     total cpu time spent up to now is       22.0 secs

     Computing kpt #:    67  of   151
     total cpu time spent up to now is       22.2 secs

     Computing kpt #:    68  of   151
     total cpu time spent up to now is       22.3 secs

     Computing kpt #:    69  of   151
     total cpu time spent up to now is       22.5 secs

     Computing kpt #:    70  of   151
     total cpu time spent up to now is       22.6 secs

     Computing kpt #:    71  of   151
     total cpu time spent up to now is       22.8 secs

     Computing kpt #:    72  of   151
     total cpu time spent up to now is       22.9 secs

     Computing kpt #:    73  of   151
     total cpu time spent up to now is       23.1 secs

     Computing kpt #:    74  of   151
     total cpu time spent up to now is       23.3 secs

     Computing kpt #:    75  of   151
     total cpu time spent up to now is       23.4 secs

     Computing kpt #:    76  of   151
     total cpu time spent up to now is       23.6 secs

     Computing kpt #:    77  of   151
     total cpu time spent up to now is       23.8 secs

     Computing kpt #:    78  of   151
     total cpu time spent up to now is       23.9 secs

     Computing kpt #:    79  of   151
     total cpu time spent up to now is       24.1 secs

     Computing kpt #:    80  of   151
     total cpu time spent up to now is       24.3 secs

     Computing kpt #:    81  of   151
     total cpu time spent up to now is       24.4 secs

     Computing kpt #:    82  of   151
     total cpu time spent up to now is       24.6 secs

     Computing kpt #:    83  of   151
     total cpu time spent up to now is       24.8 secs

     Computing kpt #:    84  of   151
     total cpu time spent up to now is       25.0 secs

     Computing kpt #:    85  of   151
     total cpu time spent up to now is       25.3 secs

     Computing kpt #:    86  of   151
     total cpu time spent up to now is       25.4 secs

     Computing kpt #:    87  of   151
     total cpu time spent up to now is       25.6 secs

     Computing kpt #:    88  of   151
     total cpu time spent up to now is       25.8 secs

     Computing kpt #:    89  of   151
     total cpu time spent up to now is       26.0 secs

     Computing kpt #:    90  of   151
     total cpu time spent up to now is       26.1 secs

     Computing kpt #:    91  of   151
     total cpu time spent up to now is       26.3 secs

     Computing kpt #:    92  of   151
     total cpu time spent up to now is       26.5 secs

     Computing kpt #:    93  of   151
     total cpu time spent up to now is       26.6 secs

     Computing kpt #:    94  of   151
     total cpu time spent up to now is       26.8 secs

     Computing kpt #:    95  of   151
     total cpu time spent up to now is       26.9 secs

     Computing kpt #:    96  of   151
     total cpu time spent up to now is       27.1 secs

     Computing kpt #:    97  of   151
     total cpu time spent up to now is       27.2 secs

     Computing kpt #:    98  of   151
     total cpu time spent up to now is       27.4 secs

     Computing kpt #:    99  of   151
     total cpu time spent up to now is       27.5 secs

     Computing kpt #:   100  of   151
     total cpu time spent up to now is       27.7 secs

     Computing kpt #:   101  of   151
     total cpu time spent up to now is       27.9 secs

     Computing kpt #:   102  of   151
     total cpu time spent up to now is       28.0 secs

     Computing kpt #:   103  of   151
     total cpu time spent up to now is       28.2 secs

     Computing kpt #:   104  of   151
     total cpu time spent up to now is       28.4 secs

     Computing kpt #:   105  of   151
     total cpu time spent up to now is       28.6 secs

     Computing kpt #:   106  of   151
     total cpu time spent up to now is       28.7 secs

     Computing kpt #:   107  of   151
     total cpu time spent up to now is       29.0 secs

     Computing kpt #:   108  of   151
     total cpu time spent up to now is       29.2 secs

     Computing kpt #:   109  of   151
     total cpu time spent up to now is       29.3 secs

     Computing kpt #:   110  of   151
     total cpu time spent up to now is       29.5 secs

     Computing kpt #:   111  of   151
     total cpu time spent up to now is       29.7 secs

     Computing kpt #:   112  of   151
     total cpu time spent up to now is       29.9 secs

     Computing kpt #:   113  of   151
     total cpu time spent up to now is       30.1 secs

     Computing kpt #:   114  of   151
     total cpu time spent up to now is       30.3 secs

     Computing kpt #:   115  of   151
     total cpu time spent up to now is       30.4 secs

     Computing kpt #:   116  of   151
     total cpu time spent up to now is       30.6 secs

     Computing kpt #:   117  of   151
     total cpu time spent up to now is       30.7 secs

     Computing kpt #:   118  of   151
     total cpu time spent up to now is       30.9 secs

     Computing kpt #:   119  of   151
     total cpu time spent up to now is       31.1 secs

     Computing kpt #:   120  of   151
     total cpu time spent up to now is       31.2 secs

     Computing kpt #:   121  of   151
     total cpu time spent up to now is       31.4 secs

     Computing kpt #:   122  of   151
     total cpu time spent up to now is       31.5 secs

     Computing kpt #:   123  of   151
     total cpu time spent up to now is       31.7 secs

     Computing kpt #:   124  of   151
     total cpu time spent up to now is       31.9 secs

     Computing kpt #:   125  of   151
     total cpu time spent up to now is       32.0 secs

     Computing kpt #:   126  of   151
     total cpu time spent up to now is       32.2 secs

     Computing kpt #:   127  of   151
     total cpu time spent up to now is       32.4 secs

     Computing kpt #:   128  of   151
     total cpu time spent up to now is       32.5 secs

     Computing kpt #:   129  of   151
     total cpu time spent up to now is       32.7 secs

     Computing kpt #:   130  of   151
     total cpu time spent up to now is       32.9 secs

     Computing kpt #:   131  of   151
     total cpu time spent up to now is       33.1 secs

     Computing kpt #:   132  of   151
     total cpu time spent up to now is       33.2 secs

     Computing kpt #:   133  of   151
     total cpu time spent up to now is       33.5 secs

     Computing kpt #:   134  of   151
     total cpu time spent up to now is       33.8 secs

     Computing kpt #:   135  of   151
     total cpu time spent up to now is       34.1 secs

     Computing kpt #:   136  of   151
     total cpu time spent up to now is       34.3 secs

     Computing kpt #:   137  of   151
     total cpu time spent up to now is       34.6 secs

     Computing kpt #:   138  of   151
     total cpu time spent up to now is       34.9 secs

     Computing kpt #:   139  of   151
     total cpu time spent up to now is       35.1 secs

     Computing kpt #:   140  of   151
     total cpu time spent up to now is       35.3 secs

     Computing kpt #:   141  of   151
     total cpu time spent up to now is       35.4 secs

     Computing kpt #:   142  of   151
     total cpu time spent up to now is       35.6 secs

     Computing kpt #:   143  of   151
     total cpu time spent up to now is       35.8 secs

     Computing kpt #:   144  of   151
     total cpu time spent up to now is       36.0 secs

     Computing kpt #:   145  of   151
     total cpu time spent up to now is       36.2 secs

     Computing kpt #:   146  of   151
     total cpu time spent up to now is       36.3 secs

     Computing kpt #:   147  of   151
     total cpu time spent up to now is       36.5 secs

     Computing kpt #:   148  of   151
     total cpu time spent up to now is       36.7 secs

     Computing kpt #:   149  of   151
     total cpu time spent up to now is       36.9 secs

     Computing kpt #:   150  of   151
     total cpu time spent up to now is       37.0 secs

     Computing kpt #:   151  of   151
     total cpu time spent up to now is       37.2 secs

     ethr =  6.25E-09,  avg # of iterations = 41.2

     total cpu time spent up to now is       37.2 secs

     End of band structure calculation

          k = 0.0000 0.0000 0.0000 (  4101 PWs)   bands (ev):

   -18.8265 -18.7086  -7.3201  -6.4700  -2.3430  -2.3429  -2.3328  -2.3327
     3.7521   4.3854   5.7599   7.7645   8.8050   9.1119   9.1119   9.1527

          k =-0.0067 0.0115 0.0000 (  4101 PWs)   bands (ev):

   -18.8234 -18.7055  -7.3163  -6.4663  -2.3561  -2.3499  -2.3459  -2.3397
     3.7564   4.3897   5.7640   7.7684   8.8089   9.1140   9.1257   9.1551

          k =-0.0133 0.0231 0.0000 (  4103 PWs)   bands (ev):

   -18.8139 -18.6961  -7.3048  -6.4551  -2.3957  -2.3848  -2.3708  -2.3604
     3.7691   4.4024   5.7766   7.7799   8.8204   9.1201   9.1625   9.1666

          k =-0.0200 0.0346 0.0000 (  4121 PWs)   bands (ev):

   -18.7982 -18.6805  -7.2859  -6.4367  -2.4617  -2.4505  -2.4055  -2.3952
     3.7902   4.4236   5.7974   7.7991   8.8396   9.1306   9.1734   9.2337

          k =-0.0267 0.0462 0.0000 (  4133 PWs)   bands (ev):

   -18.7762 -18.6587  -7.2593  -6.4106  -2.5511  -2.5392  -2.4544  -2.4435
     3.8198   4.4533   5.8266   7.8259   8.8664   9.1458   9.1902   9.3253

          k =-0.0333 0.0577 0.0000 (  4129 PWs)   bands (ev):

   -18.7478 -18.6305  -7.2249  -6.3772  -2.6623  -2.6493  -2.5160  -2.5047
     3.8579   4.4914   5.8641   7.8605   8.9007   9.1654   9.2134   9.4388

          k =-0.0400 0.0693 0.0000 (  4137 PWs)   bands (ev):

   -18.7133 -18.5961  -7.1830  -6.3367  -2.7953  -2.7804  -2.5913  -2.5787
     3.9044   4.5380   5.9100   7.9028   8.9423   9.1891   9.2425   9.5705

          k =-0.0467 0.0808 0.0000 (  4137 PWs)   bands (ev):

   -18.6724 -18.5555  -7.1336  -6.2884  -2.9467  -2.9308  -2.6782  -2.6652
     3.9594   4.5931   5.9643   7.9527   8.9911   9.2181   9.2776   9.7191

          k =-0.0533 0.0924 0.0000 (  4129 PWs)   bands (ev):

   -18.6251 -18.5086  -7.0765  -6.2327  -3.1153  -3.0981  -2.7771  -2.7636
     4.0229   4.6567   6.0269   8.0103   9.0468   9.2533   9.3201   9.8805

          k =-0.0600 0.1039 0.0000 (  4137 PWs)   bands (ev):

   -18.5717 -18.4557  -7.0124  -6.1699  -3.2988  -3.2804  -2.8877  -2.8737
     4.0948   4.7287   6.0978   8.0751   9.1088   9.2928   9.3684  10.0504

          k =-0.0667 0.1155 0.0000 (  4135 PWs)   bands (ev):

   -18.5120 -18.3964  -6.9402  -6.0996  -3.4957  -3.4759  -3.0093  -2.9949
     4.1752   4.8092   6.1771   8.1480   9.1772   9.3386   9.4261  10.2256

          k =-0.0733 0.1270 0.0000 (  4135 PWs)   bands (ev):

   -18.4460 -18.3310  -6.8605  -6.0221  -3.7036  -3.6826  -3.1415  -3.1268
     4.2641   4.8981   6.2648   8.2284   9.2514   9.3896   9.4924  10.4013

          k =-0.0800 0.1386 0.0000 (  4129 PWs)   bands (ev):

   -18.3738 -18.2594  -6.7733  -5.9375  -3.9209  -3.8978  -3.2829  -3.2676
     4.3614   4.9955   6.3608   8.3163   9.3307   9.4466   9.5679  10.5247

          k =-0.0867 0.1501 0.0000 (  4125 PWs)   bands (ev):

   -18.2954 -18.1816  -6.6789  -5.8457  -4.1465  -4.1219  -3.4339  -3.4175
     4.4672   5.1013   6.4651   8.4116   9.4151   9.5098   9.6538  10.3003

          k =-0.0933 0.1617 0.0000 (  4121 PWs)   bands (ev):

   -18.2108 -18.0976  -6.5774  -5.7466  -4.3784  -4.3527  -3.5932  -3.5761
     4.5814   5.2154   6.5778   8.5141   9.5039   9.5794   9.7494  10.0531

          k =-0.1000 0.1732 0.0000 (  4121 PWs)   bands (ev):

   -18.1200 -18.0075  -6.4686  -5.6407  -4.6158  -4.5887  -3.7604  -3.7424
     4.7040   5.3380   6.6987   8.6239   9.5973   9.6552   9.7963   9.8555

          k =-0.1067 0.1848 0.0000 (  4133 PWs)   bands (ev):

   -18.0233 -17.9115  -6.3525  -5.5282  -4.8577  -4.8285  -3.9348  -3.9157
     4.8351   5.4688   6.8278   8.7409   9.5304   9.6959   9.7369   9.8278

          k =-0.1133 0.1963 0.0000 (  4139 PWs)   bands (ev):

   -17.9204 -17.8092  -6.2293  -5.4088  -5.1024  -5.0715  -4.1161  -4.0956
     4.9746   5.6081   6.9652   8.8649   9.2560   9.5639   9.8001   9.8258

          k =-0.1200 0.2078 0.0000 (  4139 PWs)   bands (ev):

   -17.8113 -17.7009  -6.0991  -5.3492  -5.3171  -5.2823  -4.3025  -4.2808
     5.1225   5.7556   7.1108   8.9747   8.9958   9.2951   9.9094   9.9210

          k =-0.1267 0.2194 0.0000 (  4134 PWs)   bands (ev):

   -17.6962 -17.5866  -5.9615  -5.5972  -5.5638  -5.1489  -4.4939  -4.4711
     5.2787   5.9114   7.2646   8.6885   9.0208   9.1335  10.0223  10.0242

          k =-0.1333 0.2309 0.0000 (  4144 PWs)   bands (ev):

   -17.5751 -17.4664  -5.8462  -5.8174  -5.8113  -5.0092  -4.6898  -4.6659
     5.4433   6.0755   7.4263   8.3967   8.7411   9.2774  10.1298  10.1446

          k =-0.1400 0.2425 0.0000 (  4130 PWs)   bands (ev):

   -17.4479 -17.3402  -6.0945  -6.0586  -5.6658  -4.8891  -4.8725  -4.8544
     5.6163   6.2477   7.5962   8.1013   8.4578   9.4279  10.2446  10.2721

          k =-0.1467 0.2540 0.0000 (  4134 PWs)   bands (ev):

   -17.3149 -17.2080  -6.3426  -6.3054  -5.5082  -5.0919  -5.0663  -4.7094
     5.7975   6.4281   7.7739   7.8028   8.1703   9.5838  10.3641  10.4057

          k =-0.1533 0.2656 0.0000 (  4134 PWs)   bands (ev):

   -17.1761 -17.0699  -6.5890  -6.5511  -5.3456  -5.2957  -5.2702  -4.5507
     5.9871   6.6166   7.5023   7.8813   7.9594   9.7450  10.4898  10.5455

          k =-0.1600 0.2771 0.0000 (  4134 PWs)   bands (ev):

   -17.0313 -16.9261  -6.8345  -6.7951  -5.5048  -5.4763  -5.1731  -4.3857
     6.1849   6.8130   7.2012   7.5906   8.1525   9.9108  10.6213  10.6914

          k =-0.1667 0.2887 0.0000 (  4130 PWs)   bands (ev):

   -16.8806 -16.7764  -7.0779  -7.0371  -5.7133  -5.6837  -4.9964  -4.2146
     6.3909   6.8989   7.0174   7.2992   8.3532  10.0808  10.7577  10.8439

          k =-0.1733 0.3002 0.0000 (  4132 PWs)   bands (ev):

   -16.7242 -16.6212  -7.3191  -7.2767  -5.9230  -5.8917  -4.8135  -4.0378
     6.5967   6.6050   7.0061   7.2296   8.5610  10.2539  10.8987  11.0022

          k =-0.1800 0.3118 0.0000 (  4132 PWs)   bands (ev):

   -16.5621 -16.4602  -7.5577  -7.5140  -6.1329  -6.1003  -4.6246  -3.8554
     6.2949   6.7145   6.8273   7.4495   8.7757  10.4287  11.0442  11.1670

          k =-0.1867 0.3233 0.0000 (  4124 PWs)   bands (ev):

   -16.3945 -16.2938  -7.7927  -7.7480  -6.3423  -6.3088  -4.4300  -3.6670
     5.9949   6.4246   7.0576   7.6771   8.9968  10.6039  11.1940  11.3373

          k =-0.1933 0.3349 0.0000 (  4132 PWs)   bands (ev):

   -16.2213 -16.1219  -8.0252  -7.9794  -6.5515  -6.5169  -4.2300  -3.4741
     5.6963   6.1355   7.2960   7.9120   9.2237  10.7772  11.3472  11.5120

          k =-0.2000 0.3464 0.0000 (  4140 PWs)   bands (ev):

   -16.0429 -15.9446  -8.2544  -8.2073  -6.7597  -6.7240  -4.0247  -3.2765
     5.3996   5.8478   7.5421   8.1540   9.4553  10.9459  11.5043  11.6926

          k =-0.2067 0.3580 0.0000 (  4158 PWs)   bands (ev):

   -15.8594 -15.7621  -8.4800  -8.4314  -6.9667  -6.9301  -3.8148  -3.0747
     5.1059   5.5631   7.7960   8.4030   9.6901  11.1067  11.6650  11.8767

          k =-0.2133 0.3695 0.0000 (  4148 PWs)   bands (ev):

   -15.6704 -15.5743  -8.7012  -8.6512  -7.1714  -7.1339  -3.6000  -2.8679
     4.8158   5.2817   8.0577   8.6586   9.9262  11.2564  11.8307  12.0650

          k =-0.2200 0.3811 0.0000 (  4146 PWs)   bands (ev):

   -15.4763 -15.3815  -8.9189  -8.8676  -7.3740  -7.3354  -3.3806  -2.6571
     4.5296   5.0031   8.3268   8.9205  10.1596  11.3927  12.0008  12.2560

          k =-0.2267 0.3926 0.0000 (  4132 PWs)   bands (ev):

   -15.2774 -15.1838  -9.1321  -9.0796  -7.5740  -7.5342  -3.1572  -2.4427
     4.2474   4.7283   8.6033   9.1881  10.3839  11.5163  12.1760  12.4482

          k =-0.2333 0.4041 0.0000 (  4132 PWs)   bands (ev):

   -15.0737 -14.9815  -9.3414  -9.2877  -7.7709  -7.7300  -2.9305  -2.2252
     3.9688   4.4571   8.8869   9.4606  10.5884  11.6338  12.3547  12.6389

          k =-0.2400 0.4157 0.0000 (  4124 PWs)   bands (ev):

   -14.8657 -14.7746  -9.5462  -9.4910  -7.9645  -7.9223  -2.7006  -2.0050
     3.6947   4.1899   9.1774   9.7373  10.7569  11.7599  12.5366  12.8253

          k =-0.2467 0.4272 0.0000 (  4122 PWs)   bands (ev):

   -14.6534 -14.5637  -9.7468  -9.6902  -8.1540  -8.1107  -2.4682  -1.7830
     3.4253   3.9273   9.4743  10.0168  10.8721  11.9133  12.7190  13.0011

          k =-0.2533 0.4388 0.0000 (  4124 PWs)   bands (ev):

   -14.4372 -14.3490  -9.9427  -9.8849  -8.3394  -8.2952  -2.2338  -1.5588
     3.1610   3.6695   9.7772  10.2974  10.9265  12.1044  12.9006  13.1384

          k =-0.2600 0.4503 0.0000 (  4116 PWs)   bands (ev):

   -14.2175 -14.1307 -10.1338 -10.0747  -8.5196  -8.4744  -1.9979  -1.3333
     2.9020   3.4167  10.0853  10.5768  10.9280  12.3294  13.0806  13.1858

          k =-0.2667 0.4619 0.0000 (  4122 PWs)   bands (ev):

   -13.9951 -13.9098 -10.3201 -10.2599  -8.6948  -8.6486  -1.7611  -1.1073
     2.6484   3.1689  10.3971  10.8513  10.8924  12.5757  13.2257  13.2588

          k =-0.2733 0.4734 0.0000 (  4112 PWs)   bands (ev):

   -13.7701 -13.6862 -10.5014 -10.4400  -8.8634  -8.8167  -1.5244  -0.8814
     2.4006   2.9270  10.7026  10.8428  11.1159  12.8291  13.2587  13.3966

          k =-0.2800 0.4850 0.0000 (  4122 PWs)   bands (ev):

   -13.5434 -13.4612 -10.6784 -10.6158  -9.0257  -8.9782  -1.2887  -0.6565
     2.1584   2.6897  10.7453  11.0450  11.3630  13.0721  13.2834  13.4113

          k =-0.2867 0.4965 0.0000 (  4114 PWs)   bands (ev):

   -13.3162 -13.2353 -10.8500 -10.7865  -9.1798  -9.1317  -1.0547  -0.4324
     1.9218   2.4587  10.6687  11.3614  11.5828  13.2850  13.2986  13.4293

          k =-0.2933 0.5081 0.0000 (  4114 PWs)   bands (ev):

   -13.0897 -13.0102 -11.0171 -10.9523  -9.3250  -9.2760  -0.8233  -0.2112
     1.6921   2.2340  10.5897  11.6782  11.7637  13.3034  13.4508  13.4729

          k =-0.3000 0.5196 0.0000 (  4108 PWs)   bands (ev):

   -12.8656 -12.7876 -11.1790 -11.1132  -9.4588  -9.4096  -0.5957   0.0067
     1.4683   2.0155  10.5150  11.8969  11.9892  13.2976  13.5558  13.5686

          k =-0.3067 0.5312 0.0000 (  4122 PWs)   bands (ev):

   -12.6470 -12.5703 -11.3359 -11.2688  -9.5797  -9.5299  -0.3731   0.2202
     1.2504   1.8021  10.4483  11.9817  12.2872  13.2795  13.6456  13.6785

          k =-0.3133 0.5427 0.0000 (  4126 PWs)   bands (ev):

   -12.4366 -12.3612 -11.4879 -11.4196  -9.6836  -9.6334  -0.1562   0.4287
     1.0394   1.5955  10.3929  12.0272  12.5632  13.2498  13.6915  13.8278

          k =-0.3200 0.5543 0.0000 (  4132 PWs)   bands (ev):

   -12.2399 -12.1654 -11.6348 -11.5648  -9.7664  -9.7157   0.0533   0.6311
     0.8351   1.3951  10.3510  12.0466  12.8020  13.2080  13.7152  13.9814

          k =-0.3267 0.5658 0.0000 (  4132 PWs)   bands (ev):

   -12.0625 -11.9893 -11.7764 -11.7052  -9.8214  -9.7706   0.2548   0.6376
     0.8267   1.2015  10.3247  12.0521  12.9847  13.1554  13.7272  14.1143

          k =-0.3333 0.5774 0.0000 (  4116 PWs)   bands (ev):

   -11.9124 -11.9123 -11.8403 -11.8402  -9.8410  -9.7903   0.4471   0.4473
     1.0145   1.0146  10.3157  12.0525  13.0929  13.0930  13.7325  14.2037

          k =-0.3267 0.5774 0.0000 (  4122 PWs)   bands (ev):

   -11.9787 -11.9060 -11.8501 -11.7784  -9.8358  -9.7850   0.3543   0.5396
     0.9235   1.1053  10.3180  12.0527  13.0579  13.1170  13.7300  14.1706

          k =-0.3200 0.5774 0.0000 (  4130 PWs)   bands (ev):

   -12.0437 -11.9706 -11.7973 -11.7262  -9.8191  -9.7685   0.2633   0.6288
     0.8342   1.1938  10.3251  12.0535  13.0207  13.1229  13.7208  14.1320

          k =-0.3133 0.5774 0.0000 (  4130 PWs)   bands (ev):

   -12.1072 -12.0337 -11.7545 -11.6838  -9.7906  -9.7401   0.1740   0.7156
     0.7466   1.2799  10.3371  12.0554  12.9815  13.1140  13.7017  14.0886

          k =-0.3067 0.5774 0.0000 (  4128 PWs)   bands (ev):

   -12.1695 -12.0955 -11.7217 -11.6516  -9.7502  -9.6998   0.0864   0.6608
     0.7996   1.3638  10.3540  12.0586  12.9408  13.0923  13.6702  14.0411

          k =-0.3000 0.5774 0.0000 (  4132 PWs)   bands (ev):

   -12.2305 -12.1561 -11.6987 -11.6293  -9.6983  -9.6481   0.0005   0.5766
     0.8803   1.4450  10.3759  12.0631  12.8983  13.0603  13.6248  13.9899

          k =-0.2933 0.5774 0.0000 (  4128 PWs)   bands (ev):

   -12.2901 -12.2152 -11.6851 -11.6160  -9.6355  -9.5855  -0.0835   0.4942
     0.9580   1.5237  10.4029  12.0691  12.8546  13.0196  13.5655  13.9358

          k =-0.2867 0.5774 0.0000 (  4124 PWs)   bands (ev):

   -12.3486 -12.2729 -11.6799 -11.6111  -9.5628  -9.5129  -0.1657   0.4135
     1.0326   1.5997  10.4349  12.0766  12.8096  12.9714  13.4930  13.8793

          k =-0.2800 0.5774 0.0000 (  4120 PWs)   bands (ev):

   -12.4055 -12.3295 -11.6821 -11.6137  -9.4810  -9.4315  -0.2461   0.3345
     1.1039   1.6731  10.4720  12.0855  12.7637  12.9161  13.4091  13.8138

          k =-0.2733 0.5774 0.0000 (  4114 PWs)   bands (ev):

   -12.4612 -12.3846 -11.6909 -11.6228  -9.3913  -9.3422  -0.3241   0.2574
     1.1722   1.7438  10.5140  12.0956  12.7171  12.8533  13.3165  13.6791

          k =-0.2667 0.5774 0.0000 (  4120 PWs)   bands (ev):

   -12.5156 -12.4386 -11.7050 -11.6371  -9.2952  -9.2464  -0.4010   0.1819
     1.2370   1.8116  10.5609  12.1067  12.6695  12.7817  13.2181  13.5314

          k =-0.2600 0.5774 0.0000 (  4112 PWs)   bands (ev):

   -12.5686 -12.4912 -11.7236 -11.6557  -9.1933  -9.1450  -0.4755   0.1088
     1.2987   1.8770  10.6125  12.1185  12.6217  12.6999  13.1183  13.3741

          k =-0.2533 0.5774 0.0000 (  4118 PWs)   bands (ev):

   -12.6204 -12.5426 -11.7458 -11.6780  -9.0865  -9.0392  -0.5487   0.0370
     1.3569   1.9392  10.6687  12.1307  12.5737  12.6051  13.0211  13.2076

          k =-0.2467 0.5774 0.0000 (  4126 PWs)   bands (ev):

   -12.6709 -12.5928 -11.7709 -11.7032  -8.9758  -8.9291  -0.6203  -0.0332
     1.4121   1.9980  10.7293  12.1428  12.4961  12.5255  12.9300  13.0357

          k =-0.2400 0.5774 0.0000 (  4130 PWs)   bands (ev):

   -12.7200 -12.6415 -11.7982 -11.7305  -8.8618  -8.8159  -0.6898  -0.1014
     1.4639   2.0547  10.7939  12.1539  12.3730  12.4774  12.8465  12.8596

          k =-0.2333 0.5774 0.0000 (  4126 PWs)   bands (ev):

   -12.7678 -12.6889 -11.8272 -11.7595  -8.7449  -8.6999  -0.7575  -0.1679
     1.5125   2.1091  10.8620  12.1624  12.2380  12.4296  12.6824  12.7705

          k =-0.2267 0.5774 0.0000 (  4122 PWs)   bands (ev):

   -12.8141 -12.7349 -11.8574 -11.7898  -8.6261  -8.5818  -0.8232  -0.2325
     1.5580   2.1604  10.9332  12.0936  12.1639  12.3821  12.5093  12.7005

          k =-0.2200 0.5774 0.0000 (  4142 PWs)   bands (ev):

   -12.8593 -12.7797 -11.8887 -11.8211  -8.5067  -8.4623  -0.8876  -0.2961
     1.6003   2.2083  11.0061  11.9429  12.1403  12.3348  12.3585  12.6353

          k =-0.2133 0.5774 0.0000 (  4138 PWs)   bands (ev):

   -12.9030 -12.8231 -11.9202 -11.8527  -8.3851  -8.3416  -0.9497  -0.3571
     1.6398   2.2542  11.0787  11.7906  12.0426  12.2807  12.2884  12.5741

          k =-0.2067 0.5774 0.0000 (  4138 PWs)   bands (ev):

   -12.9454 -12.8652 -11.9522 -11.8846  -8.2629  -8.2202  -1.0100  -0.4163
     1.6765   2.2975  11.1451  11.6437  11.8825  12.2425  12.2641  12.5158

          k =-0.2000 0.5774 0.0000 (  4142 PWs)   bands (ev):

   -12.9865 -12.9059 -11.9841 -11.9163  -8.1407  -8.0985  -1.0682  -0.4738
     1.7105   2.3383  11.1854  11.5228  11.7050  12.1973  12.2640  12.4600

          k =-0.1933 0.5774 0.0000 (  4140 PWs)   bands (ev):

   -13.0262 -12.9453 -12.0161 -11.9481  -8.0180  -7.9766  -1.1248  -0.5293
     1.7419   2.3767  11.1483  11.4806  11.5236  12.1531  12.2678  12.4064

          k =-0.1867 0.5774 0.0000 (  4136 PWs)   bands (ev):

   -13.0646 -12.9834 -12.0476 -11.9796  -7.8957  -7.8552  -1.1794  -0.5830
     1.7707   2.4127  11.0290  11.3414  11.5220  12.1097  12.2721  12.3549

          k =-0.1800 0.5774 0.0000 (  4128 PWs)   bands (ev):

   -13.1017 -13.0201 -12.0786 -12.0106  -7.7739  -7.7343  -1.2321  -0.6346
     1.7971   2.4465  10.8787  11.1603  11.5958  12.0675  12.2759  12.3052

          k =-0.1733 0.5774 0.0000 (  4130 PWs)   bands (ev):

   -13.1374 -13.0556 -12.1092 -12.0411  -7.6531  -7.6148  -1.2829  -0.6846
     1.8212   2.4780  10.7191  10.9806  11.6804  12.0262  12.2573  12.2787

          k =-0.1667 0.5774 0.0000 (  4138 PWs)   bands (ev):

   -13.1719 -13.0898 -12.1392 -12.0710  -7.5334  -7.4965  -1.3319  -0.7328
     1.8431   2.5073  10.5570  10.8036  11.7695  11.9861  12.2111  12.2802

          k =-0.1600 0.5774 0.0000 (  4130 PWs)   bands (ev):

   -13.2049 -13.1224 -12.1683 -12.0999  -7.4151  -7.3790  -1.3788  -0.7791
     1.8637   2.5350  10.3950  10.6296  11.8608  11.9472  12.1667  12.2806

          k =-0.1533 0.5774 0.0000 (  4140 PWs)   bands (ev):

   -13.2367 -13.1539 -12.1970 -12.1282  -7.2986  -7.2638  -1.4244  -0.8236
     1.8814   2.5606  10.2344  10.4588  11.9096  11.9521  12.1239  12.2796

          k =-0.1467 0.5774 0.0000 (  4140 PWs)   bands (ev):

   -13.2671 -13.1840 -12.2244 -12.1556  -7.1840  -7.1502  -1.4677  -0.8662
     1.8977   2.5840  10.0761  10.2918  11.8733  12.0430  12.0829  12.2774

          k =-0.1400 0.5774 0.0000 (  4140 PWs)   bands (ev):

   -13.2961 -13.2128 -12.2509 -12.1820  -7.0717  -7.0388  -1.5091  -0.9069
     1.9124   2.6057   9.9208  10.1290  11.8383  12.0435  12.1329  12.2741

          k =-0.1333 0.5774 0.0000 (  4144 PWs)   bands (ev):

   -13.3238 -13.2402 -12.2765 -12.2074  -6.9619  -6.9302  -1.5486  -0.9457
     1.9256   2.6257   9.7690   9.9707  11.8047  12.0059  12.2206  12.2699

          k =-0.1267 0.5774 0.0000 (  4136 PWs)   bands (ev):

   -13.3500 -13.2663 -12.3008 -12.2318  -6.8547  -6.8243  -1.5862  -0.9824
     1.9373   2.6442   9.6219   9.8174  11.7726  11.9701  12.2648  12.3056

          k =-0.1200 0.5774 0.0000 (  4136 PWs)   bands (ev):

   -13.3750 -13.2911 -12.3242 -12.2551  -6.7508  -6.7213  -1.6219  -1.0175
     1.9478   2.6611   9.4788   9.6692  11.7420  11.9360  12.2589  12.3874

          k =-0.1133 0.5774 0.0000 (  4146 PWs)   bands (ev):

   -13.3986 -13.3146 -12.3467 -12.2774  -6.6506  -6.6218  -1.6560  -1.0511
     1.9569   2.6761   9.3404   9.5265  11.7128  11.9036  12.2525  12.4652

          k =-0.1067 0.5774 0.0000 (  4146 PWs)   bands (ev):

   -13.4209 -13.3367 -12.3678 -12.2984  -6.5537  -6.5259  -1.6878  -1.0824
     1.9651   2.6902   9.2076   9.3897  11.6851  11.8731  12.2457  12.4994

          k =-0.1000 0.5774 0.0000 (  4138 PWs)   bands (ev):

   -13.4418 -13.3572 -12.3877 -12.3180  -6.4608  -6.4338  -1.7175  -1.1115
     1.9724   2.7032   9.0805   9.2592  11.6591  11.8443  12.2387  12.4694

          k =-0.0933 0.5774 0.0000 (  4144 PWs)   bands (ev):

   -13.4614 -13.3766 -12.4065 -12.3367  -6.3727  -6.3463  -1.7455  -1.1391
     1.9787   2.7148   8.9595   9.1351  11.6346  11.8173  12.2315  12.4411

          k =-0.0867 0.5774 0.0000 (  4152 PWs)   bands (ev):

   -13.4797 -13.3947 -12.4243 -12.3542  -6.2888  -6.2632  -1.7718  -1.1650
     1.9847   2.7255   8.8450   9.0181  11.6117  11.7921  12.2242  12.4147

          k =-0.0800 0.5774 0.0000 (  4156 PWs)   bands (ev):

   -13.4967 -13.4114 -12.4409 -12.3705  -6.2095  -6.1847  -1.7960  -1.1888
     1.9895   2.7349   8.7373   8.9081  11.5904  11.7687  12.2171  12.3902

          k =-0.0733 0.5774 0.0000 (  4160 PWs)   bands (ev):

   -13.5123 -13.4269 -12.4560 -12.3855  -6.1359  -6.1112  -1.8187  -1.2103
     1.9937   2.7432   8.6370   8.8060  11.5706  11.7472  12.2100  12.3677

          k =-0.0667 0.5774 0.0000 (  4160 PWs)   bands (ev):

   -13.5265 -13.4409 -12.4698 -12.3992  -6.0671  -6.0431  -1.8390  -1.2303
     1.9973   2.7507   8.5440   8.7112  11.5527  11.7275  12.2034  12.3471

          k =-0.0600 0.5774 0.0000 (  4160 PWs)   bands (ev):

   -13.5393 -13.4536 -12.4823 -12.4117  -6.0041  -5.9806  -1.8573  -1.2484
     2.0003   2.7574   8.4589   8.6247  11.5363  11.7097  12.1971  12.3284

          k =-0.0533 0.5774 0.0000 (  4160 PWs)   bands (ev):

   -13.5508 -13.4650 -12.4936 -12.4229  -5.9468  -5.9239  -1.8738  -1.2646
     2.0029   2.7632   8.3819   8.5463  11.5217  11.6937  12.1913  12.3117

          k =-0.0467 0.5774 0.0000 (  4168 PWs)   bands (ev):

   -13.5609 -13.4751 -12.5035 -12.4328  -5.8959  -5.8736  -1.8884  -1.2789
     2.0050   2.7682   8.3132   8.4765  11.5088  11.6796  12.1859  12.2969

          k =-0.0400 0.5774 0.0000 (  4164 PWs)   bands (ev):

   -13.5696 -13.4838 -12.5121 -12.4414  -5.8510  -5.8293  -1.9010  -1.2913
     2.0068   2.7726   8.2533   8.4155  11.4977  11.6674  12.1812  12.2841

          k =-0.0333 0.5774 0.0000 (  4164 PWs)   bands (ev):

   -13.5770 -13.4911 -12.5195 -12.4486  -5.8128  -5.7914  -1.9116  -1.3017
     2.0082   2.7762   8.2020   8.3636  11.4882  11.6570  12.1772  12.2733

          k =-0.0267 0.5774 0.0000 (  4152 PWs)   bands (ev):

   -13.5830 -13.4971 -12.5254 -12.4544  -5.7809  -5.7600  -1.9202  -1.3101
     2.0094   2.7795   8.1600   8.3210  11.4804  11.6485  12.1739  12.2644

          k =-0.0200 0.5774 0.0000 (  4156 PWs)   bands (ev):

   -13.5877 -13.5018 -12.5300 -12.4591  -5.7562  -5.7356  -1.9273  -1.3170
     2.0101   2.7817   8.1270   8.2875  11.4744  11.6419  12.1712  12.2574

          k =-0.0133 0.5774 0.0000 (  4154 PWs)   bands (ev):

   -13.5911 -13.5051 -12.5334 -12.4624  -5.7385  -5.7180  -1.9321  -1.3218
     2.0107   2.7838   8.1034   8.2636  11.4700  11.6372  12.1694  12.2525

          k =-0.0067 0.5774 0.0000 (  4154 PWs)   bands (ev):

   -13.5932 -13.5071 -12.5354 -12.4644  -5.7278  -5.7075  -1.9350  -1.3246
     2.0111   2.7847   8.0892   8.2492  11.4674  11.6343  12.1682  12.2495

          k = 0.0000 0.5774 0.0000 (  4148 PWs)   bands (ev):

   -13.5938 -13.5077 -12.5360 -12.4648  -5.7247  -5.7037  -1.9359  -1.3252
     2.0112   2.7851   8.0845   8.2444  11.4666  11.6334  12.1678  12.2486

          k = 0.0000 0.5658 0.0000 (  4152 PWs)   bands (ev):

   -13.6362 -13.5502 -12.4901 -12.4191  -5.7224  -5.7016  -1.9522  -1.3402
     2.0317   2.8034   8.0857   8.2456  11.2433  11.8601  11.9081  12.5123

          k = 0.0000 0.5543 0.0000 (  4158 PWs)   bands (ev):

   -13.7467 -13.6606 -12.3692 -12.2983  -5.7155  -5.6946  -2.0009  -1.3839
     2.0918   2.8577   8.0893   8.2492  10.9577  11.6166  12.1552  12.7221

          k = 0.0000 0.5427 0.0000 (  4166 PWs)   bands (ev):

   -13.8960 -13.8097 -12.2022 -12.1318  -5.7039  -5.6830  -2.0788  -1.4543
     2.1885   2.9452   8.0953   8.2551  10.6728  11.3286  12.4275  12.5095

          k = 0.0000 0.5312 0.0000 (  4172 PWs)   bands (ev):

   -14.0649 -13.9780 -12.0090 -11.9394  -5.6874  -5.6666  -2.1821  -1.5483
     2.3182   3.0631   8.1037   8.2635  10.3917  11.0455  12.2221  12.7688

          k = 0.0000 0.5196 0.0000 (  4170 PWs)   bands (ev):

   -14.2427 -14.1552 -11.7994 -11.7308  -5.6662  -5.6455  -2.3060  -1.6615
     2.4762   3.2077   8.1144   8.2744  10.1154  10.7672  11.9700  13.0732

          k = 0.0000 0.5081 0.0000 (  4164 PWs)   bands (ev):

   -14.4244 -14.3359 -11.5790 -11.5121  -5.6404  -5.6197  -2.4464  -1.7906
     2.6584   3.3756   8.1273   8.2876   9.8441  10.4942  11.7171  13.1052

          k = 0.0000 0.4965 0.0000 (  4162 PWs)   bands (ev):

   -14.6070 -14.5173 -11.3510 -11.2851  -5.6101  -5.5893  -2.5993  -1.9326
     2.8606   3.5625   8.1418   8.3031   9.5785  10.2266  11.4659  12.9029

          k = 0.0000 0.4850 0.0000 (  4154 PWs)   bands (ev):

   -14.7888 -14.6980 -11.1168 -11.0522  -5.5749  -5.5543  -2.7613  -2.0841
     3.0796   3.7657   8.1578   8.3208   9.3190   9.9645  11.2175  12.6965

          k = 0.0000 0.4734 0.0000 (  4148 PWs)   bands (ev):

   -14.9687 -14.8769 -10.8777 -10.8145  -5.5354  -5.5147  -2.9304  -2.2425
     3.3121   3.9822   8.1746   8.3405   9.0667   9.7083  10.9728  12.4890

          k = 0.0000 0.4619 0.0000 (  4150 PWs)   bands (ev):

   -15.1463 -15.0535 -10.6346 -10.5726  -5.4912  -5.4708  -3.1040  -2.4058
     3.5561   4.2101   8.1893   8.3619   8.8235   9.4580  10.7321  12.2821

          k = 0.0000 0.4503 0.0000 (  4154 PWs)   bands (ev):

   -15.3209 -15.2272 -10.3877 -10.3275  -5.4427  -5.4226  -3.2804  -2.5722
     3.8095   4.4473   8.1957   8.3844   8.5968   9.2141  10.4960  12.0769

          k = 0.0000 0.4388 0.0000 (  4160 PWs)   bands (ev):

   -15.4922 -15.3975 -10.1380 -10.0791  -5.3899  -5.3699  -3.4581  -2.7407
     4.0710   4.6923   8.1606   8.4079   8.4188   8.9774  10.2649  11.8743

          k = 0.0000 0.4272 0.0000 (  4160 PWs)   bands (ev):

   -15.6602 -15.5642  -9.8852  -9.8275  -5.3328  -5.3129  -3.6359  -2.9098
     4.3388   4.9434   8.0189   8.3549   8.4294   8.7512  10.0391  11.6747

          k = 0.0000 0.4157 0.0000 (  4156 PWs)   bands (ev):

   -15.8244 -15.7275  -9.6296  -9.5734  -5.2715  -5.2517  -3.8130  -3.0786
     4.6119   5.1996   7.8174   8.3586   8.4210   8.5629   9.8190  11.4785

          k = 0.0000 0.4041 0.0000 (  4164 PWs)   bands (ev):

   -15.9849 -15.8869  -9.3725  -9.3172  -5.2062  -5.1865  -3.9886  -3.2466
     4.8891   5.4590   7.6054   8.2680   8.3792   8.5272   9.6050  11.2861

          k = 0.0000 0.3926 0.0000 (  4156 PWs)   bands (ev):

   -16.1415 -16.0425  -9.1127  -9.0589  -5.1364  -5.1171  -4.1620  -3.4126
     5.1700   5.7224   7.3945   8.0642   8.4056   8.5509   9.3979  11.0978

          k = 0.0000 0.3811 0.0000 (  4158 PWs)   bands (ev):

   -16.2938 -16.1936  -8.8515  -8.7992  -5.0633  -5.0445  -4.3331  -3.5765
     5.4516   5.9853   7.1875   7.8612   8.4324   8.5827   9.1990  10.9137

          k = 0.0000 0.3695 0.0000 (  4150 PWs)   bands (ev):

   -16.4422 -16.3410  -8.5887  -8.5379  -4.9862  -4.9674  -4.5005  -3.7374
     5.7364   6.2477   6.9856   7.6655   8.4565   8.6170   9.0116  10.7345

          k = 0.0000 0.3580 0.0000 (  4146 PWs)   bands (ev):

   -16.5864 -16.4843  -8.3252  -8.2754  -4.9056  -4.8868  -4.6647  -3.8957
     6.0227   6.5043   6.7896   7.4822   8.4679   8.6536   8.8448  10.5599

          k = 0.0000 0.3464 0.0000 (  4140 PWs)   bands (ev):

   -16.7265 -16.6234  -8.0604  -8.0120  -4.8254  -4.8205  -4.8028  -4.0504
     6.3058   6.6016   6.7393   7.3273   8.4371   8.6914   8.7275  10.3904

          k = 0.0000 0.3349 0.0000 (  4148 PWs)   bands (ev):

   -16.8623 -16.7584  -7.7950  -7.7486  -4.9824  -4.7330  -4.7157  -4.2017
     6.4045   6.6026   6.8731   7.2789   8.3328   8.6908   8.7295  10.2260

          k = 0.0000 0.3233 0.0000 (  4146 PWs)   bands (ev):

   -16.9936 -16.8890  -7.5294  -7.4845  -5.1353  -4.6423  -4.6252  -4.3491
     6.2305   6.8070   6.8810   7.4359   8.1875   8.7030   8.7685  10.0669

          k = 0.0000 0.3118 0.0000 (  4154 PWs)   bands (ev):

   -17.1208 -17.0151  -7.2642  -7.2206  -5.2837  -4.5488  -4.5319  -4.4927
     6.0583   6.6646   7.1585   7.6736   8.0342   8.7309   8.8077   9.9136

          k = 0.0000 0.3002 0.0000 (  4150 PWs)   bands (ev):

   -17.2435 -17.1368  -6.9994  -6.9571  -5.4274  -4.6317  -4.4525  -4.4356
     5.8916   6.5098   7.4257   7.8897   7.9280   8.7647   8.8476   9.7666

          k = 0.0000 0.2887 0.0000 (  4124 PWs)   bands (ev):

   -17.3614 -17.2542  -6.7351  -6.6944  -5.5665  -4.7660  -4.3532  -4.3362
     5.7311   6.3553   7.6093   7.8293   8.1875   8.8017   8.8872   9.6266

          k = 0.0000 0.2771 0.0000 (  4130 PWs)   bands (ev):

   -17.4754 -17.3674  -6.4726  -6.4332  -5.7008  -4.8962  -4.2523  -4.2354
     5.5765   6.2042   7.5323   8.0280   8.4446   8.8380   8.9259   9.4946

          k = 0.0000 0.2656 0.0000 (  4140 PWs)   bands (ev):

   -17.5848 -17.4760  -6.2126  -6.1743  -5.8303  -5.0219  -4.1494  -4.1327
     5.4281   6.0580   7.3992   8.2795   8.6974   8.8734   8.9643   9.3734

          k = 0.0000 0.2540 0.0000 (  4136 PWs)   bands (ev):

   -17.6897 -17.5802  -5.9610  -5.9477  -5.9168  -5.1422  -4.0448  -4.0282
     5.2859   5.9172   7.2642   8.5232   8.9075   8.9412   9.0077   9.2694

          k = 0.0000 0.2425 0.0000 (  4140 PWs)   bands (ev):

   -17.7901 -17.6799  -6.0742  -5.6981  -5.6627  -5.2581  -3.9389  -3.9226
     5.1500   5.7823   7.1330   8.7190   8.9548   9.0287   9.2003   9.2011

          k = 0.0000 0.2309 0.0000 (  4144 PWs)   bands (ev):

   -17.8859 -17.7750  -6.1884  -5.4457  -5.4126  -5.3681  -3.8320  -3.8160
     5.0202   5.6532   7.0069   8.7802   9.0367   9.0617   9.2319   9.4390

          k = 0.0000 0.2194 0.0000 (  4138 PWs)   bands (ev):

   -17.9772 -17.8657  -6.2976  -5.4750  -5.1970  -5.1643  -3.7245  -3.7084
     4.8968   5.5302   6.8863   8.7370   9.0743   9.0910   9.4089   9.6702

          k = 0.0000 0.2078 0.0000 (  4140 PWs)   bands (ev):

   -18.0639 -17.9517  -6.4010  -5.5757  -4.9533  -4.9221  -3.6170  -3.6011
     4.7796   5.4134   6.7716   8.6604   9.0965   9.1159   9.6301   9.8144

          k = 0.0000 0.1963 0.0000 (  4132 PWs)   bands (ev):

   -18.1459 -18.0331  -6.4992  -5.6711  -4.7147  -4.6850  -3.5098  -3.4942
     4.6687   5.3027   6.6628   8.5749   9.1185   9.1378   9.7337   9.8565

          k = 0.0000 0.1848 0.0000 (  4130 PWs)   bands (ev):

   -18.2234 -18.1100  -6.5921  -5.7615  -4.4821  -4.4539  -3.4036  -3.3882
     4.5642   5.1982   6.5600   8.4883   9.1388   9.1545   9.6387  10.0789

          k = 0.0000 0.1732 0.0000 (  4138 PWs)   bands (ev):

   -18.2962 -18.1823  -6.6801  -5.8466  -4.2564  -4.2309  -3.2988  -3.2841
     4.4659   5.1000   6.4634   8.4039   9.1566   9.1651   9.5495  10.2928

          k = 0.0000 0.1617 0.0000 (  4136 PWs)   bands (ev):

   -18.3644 -18.2500  -6.7622  -5.9263  -4.0386  -4.0146  -3.1956  -3.1815
     4.3739   5.0081   6.3728   8.3237   9.1678   9.1709   9.4691  10.4993

          k = 0.0000 0.1501 0.0000 (  4142 PWs)   bands (ev):

   -18.4279 -18.3131  -6.8389  -6.0009  -3.8294  -3.8073  -3.0952  -3.0816
     4.2883   4.9224   6.2885   8.2479   9.1612   9.1809   9.3996  10.6966

          k = 0.0000 0.1386 0.0000 (  4140 PWs)   bands (ev):

   -18.4868 -18.3715  -6.9098  -6.0699  -3.6299  -3.6089  -2.9984  -2.9851
     4.2090   4.8431   6.2103   8.1772   9.1436   9.1875   9.3445  10.4976

          k = 0.0000 0.1270 0.0000 (  4144 PWs)   bands (ev):

   -18.5410 -18.4253  -6.9752  -6.1336  -3.4408  -3.4219  -2.9056  -2.8928
     4.1360   4.7700   6.1384   8.1118   9.1126   9.1901   9.3048  10.2886

          k = 0.0000 0.1155 0.0000 (  4138 PWs)   bands (ev):

   -18.5905 -18.4745  -7.0351  -6.1918  -3.2634  -3.2459  -2.8167  -2.8045
     4.0694   4.7033   6.0727   8.0518   9.0721   9.1889   9.2770  10.0948

          k = 0.0000 0.1039 0.0000 (  4128 PWs)   bands (ev):

   -18.6353 -18.5188  -7.0890  -6.2445  -3.0987  -3.0820  -2.7334  -2.7220
     4.0091   4.6429   6.0133   7.9974   9.0281   9.1843   9.2570   9.9149

          k = 0.0000 0.0924 0.0000 (  4130 PWs)   bands (ev):

   -18.6754 -18.5586  -7.1373  -6.2918  -2.9478  -2.9322  -2.6568  -2.6457
     3.9552   4.5889   5.9601   7.9488   8.9845   9.1760   9.2389   9.7518

          k = 0.0000 0.0808 0.0000 (  4128 PWs)   bands (ev):

   -18.7108 -18.5938  -7.1802  -6.3336  -2.8115  -2.7968  -2.5869  -2.5759
     3.9076   4.5412   5.9132   7.9056   8.9440   9.1668   9.2222   9.6058

          k = 0.0000 0.0693 0.0000 (  4132 PWs)   bands (ev):

   -18.7415 -18.6243  -7.2173  -6.3698  -2.6914  -2.6777  -2.5250  -2.5142
     3.8663   4.4999   5.8725   7.8682   8.9078   9.1560   9.2063   9.4771

          k = 0.0000 0.0577 0.0000 (  4136 PWs)   bands (ev):

   -18.7675 -18.6501  -7.2488  -6.4006  -2.5880  -2.5751  -2.4713  -2.4599
     3.8314   4.4649   5.8380   7.8365   8.8767   9.1447   9.1910   9.3670

          k = 0.0000 0.0462 0.0000 (  4130 PWs)   bands (ev):

   -18.7888 -18.6711  -7.2745  -6.4257  -2.5014  -2.4895  -2.4259  -2.4148
     3.8029   4.4363   5.8099   7.8105   8.8510   9.1339   9.1779   9.2757

          k = 0.0000 0.0346 0.0000 (  4114 PWs)   bands (ev):

   -18.8053 -18.6875  -7.2944  -6.4449  -2.4327  -2.4216  -2.3896  -2.3791
     3.7807   4.4140   5.7880   7.7904   8.8310   9.1246   9.1678   9.2046

          k = 0.0000 0.0231 0.0000 (  4102 PWs)   bands (ev):

   -18.8171 -18.6992  -7.3086  -6.4588  -2.3826  -2.3719  -2.3637  -2.3535
     3.7648   4.3982   5.7724   7.7761   8.8166   9.1179   9.1533   9.1598

          k = 0.0000 0.0115 0.0000 (  4101 PWs)   bands (ev):

   -18.8242 -18.7062  -7.3172  -6.4672  -2.3528  -2.3482  -2.3426  -2.3380
     3.7553   4.3886   5.7630   7.7674   8.8079   9.1134   9.1223   9.1545

          k = 0.0000 0.0000 0.0000 (  4101 PWs)   bands (ev):

   -18.8265 -18.7086  -7.3201  -6.4700  -2.3430  -2.3429  -2.3328  -2.3327
     3.7521   4.3854   5.7599   7.7645   8.8050   9.1119   9.1119   9.1527

     Writing all to output data dir ./tmp/C2L_AA_PBE_vdW.save/

     init_run     :      8.50s CPU      8.54s WALL (       1 calls)
     electrons    :     27.68s CPU     28.56s WALL (       1 calls)

     Called by init_run:
     wfcinit      :      0.00s CPU      0.00s WALL (       1 calls)
     wfcinit:atom :      0.02s CPU      0.02s WALL (     151 calls)
     wfcinit:wfcr :      0.86s CPU      0.88s WALL (     151 calls)
     potinit      :      8.20s CPU      8.23s WALL (       1 calls)
     hinit0       :      0.28s CPU      0.28s WALL (       1 calls)

     Called by electrons:
     c_bands      :     27.68s CPU     28.56s WALL (       1 calls)
     v_of_rho     :      8.20s CPU      8.23s WALL (       1 calls)
     v_h          :      0.00s CPU      0.00s WALL (       1 calls)
     v_xc         :      8.20s CPU      8.23s WALL (       1 calls)
     vdW_kernel   :      8.17s CPU      8.19s WALL (       1 calls)

     Called by c_bands:
     init_us_2    :      0.02s CPU      0.02s WALL (     151 calls)
     init_us_2:cp :      0.02s CPU      0.02s WALL (     151 calls)
     cegterg      :     26.67s CPU     27.50s WALL (     373 calls)

     Called by sum_band:

     Called by *egterg:
     cdiaghg      :      2.22s CPU      2.26s WALL (    6371 calls)
     cegterg:over :      2.25s CPU      2.32s WALL (    6220 calls)
     cegterg:upda :      1.69s CPU      1.81s WALL (    6220 calls)
     cegterg:last :      2.30s CPU      1.93s WALL (    3211 calls)
     h_psi        :     17.89s CPU     18.63s WALL (    6744 calls)
     g_psi        :      0.17s CPU      0.26s WALL (    6220 calls)

     Called by h_psi:
     h_psi:calbec :      1.38s CPU      1.43s WALL (    6744 calls)
     vloc_psi     :     14.94s CPU     15.64s WALL (    6744 calls)
     add_vuspsi   :      1.45s CPU      1.40s WALL (    6744 calls)

     General routines
     calbec       :      1.37s CPU      1.41s WALL (    6744 calls)
     fft          :      0.26s CPU      0.27s WALL (      61 calls)
     fftw         :     13.42s CPU     13.98s WALL (  107224 calls)
     davcio       :      0.00s CPU      0.03s WALL (     302 calls)

     Parallel routines

     PWSCF        :     36.56s CPU     37.66s WALL


   This run was terminated on:  11: 8:59   8Apr2024            

=------------------------------------------------------------------------------=
   JOB DONE.
=------------------------------------------------------------------------------=
